 Entering Gaussian System, Link 0=/home/emanuele/chem_software/gaussian//g09/g09
 Input=3_mm_126.gjf
 Output=3_mm_126.log
 Initial command:
 /home/emanuele/chem_software/gaussian//gdv/l1.exe "/home/emanuele/chem_software/gaussian/scratch/Gau-5866.inp" -scrdir="/home/emanuele/chem_software/gaussian/scratch/"
 Entering Link 1 = /home/emanuele/chem_software/gaussian//gdv/l1.exe PID=      5868.
  
 Copyright (c) 1988-2020, Gaussian, Inc.  All Rights Reserved.
  
 This is the private, development version of
 the Gaussian(R) DV system of programs. It is based on
 the Gaussian(R) 16 system (copyright 2016, Gaussian, Inc.),
 the Gaussian(R) 09 system (copyright 2009, Gaussian, Inc.),
 the Gaussian(R) 03 system (copyright 2003, Gaussian, Inc.),
 the Gaussian(R) 98 system (copyright 1998, Gaussian, Inc.),
 the Gaussian(R) 94 system (copyright 1995, Gaussian, Inc.),
 the Gaussian 92(TM) system (copyright 1992, Gaussian, Inc.),
 the Gaussian 90(TM) system (copyright 1990, Gaussian, Inc.),
 the Gaussian 88(TM) system (copyright 1988, Gaussian, Inc.),
 the Gaussian 86(TM) system (copyright 1986, Carnegie Mellon
 University), and the Gaussian 82(TM) system (copyright 1983,
 Carnegie Mellon University). Gaussian is a federally registered
 trademark of Gaussian, Inc.
  
 This software contains proprietary and confidential information,
 including trade secrets, belonging to Gaussian, Inc.
  
 This software is provided under written license and may be
 used, copied, transmitted, or stored only in accord with that
 written license.
  
 The following legend is applicable only to US Government
 contracts under FAR:
  
                    RESTRICTED RIGHTS LEGEND
  
 Use, reproduction and disclosure by the US Government is
 subject to restrictions as set forth in subparagraphs (a)
 and (c) of the Commercial Computer Software - Restricted
 Rights clause in FAR 52.227-19.
  
 Gaussian, Inc.
 340 Quinnipiac St., Bldg. 40, Wallingford CT 06492
  
  
 ---------------------------------------------------------------
 Warning -- This program may not be used in any manner that
 competes with the business of Gaussian, Inc. or will provide
 assistance to any competitor of Gaussian, Inc.  The licensee
 of this program is prohibited from giving any competitor of
 Gaussian, Inc. access to this program.  By using this program,
 the user acknowledges that Gaussian, Inc. is engaged in the
 business of creating and licensing software in the field of
 computational chemistry and represents and warrants to the
 licensee that it is not a competitor of Gaussian, Inc. and that
 it will not use this program in any manner prohibited above.
 ---------------------------------------------------------------
  

 Cite this work as:
 Gaussian Development Version, Revision J.14,
 M. J. Frisch, G. W. Trucks, H. B. Schlegel, G. E. Scuseria, 
 M. A. Robb, J. R. Cheeseman, G. Scalmani, V. Barone, 
 G. A. Petersson, H. Nakatsuji, X. Li, A. V. Marenich, M. Caricato, 
 J. Bloino, B. G. Janesko, J. Zheng, R. Gomperts, B. Mennucci, 
 H. P. Hratchian, J. V. Ortiz, A. F. Izmaylov, J. L. Sonnenberg, 
 D. Williams-Young, F. Ding, F. Lipparini, F. Egidi, J. Goings, 
 B. Peng, A. Petrone, T. Henderson, D. Ranasinghe, V. G. Zakrzewski, 
 J. Gao, N. Rega, G. Zheng, W. Liang, M. Hada, M. Ehara, K. Toyota, 
 R. Fukuda, J. Hasegawa, M. Ishida, T. Nakajima, Y. Honda, O. Kitao, 
 H. Nakai, T. Vreven, K. Throssell, J. A. Montgomery, Jr., 
 J. E. Peralta, F. Ogliaro, M. J. Bearpark, J. J. Heyd, 
 E. N. Brothers, K. N. Kudin, V. N. Staroverov, T. A. Keith, 
 R. Kobayashi, J. Normand, K. Raghavachari, A. P. Rendell, 
 J. C. Burant, S. S. Iyengar, J. Tomasi, M. Cossi, J. M. Millam, 
 M. Klene, C. Adamo, R. Cammi, J. W. Ochterski, R. L. Martin, 
 K. Morokuma, O. Farkas, J. B. Foresman, and D. J. Fox, 
 Gaussian, Inc., Wallingford CT, 2020.
 
 ******************************************
 Gaussian DV:  ES64L-GDVRevJ.14 29-Dec-2020
                30-Nov-2023 
 ******************************************
 %mem=1GB
 %nprocshared=1
 Will use up to    1 processors via shared memory.
 %chk=3_mm_126.chk
 ----------------------------------------------
 #p Amber=(SoftFirst,Print) geom=nocrowd nosymm
 ----------------------------------------------
 1/37=210000000,38=1,56=2,64=203,172=1/1;
 2/12=1,15=1,40=1/2;
 3/5=30,11=9,25=1,30=1,41=10030000,43=2/1;
 4/20=11,24=3,119=11/2;
 99/5=1,9=1/99;
 Leave Link    1 at Thu Nov 30 10:57:06 2023, MaxMem=   134217728 cpu:               0.0 elap:               0.0
 (Enter /home/emanuele/chem_software/gaussian//gdv/l101.exe)
 -----
 Title
 -----
 Symbolic Z-matrix:
 Charge =  0 Multiplicity = 1
 C-CT--0.267532       -1.67407  -0.02512   1.01781 
 H-HC-+0.083821       -1.99999  -0.81256   0.32852 
 H-HC-+0.077363       -1.91542  -0.36174   2.035 
 H-HC-+0.077360       -0.57981   0.04426   0.94233 
 C-CT--0.092257       -2.34638   1.31227   0.69069 
 H-HC-+0.060623       -3.38197   0.93896   0.80218 
 H-HC-+0.060622       -2.29618   1.79543  -0.3056 
 C-CT--0.092258       -2.05235   2.36113   1.77687 
 H-HC-+0.060627       -2.66558   2.15227   2.67384 
 H-HC-+0.060618       -0.99475   2.26913   2.09557 
 C-CT--0.267532       -2.72466   3.69853   1.44976 
 H-HC-+0.077330       -3.79455   3.5725    1.23601 
 H-HC-+0.083821       -2.64058   4.40063   2.28726 
 H-HC-+0.077394       -2.26554   4.17727   0.57343 
 
 ITRead=  0  0  0  0  0  0  0  0  0  0  0  0  0  0
 MicOpt= -1 -1 -1 -1 -1 -1 -1 -1 -1 -1 -1 -1 -1 -1
 NAtoms=     14 NQM=       14 NQMF=       0 NMMI=      0 NMMIF=      0
                NMic=       0 NMicF=      0.
                    Isotopes and Nuclear Properties:
 (Nuclear quadrupole moments (NQMom) in fm**2, nuclear magnetic moments (NMagM)
  in nuclear magnetons)

  Atom         1           2           3           4           5           6           7           8           9          10
 IAtWgt=          12           1           1           1          12           1           1          12           1           1
 AtmWgt=  12.0000000   1.0078250   1.0078250   1.0078250  12.0000000   1.0078250   1.0078250  12.0000000   1.0078250   1.0078250
 NucSpn=           0           1           1           1           0           1           1           0           1           1
 AtZEff=  -0.0000000  -0.0000000  -0.0000000  -0.0000000  -0.0000000  -0.0000000  -0.0000000  -0.0000000  -0.0000000  -0.0000000
 NQMom=    0.0000000   0.0000000   0.0000000   0.0000000   0.0000000   0.0000000   0.0000000   0.0000000   0.0000000   0.0000000
 NMagM=    0.0000000   2.7928460   2.7928460   2.7928460   0.0000000   2.7928460   2.7928460   0.0000000   2.7928460   2.7928460
 AtZNuc=   6.0000000   1.0000000   1.0000000   1.0000000   6.0000000   1.0000000   1.0000000   6.0000000   1.0000000   1.0000000

  Atom        11          12          13          14
 IAtWgt=          12           1           1           1
 AtmWgt=  12.0000000   1.0078250   1.0078250   1.0078250
 NucSpn=           0           1           1           1
 AtZEff=  -0.0000000  -0.0000000  -0.0000000  -0.0000000
 NQMom=    0.0000000   0.0000000   0.0000000   0.0000000
 NMagM=    0.0000000   2.7928460   2.7928460   2.7928460
 AtZNuc=   6.0000000   1.0000000   1.0000000   1.0000000
 Generating MM parameters.
 Read MM parameter file:
 Include all MM classes

 MM sanity checks:
 All charges sum to:                0.00000000
 Charges of atoms sum to:           0.00000000
 MMInit generated parameter data with length LenPar=        2717.
 MM Charge=              0.0000 electrons
 MM Dipole moment (Debye):
    X=             -0.1647    Y=             -0.0581    Z=              0.1008  Tot=              0.2017
 MM Quadrupole moment (Debye-Ang):
   XX=              2.9378   YY=              2.5704   ZZ=              2.6408
   XY=             -0.3752   XZ=             -0.2411   YZ=              0.2192
 MM Traceless Quadrupole moment (Debye-Ang):
   XX=              0.2215   YY=             -0.1460   ZZ=             -0.0755
   XY=             -0.3752   XZ=             -0.2411   YZ=              0.2192
 MM Octapole moment (Debye-Ang**2):
  XXX=            -16.9482  YYY=             14.4939  ZZZ=              9.5315  XYY=             -7.2518
  XXY=              5.8237  XXZ=              3.3879  XZZ=             -5.7804  YZZ=              5.2998
  YYZ=              3.8655  XYZ=             -0.9544
 MM Hexadecapole moment (Debye-Ang**3):
 XXXX=             76.8257 YYYY=             86.5453 ZZZZ=             27.6454 XXXY=            -36.5059
 XXXZ=            -19.6838 YYYX=            -40.1356 YYYZ=             24.1028 ZZZX=            -21.3602
 ZZZY=             20.5464 XXYY=             31.0067 XXZZ=             16.9211 YYZZ=             21.7656
 XXYZ=              8.8558 YYXZ=            -11.2109 ZZXY=            -13.1418
 Leave Link  101 at Thu Nov 30 10:57:06 2023, MaxMem=   134217728 cpu:               0.2 elap:               0.2
 (Enter /home/emanuele/chem_software/gaussian//gdv/l202.exe)
                          Input orientation:                          
 ---------------------------------------------------------------------
 Center     Atomic      Atomic             Coordinates (Angstroms)
 Number     Number       Type             X           Y           Z
 ---------------------------------------------------------------------
      1          6    20001001       -1.674069   -0.025117    1.017814
      2          1    20001034       -1.999992   -0.812559    0.328520
      3          1    20001034       -1.915415   -0.361744    2.035001
      4          1    20001034       -0.579807    0.044263    0.942334
      5          6    20001001       -2.346384    1.312272    0.690687
      6          1    20001034       -3.381966    0.938955    0.802179
      7          1    20001034       -2.296181    1.795427   -0.305601
      8          6    20001001       -2.052355    2.361132    1.776871
      9          1    20001034       -2.665578    2.152274    2.673843
     10          1    20001034       -0.994752    2.269131    2.095566
     11          6    20001001       -2.724659    3.698533    1.449757
     12          1    20001034       -3.794549    3.572501    1.236008
     13          1    20001034       -2.640582    4.400630    2.287257
     14          1    20001034       -2.265540    4.177269    0.573434
 ---------------------------------------------------------------------
                    Distance matrix (angstroms):
                    1          2          3          4          5
     1  C    0.000000
     2  H    1.096092   0.000000
     3  H    1.098287   1.767050   0.000000
     4  H    1.099054   1.768569   1.772741   0.000000
     5  C    1.532197   2.183131   2.189805   2.189056   0.000000
     6  H    1.973030   2.280791   2.315694   2.944862   1.106448
     7  H    2.335130   2.700264   3.205743   2.751337   1.108399
     8  C    2.532479   3.488951   2.738510   2.869274   1.538296
     9  H    2.909734   3.838461   2.700213   3.433988   2.177245
    10  H    2.624232   3.691852   2.787973   2.540110   2.171675
    11  C    3.893056   4.704494   4.181296   4.267500   2.532493
    12  H    4.181734   4.824181   4.432586   4.782183   2.739196
    13  H    4.704558   5.605742   4.823868   5.003353   3.489061
    14  H    4.267008   5.002887   4.781360   4.478786   2.868535
                    6          7          8          9         10
     6  H    0.000000
     7  H    1.771906   0.000000
     8  C    2.177264   2.171673   0.000000
     9  H    2.342751   3.023389   1.106446   0.000000
    10  H    3.023410   2.771952   1.108402   1.771925   0.000000
    11  C    2.909756   2.624250   1.532200   1.973016   2.335131
    12  H    2.700740   2.789204   2.189792   2.314949   3.205694
    13  H    3.839049   3.691694   2.183130   2.281486   2.699776
    14  H    3.432988   2.539057   2.189078   2.944886   2.751868
                   11         12         13         14
    11  C    0.000000
    12  H    1.098288   0.000000
    13  H    1.096091   1.767077   0.000000
    14  H    1.099054   1.772743   1.768541   0.000000
 Symmetry turned off by external request.
 Stoichiometry    C4H10
 Framework group  C1[X(C4H10)]
 Deg. of freedom    36
 Full point group                 C1      NOp   1
 Rotational constants (GHZ):          22.9758637           3.6648456           3.4236240
 Leave Link  202 at Thu Nov 30 10:57:06 2023, MaxMem=   134217728 cpu:               0.0 elap:               0.0
 (Enter /home/emanuele/chem_software/gaussian//gdv/l301.exe)
 Standard basis: Dummy (5D, 7F)
    14 basis functions,    14 primitive gaussians,    14 cartesian basis functions
     9 alpha electrons        9 beta electrons
       nuclear repulsion energy        36.4830710167 Hartrees.
 IExCor=       0 DFT=F Ex=HF Corr=None N6=None ScaHFX=  1.000000
 ScaDFX=  1.000000  1.000000  1.000000  1.000000  1.000000  0.000000
 ScaDFX=  0.000000  0.000000  0.000000  0.000000  0.000000  0.000000
 IRadAn=      5 IRanWt=     -1 IRanGd=            0 ICorTp=0 IEmpDi=  4
 NAtoms=   14 NActive=   14 NUniq=   14 SFac= 1.00D+00 NAtFMM=   60 NAOKFM=F Big=F
 Integral buffers will be    131072 words long.
 Raffenetti 1 integral format.
 Two-electron integral symmetry is turned off.
 Leave Link  301 at Thu Nov 30 10:57:06 2023, MaxMem=   134217728 cpu:               0.1 elap:               0.0
 (Enter /home/emanuele/chem_software/gaussian//gdv/l402.exe)
 AMBER calculation of energy.
 ****************************
 MOLECULAR MECHANICS FUNCTION
 ****************************
 Atomic parameters:
 Center  VDW
      1 1.9080 0.1094000
      2 1.4870 0.0157000
      3 1.4870 0.0157000
      4 1.4870 0.0157000
      5 1.9080 0.1094000
      6 1.4870 0.0157000
      7 1.4870 0.0157000
      8 1.9080 0.1094000
      9 1.4870 0.0157000
     10 1.4870 0.0157000
     11 1.9080 0.1094000
     12 1.4870 0.0157000
     13 1.4870 0.0157000
     14 1.4870 0.0157000
 Molecular mechanics terms:
 NBDir 3 1      0      0
 HrmStr1  1- 2  368.27 1.0930
 HrmStr1  1- 3  368.27 1.0930
 HrmStr1  1- 4  368.27 1.0930
 HrmStr1  1- 5  302.21 1.5280
 HrmStr1  5- 6  368.27 1.0930
 HrmStr1  5- 7  368.27 1.0930
 HrmStr1  5- 8  302.21 1.5280
 HrmStr1  8- 9  368.27 1.0930
 HrmStr1  8-10  368.27 1.0930
 HrmStr1  8-11  302.21 1.5280
 HrmStr1 11-12  368.27 1.0930
 HrmStr1 11-13  368.27 1.0930
 HrmStr1 11-14  368.27 1.0930
 HrmBnd1  1- 5- 6  40.03 110.16
 HrmBnd1  1- 5- 7  40.03 110.16
 HrmBnd1  1- 5- 8  52.04 113.37
 HrmBnd1  2- 1- 3  33.87 110.16
 HrmBnd1  2- 1- 4  33.87 110.16
 HrmBnd1  5- 1- 2  40.03 110.16
 HrmBnd1  3- 1- 4  33.87 110.16
 HrmBnd1  5- 1- 3  40.03 110.16
 HrmBnd1  5- 1- 4  40.03 110.16
 HrmBnd1  5- 8- 9  40.03 110.16
 HrmBnd1  5- 8-10  40.03 110.16
 HrmBnd1  5- 8-11  52.04 113.37
 HrmBnd1  6- 5- 7  33.87 110.16
 HrmBnd1  8- 5- 6  40.03 110.16
 HrmBnd1  8- 5- 7  40.03 110.16
 HrmBnd1  8-11-12  40.03 110.16
 HrmBnd1  8-11-13  40.03 110.16
 HrmBnd1  8-11-14  40.03 110.16
 HrmBnd1  9- 8-10  33.87 110.16
 HrmBnd1 11- 8- 9  40.03 110.16
 HrmBnd1 11- 8-10  40.03 110.16
 HrmBnd1 12-11-13  33.87 110.16
 HrmBnd1 12-11-14  33.87 110.16
 HrmBnd1 13-11-14  33.87 110.16
 AmbTrs  2- 1- 5- 6   0   0   0   0  0.0000  0.0000  2.1600  0.0000  9.0
 AmbTrs  2- 1- 5- 7   0   0   0   0  0.0000  0.0000  2.1600  0.0000  9.0
 AmbTrs  8- 5- 1- 2   0   0   0   0  0.0000  0.0000  2.1600  0.0000  9.0
 AmbTrs  3- 1- 5- 6   0   0   0   0  0.0000  0.0000  2.1600  0.0000  9.0
 AmbTrs  3- 1- 5- 7   0   0   0   0  0.0000  0.0000  2.1600  0.0000  9.0
 AmbTrs  8- 5- 1- 3   0   0   0   0  0.0000  0.0000  2.1600  0.0000  9.0
 AmbTrs  4- 1- 5- 6   0   0   0   0  0.0000  0.0000  2.1600  0.0000  9.0
 AmbTrs  4- 1- 5- 7   0   0   0   0  0.0000  0.0000  2.1600  0.0000  9.0
 AmbTrs  8- 5- 1- 4   0   0   0   0  0.0000  0.0000  2.1600  0.0000  9.0
 AmbTrs  1- 5- 8- 9   0   0   0   0  0.0000  0.0000  2.1600  0.0000  9.0
 AmbTrs  1- 5- 8-10   0   0   0   0  0.0000  0.0000  2.1600  0.0000  9.0
 AmbTrs  1- 5- 8-11   0   0   0   0  0.0000  0.0000  0.0000  0.0000  9.0
 AmbTrs  6- 5- 8- 9   0   0   0   0  0.0000  0.0000  2.1600  0.0000  9.0
 AmbTrs  6- 5- 8-10   0   0   0   0  0.0000  0.0000  2.1600  0.0000  9.0
 AmbTrs 11- 8- 5- 6   0   0   0   0  0.0000  0.0000  2.1600  0.0000  9.0
 AmbTrs  7- 5- 8- 9   0   0   0   0  0.0000  0.0000  2.1600  0.0000  9.0
 AmbTrs  7- 5- 8-10   0   0   0   0  0.0000  0.0000  2.1600  0.0000  9.0
 AmbTrs 11- 8- 5- 7   0   0   0   0  0.0000  0.0000  2.1600  0.0000  9.0
 AmbTrs  5- 8-11-12   0   0   0   0  0.0000  0.0000  2.1600  0.0000  9.0
 AmbTrs  5- 8-11-13   0   0   0   0  0.0000  0.0000  2.1600  0.0000  9.0
 AmbTrs  5- 8-11-14   0   0   0   0  0.0000  0.0000  2.1600  0.0000  9.0
 AmbTrs  9- 8-11-12   0   0   0   0  0.0000  0.0000  2.1600  0.0000  9.0
 AmbTrs  9- 8-11-13   0   0   0   0  0.0000  0.0000  2.1600  0.0000  9.0
 AmbTrs  9- 8-11-14   0   0   0   0  0.0000  0.0000  2.1600  0.0000  9.0
 AmbTrs 10- 8-11-12   0   0   0   0  0.0000  0.0000  2.1600  0.0000  9.0
 AmbTrs 10- 8-11-13   0   0   0   0  0.0000  0.0000  2.1600  0.0000  9.0
 AmbTrs 10- 8-11-14   0   0   0   0  0.0000  0.0000  2.1600  0.0000  9.0
 NBPair  2- 1 3 1      0      0 -1.000 -1.000
 NBPair  3- 2 3 1      0      0 -1.000 -1.000
 NBPair  4- 2 3 1      0      0 -1.000 -1.000
 NBPair  5- 2 3 1      0      0 -1.000 -1.000
 NBPair  3- 1 3 1      0      0 -1.000 -1.000
 NBPair  4- 3 3 1      0      0 -1.000 -1.000
 NBPair  5- 3 3 1      0      0 -1.000 -1.000
 NBPair  4- 1 3 1      0      0 -1.000 -1.000
 NBPair  5- 4 3 1      0      0 -1.000 -1.000
 NBPair  5- 1 3 1      0      0 -1.000 -1.000
 NBPair  6- 2 3 1      0      0 -0.500 -0.167
 NBPair  7- 2 3 1      0      0 -0.500 -0.167
 NBPair  8- 2 3 1      0      0 -0.500 -0.167
 NBPair  6- 3 3 1      0      0 -0.500 -0.167
 NBPair  7- 3 3 1      0      0 -0.500 -0.167
 NBPair  8- 3 3 1      0      0 -0.500 -0.167
 NBPair  6- 4 3 1      0      0 -0.500 -0.167
 NBPair  7- 4 3 1      0      0 -0.500 -0.167
 NBPair  8- 4 3 1      0      0 -0.500 -0.167
 NBPair  6- 1 3 1      0      0 -1.000 -1.000
 NBPair  7- 1 3 1      0      0 -1.000 -1.000
 NBPair  8- 1 3 1      0      0 -1.000 -1.000
 NBPair  6- 5 3 1      0      0 -1.000 -1.000
 NBPair  7- 6 3 1      0      0 -1.000 -1.000
 NBPair  8- 6 3 1      0      0 -1.000 -1.000
 NBPair  7- 5 3 1      0      0 -1.000 -1.000
 NBPair  8- 7 3 1      0      0 -1.000 -1.000
 NBPair  8- 5 3 1      0      0 -1.000 -1.000
 NBPair  9- 1 3 1      0      0 -0.500 -0.167
 NBPair 10- 1 3 1      0      0 -0.500 -0.167
 NBPair 11- 1 3 1      0      0 -0.500 -0.167
 NBPair  9- 6 3 1      0      0 -0.500 -0.167
 NBPair 10- 6 3 1      0      0 -0.500 -0.167
 NBPair 11- 6 3 1      0      0 -0.500 -0.167
 NBPair  9- 7 3 1      0      0 -0.500 -0.167
 NBPair 10- 7 3 1      0      0 -0.500 -0.167
 NBPair 11- 7 3 1      0      0 -0.500 -0.167
 NBPair  9- 5 3 1      0      0 -1.000 -1.000
 NBPair 10- 5 3 1      0      0 -1.000 -1.000
 NBPair 11- 5 3 1      0      0 -1.000 -1.000
 NBPair  9- 8 3 1      0      0 -1.000 -1.000
 NBPair 10- 9 3 1      0      0 -1.000 -1.000
 NBPair 11- 9 3 1      0      0 -1.000 -1.000
 NBPair 10- 8 3 1      0      0 -1.000 -1.000
 NBPair 11-10 3 1      0      0 -1.000 -1.000
 NBPair 11- 8 3 1      0      0 -1.000 -1.000
 NBPair 12- 5 3 1      0      0 -0.500 -0.167
 NBPair 13- 5 3 1      0      0 -0.500 -0.167
 NBPair 14- 5 3 1      0      0 -0.500 -0.167
 NBPair 12- 9 3 1      0      0 -0.500 -0.167
 NBPair 13- 9 3 1      0      0 -0.500 -0.167
 NBPair 14- 9 3 1      0      0 -0.500 -0.167
 NBPair 12-10 3 1      0      0 -0.500 -0.167
 NBPair 13-10 3 1      0      0 -0.500 -0.167
 NBPair 14-10 3 1      0      0 -0.500 -0.167
 NBPair 12- 8 3 1      0      0 -1.000 -1.000
 NBPair 13- 8 3 1      0      0 -1.000 -1.000
 NBPair 14- 8 3 1      0      0 -1.000 -1.000
 NBPair 12-11 3 1      0      0 -1.000 -1.000
 NBPair 13-12 3 1      0      0 -1.000 -1.000
 NBPair 14-12 3 1      0      0 -1.000 -1.000
 NBPair 13-11 3 1      0      0 -1.000 -1.000
 NBPair 14-13 3 1      0      0 -1.000 -1.000
 NBPair 14-11 3 1      0      0 -1.000 -1.000
 Energy per function type:
 Direct Coulomb + vdW (small)                           0.012924135
 Direct Coulomb (large)                                -0.055972770
 Direct vdW (large)                                   513.578535597
 Non-direct Coulomb + vdW (small)                       0.027007579
 Non-direct Coulomb (large)                             0.021652745
 Non-direct vdW (large)                              -513.578535597
 Harmonic stretch I                                     0.000645715
 Harmonic bend I                                        0.017140906
 Amber torsion                                          0.002851641
 Energy per function class:
        Coulomb               0.003914311
    Vanderwaals               0.001697377
     Stretching               0.000645715
        Bending               0.017140906
        Torsion               0.002851641
 Energy=    2.624994917E-02 NIter=   0.
 Dipole moment=      -0.064814      -0.022873       0.039657
 Leave Link  402 at Thu Nov 30 10:57:06 2023, MaxMem=   134217728 cpu:               0.0 elap:               0.0
 (Enter /home/emanuele/chem_software/gaussian//gdv/l9999.exe)
 Unable to Open any file for archive entry.
 1\1\GINC-EMANUELE-XPS-13-9343\SP\AMBER\ZDO\C4H10\EMANUELE\30-Nov-2023\
 0\\#p Amber=(SoftFirst,Print) geom=nocrowd nosymm\\Title\\0,1\C,0,-1.6
 74069,-0.025117,1.017814\H,0,-1.999992,-0.812559,0.32852\H,0,-1.915415
 ,-0.361744,2.035001\H,0,-0.579807,0.044263,0.942334\C,0,-2.346384,1.31
 2272,0.690687\H,0,-3.381966,0.938955,0.802179\H,0,-2.296181,1.795427,-
 0.305601\C,0,-2.052355,2.361132,1.776871\H,0,-2.665578,2.152274,2.6738
 43\H,0,-0.994752,2.269131,2.095566\C,0,-2.724659,3.698533,1.449757\H,0
 ,-3.794549,3.572501,1.236008\H,0,-2.640582,4.40063,2.287257\H,0,-2.265
 54,4.177269,0.573434\\Version=ES64L-GDVRevJ.14\HF=0.0262499\RMSD=0.000
 e+00\Dipole=-0.0648142,-0.0228729,0.0396571\PG=C01 [X(C4H10)]\\@
 The archive entry for this job was punched.


 ... IT CAN BE VERY DIFFICULT, IN THESE COMPLEX TIMES,
 TO UNDERSTAND JUST HOW SCIENTISTS DO WHAT THEY DO.

                     DON MOSER IN THE FEBRUARY 1979 SMITHSONIAN
 Job cpu time:       0 days  0 hours  0 minutes  0.4 seconds.
 Elapsed time:       0 days  0 hours  0 minutes  0.4 seconds.
 File lengths (MBytes):  RWF=      6 Int=      0 D2E=      0 Chk=      1 Scr=      1
 Normal termination of Gaussian DV at Thu Nov 30 10:57:06 2023.
