 Entering Gaussian System, Link 0=/home/emanuele/chem_software/gaussian//g09/g09
 Input=3_mm_14.gjf
 Output=3_mm_14.log
 Initial command:
 /home/emanuele/chem_software/gaussian//gdv/l1.exe "/home/emanuele/chem_software/gaussian/scratch/Gau-5842.inp" -scrdir="/home/emanuele/chem_software/gaussian/scratch/"
 Entering Link 1 = /home/emanuele/chem_software/gaussian//gdv/l1.exe PID=      5844.
  
 Copyright (c) 1988-2020, Gaussian, Inc.  All Rights Reserved.
  
 This is the private, development version of
 the Gaussian(R) DV system of programs. It is based on
 the Gaussian(R) 16 system (copyright 2016, Gaussian, Inc.),
 the Gaussian(R) 09 system (copyright 2009, Gaussian, Inc.),
 the Gaussian(R) 03 system (copyright 2003, Gaussian, Inc.),
 the Gaussian(R) 98 system (copyright 1998, Gaussian, Inc.),
 the Gaussian(R) 94 system (copyright 1995, Gaussian, Inc.),
 the Gaussian 92(TM) system (copyright 1992, Gaussian, Inc.),
 the Gaussian 90(TM) system (copyright 1990, Gaussian, Inc.),
 the Gaussian 88(TM) system (copyright 1988, Gaussian, Inc.),
 the Gaussian 86(TM) system (copyright 1986, Carnegie Mellon
 University), and the Gaussian 82(TM) system (copyright 1983,
 Carnegie Mellon University). Gaussian is a federally registered
 trademark of Gaussian, Inc.
  
 This software contains proprietary and confidential information,
 including trade secrets, belonging to Gaussian, Inc.
  
 This software is provided under written license and may be
 used, copied, transmitted, or stored only in accord with that
 written license.
  
 The following legend is applicable only to US Government
 contracts under FAR:
  
                    RESTRICTED RIGHTS LEGEND
  
 Use, reproduction and disclosure by the US Government is
 subject to restrictions as set forth in subparagraphs (a)
 and (c) of the Commercial Computer Software - Restricted
 Rights clause in FAR 52.227-19.
  
 Gaussian, Inc.
 340 Quinnipiac St., Bldg. 40, Wallingford CT 06492
  
  
 ---------------------------------------------------------------
 Warning -- This program may not be used in any manner that
 competes with the business of Gaussian, Inc. or will provide
 assistance to any competitor of Gaussian, Inc.  The licensee
 of this program is prohibited from giving any competitor of
 Gaussian, Inc. access to this program.  By using this program,
 the user acknowledges that Gaussian, Inc. is engaged in the
 business of creating and licensing software in the field of
 computational chemistry and represents and warrants to the
 licensee that it is not a competitor of Gaussian, Inc. and that
 it will not use this program in any manner prohibited above.
 ---------------------------------------------------------------
  

 Cite this work as:
 Gaussian Development Version, Revision J.14,
 M. J. Frisch, G. W. Trucks, H. B. Schlegel, G. E. Scuseria, 
 M. A. Robb, J. R. Cheeseman, G. Scalmani, V. Barone, 
 G. A. Petersson, H. Nakatsuji, X. Li, A. V. Marenich, M. Caricato, 
 J. Bloino, B. G. Janesko, J. Zheng, R. Gomperts, B. Mennucci, 
 H. P. Hratchian, J. V. Ortiz, A. F. Izmaylov, J. L. Sonnenberg, 
 D. Williams-Young, F. Ding, F. Lipparini, F. Egidi, J. Goings, 
 B. Peng, A. Petrone, T. Henderson, D. Ranasinghe, V. G. Zakrzewski, 
 J. Gao, N. Rega, G. Zheng, W. Liang, M. Hada, M. Ehara, K. Toyota, 
 R. Fukuda, J. Hasegawa, M. Ishida, T. Nakajima, Y. Honda, O. Kitao, 
 H. Nakai, T. Vreven, K. Throssell, J. A. Montgomery, Jr., 
 J. E. Peralta, F. Ogliaro, M. J. Bearpark, J. J. Heyd, 
 E. N. Brothers, K. N. Kudin, V. N. Staroverov, T. A. Keith, 
 R. Kobayashi, J. Normand, K. Raghavachari, A. P. Rendell, 
 J. C. Burant, S. S. Iyengar, J. Tomasi, M. Cossi, J. M. Millam, 
 M. Klene, C. Adamo, R. Cammi, J. W. Ochterski, R. L. Martin, 
 K. Morokuma, O. Farkas, J. B. Foresman, and D. J. Fox, 
 Gaussian, Inc., Wallingford CT, 2020.
 
 ******************************************
 Gaussian DV:  ES64L-GDVRevJ.14 29-Dec-2020
                30-Nov-2023 
 ******************************************
 %mem=1GB
 %nprocshared=1
 Will use up to    1 processors via shared memory.
 %chk=3_mm_14.chk
 ----------------------------------------------
 #p Amber=(SoftFirst,Print) geom=nocrowd nosymm
 ----------------------------------------------
 1/37=210000000,38=1,56=2,64=203,172=1/1;
 2/12=1,15=1,40=1/2;
 3/5=30,11=9,25=1,30=1,41=10030000,43=2/1;
 4/20=11,24=3,119=11/2;
 99/5=1,9=1/99;
 Leave Link    1 at Thu Nov 30 10:57:02 2023, MaxMem=   134217728 cpu:               0.0 elap:               0.0
 (Enter /home/emanuele/chem_software/gaussian//gdv/l101.exe)
 -----
 Title
 -----
 Symbolic Z-matrix:
 Charge =  0 Multiplicity = 1
 C-CT--0.267532       -2.18359   0.56927  -0.00489 
 H-HC-+0.083821       -1.7913   -0.45035  -0.09346 
 H-HC-+0.077363       -1.44807   1.24499  -0.46405 
 H-HC-+0.077360       -3.10046   0.61919  -0.60729 
 C-CT--0.092257       -2.44808   0.93673   1.45897 
 H-HC-+0.060623       -1.38878   0.83073   1.76755 
 H-HC-+0.060622       -3.04143   0.32439   2.16409 
 C-CT--0.092258       -2.89028   2.40486   1.58361 
 H-HC-+0.060627       -2.83832   2.9033    0.59496 
 H-HC-+0.060618       -3.95259   2.43249   1.89173 
 C-CT--0.267532       -1.77997   3.25783   2.20611 
 H-HC-+0.077330       -0.84111   3.17343   1.64057 
 H-HC-+0.083821       -2.05699   4.31816   2.22413 
 H-HC-+0.077394       -1.57089   2.95795   3.24166 
 
 ITRead=  0  0  0  0  0  0  0  0  0  0  0  0  0  0
 MicOpt= -1 -1 -1 -1 -1 -1 -1 -1 -1 -1 -1 -1 -1 -1
 NAtoms=     14 NQM=       14 NQMF=       0 NMMI=      0 NMMIF=      0
                NMic=       0 NMicF=      0.
                    Isotopes and Nuclear Properties:
 (Nuclear quadrupole moments (NQMom) in fm**2, nuclear magnetic moments (NMagM)
  in nuclear magnetons)

  Atom         1           2           3           4           5           6           7           8           9          10
 IAtWgt=          12           1           1           1          12           1           1          12           1           1
 AtmWgt=  12.0000000   1.0078250   1.0078250   1.0078250  12.0000000   1.0078250   1.0078250  12.0000000   1.0078250   1.0078250
 NucSpn=           0           1           1           1           0           1           1           0           1           1
 AtZEff=  -0.0000000  -0.0000000  -0.0000000  -0.0000000  -0.0000000  -0.0000000  -0.0000000  -0.0000000  -0.0000000  -0.0000000
 NQMom=    0.0000000   0.0000000   0.0000000   0.0000000   0.0000000   0.0000000   0.0000000   0.0000000   0.0000000   0.0000000
 NMagM=    0.0000000   2.7928460   2.7928460   2.7928460   0.0000000   2.7928460   2.7928460   0.0000000   2.7928460   2.7928460
 AtZNuc=   6.0000000   1.0000000   1.0000000   1.0000000   6.0000000   1.0000000   1.0000000   6.0000000   1.0000000   1.0000000

  Atom        11          12          13          14
 IAtWgt=          12           1           1           1
 AtmWgt=  12.0000000   1.0078250   1.0078250   1.0078250
 NucSpn=           0           1           1           1
 AtZEff=  -0.0000000  -0.0000000  -0.0000000  -0.0000000
 NQMom=    0.0000000   0.0000000   0.0000000   0.0000000
 NMagM=    0.0000000   2.7928460   2.7928460   2.7928460
 AtZNuc=   6.0000000   1.0000000   1.0000000   1.0000000
 Generating MM parameters.
 Read MM parameter file:
 Include all MM classes

 MM sanity checks:
 All charges sum to:                0.00000000
 Charges of atoms sum to:           0.00000000
 MMInit generated parameter data with length LenPar=        2717.
 MM Charge=              0.0000 electrons
 MM Dipole moment (Debye):
    X=              0.0556    Y=              0.0196    Z=             -0.0338  Tot=              0.0680
 MM Quadrupole moment (Debye-Ang):
   XX=              2.1207   YY=              2.7029   ZZ=              2.2281
   XY=             -0.0305   XZ=              0.1123   YZ=             -0.0229
 MM Traceless Quadrupole moment (Debye-Ang):
   XX=             -0.2299   YY=              0.3524   ZZ=             -0.1225
   XY=             -0.0305   XZ=              0.1123   YZ=             -0.0229
 MM Octapole moment (Debye-Ang**2):
  XXX=            -15.4671  YYY=             14.9751  ZZZ=              8.2707  XYY=             -5.7243
  XXY=              4.5782  XXZ=              2.6761  XZZ=             -4.7900  YZZ=              3.6116
  YYZ=              3.4454  XYZ=              0.3864
 MM Hexadecapole moment (Debye-Ang**3):
 XXXX=             76.7840 YYYY=             78.0530 ZZZZ=             31.4218 XXXY=            -30.6424
 XXXZ=            -20.0929 YYYX=            -31.7698 YYYZ=             26.5525 ZZZX=            -16.2313
 ZZZY=             18.4880 XXYY=             23.7022 XXZZ=             16.9973 YYZZ=             15.7342
 XXYZ=              5.5147 YYXZ=             -6.4533 ZZXY=             -6.0237
 Leave Link  101 at Thu Nov 30 10:57:02 2023, MaxMem=   134217728 cpu:               0.2 elap:               0.2
 (Enter /home/emanuele/chem_software/gaussian//gdv/l202.exe)
                          Input orientation:                          
 ---------------------------------------------------------------------
 Center     Atomic      Atomic             Coordinates (Angstroms)
 Number     Number       Type             X           Y           Z
 ---------------------------------------------------------------------
      1          6    20001001       -2.183588    0.569268   -0.004892
      2          1    20001034       -1.791300   -0.450354   -0.093461
      3          1    20001034       -1.448069    1.244990   -0.464051
      4          1    20001034       -3.100455    0.619192   -0.607294
      5          6    20001001       -2.448077    0.936729    1.458967
      6          1    20001034       -1.388777    0.830734    1.767545
      7          1    20001034       -3.041426    0.324390    2.164090
      8          6    20001001       -2.890276    2.404856    1.583608
      9          1    20001034       -2.838323    2.903296    0.594956
     10          1    20001034       -3.952592    2.432488    1.891732
     11          6    20001001       -1.779965    3.257834    2.206106
     12          1    20001034       -0.841107    3.173428    1.640566
     13          1    20001034       -2.056988    4.318163    2.224134
     14          1    20001034       -1.570885    2.957952    3.241664
 ---------------------------------------------------------------------
                    Distance matrix (angstroms):
                    1          2          3          4          5
     1  C    0.000000
     2  H    1.096067   0.000000
     3  H    1.099279   1.768993   0.000000
     4  H    1.098192   1.766873   1.772716   0.000000
     5  C    1.532275   2.182977   2.189301   2.189946   0.000000
     6  H    1.960006   2.294898   2.270494   2.935039   1.108410
     7  H    2.345279   2.694361   3.208335   2.787645   1.106445
     8  C    2.528265   3.488916   2.760101   2.834223   1.538334
     9  H    2.497235   3.580104   2.409208   2.594465   2.183161
    10  H    3.193454   4.113752   3.637650   3.203016   2.165213
    11  C    3.504256   4.363347   3.360273   4.076928   2.528264
    12  H    3.360273   4.128137   2.918337   4.084318   2.760100
    13  H    4.363347   5.308539   4.128137   4.773698   3.488915
    14  H    4.076928   4.773698   4.084317   4.756455   2.834222
                    6          7          8          9         10
     6  H    0.000000
     7  H    1.773381   0.000000
     8  C    2.183161   2.165212   0.000000
     9  H    2.787770   3.025589   1.108411   0.000000
    10  H    3.025588   2.312678   1.106444   1.773382   0.000000
    11  C    2.497234   3.193453   1.532275   1.960006   2.345279
    12  H    2.409208   3.637650   2.189301   2.270494   3.208335
    13  H    3.580103   4.113751   2.182976   2.294897   2.694360
    14  H    2.594465   3.203015   2.189945   2.935038   2.787644
                   11         12         13         14
    11  C    0.000000
    12  H    1.099279   0.000000
    13  H    1.096068   1.768993   0.000000
    14  H    1.098191   1.772716   1.766872   0.000000
 Symmetry turned off by external request.
 Stoichiometry    C4H10
 Framework group  C1[X(C4H10)]
 Deg. of freedom    36
 Full point group                 C1      NOp   1
 Rotational constants (GHZ):          16.1452956           4.0631278           3.9491282
 Leave Link  202 at Thu Nov 30 10:57:03 2023, MaxMem=   134217728 cpu:               0.0 elap:               0.0
 (Enter /home/emanuele/chem_software/gaussian//gdv/l301.exe)
 Standard basis: Dummy (5D, 7F)
    14 basis functions,    14 primitive gaussians,    14 cartesian basis functions
     9 alpha electrons        9 beta electrons
       nuclear repulsion energy        36.8227557615 Hartrees.
 IExCor=       0 DFT=F Ex=HF Corr=None N6=None ScaHFX=  1.000000
 ScaDFX=  1.000000  1.000000  1.000000  1.000000  1.000000  0.000000
 ScaDFX=  0.000000  0.000000  0.000000  0.000000  0.000000  0.000000
 IRadAn=      5 IRanWt=     -1 IRanGd=            0 ICorTp=0 IEmpDi=  4
 NAtoms=   14 NActive=   14 NUniq=   14 SFac= 1.00D+00 NAtFMM=   60 NAOKFM=F Big=F
 Integral buffers will be    131072 words long.
 Raffenetti 1 integral format.
 Two-electron integral symmetry is turned off.
 Leave Link  301 at Thu Nov 30 10:57:03 2023, MaxMem=   134217728 cpu:               0.0 elap:               0.0
 (Enter /home/emanuele/chem_software/gaussian//gdv/l402.exe)
 AMBER calculation of energy.
 ****************************
 MOLECULAR MECHANICS FUNCTION
 ****************************
 Atomic parameters:
 Center  VDW
      1 1.9080 0.1094000
      2 1.4870 0.0157000
      3 1.4870 0.0157000
      4 1.4870 0.0157000
      5 1.9080 0.1094000
      6 1.4870 0.0157000
      7 1.4870 0.0157000
      8 1.9080 0.1094000
      9 1.4870 0.0157000
     10 1.4870 0.0157000
     11 1.9080 0.1094000
     12 1.4870 0.0157000
     13 1.4870 0.0157000
     14 1.4870 0.0157000
 Molecular mechanics terms:
 NBDir 3 1      0      0
 HrmStr1  1- 2  368.27 1.0930
 HrmStr1  1- 3  368.27 1.0930
 HrmStr1  1- 4  368.27 1.0930
 HrmStr1  1- 5  302.21 1.5280
 HrmStr1  5- 6  368.27 1.0930
 HrmStr1  5- 7  368.27 1.0930
 HrmStr1  5- 8  302.21 1.5280
 HrmStr1  8- 9  368.27 1.0930
 HrmStr1  8-10  368.27 1.0930
 HrmStr1  8-11  302.21 1.5280
 HrmStr1 11-12  368.27 1.0930
 HrmStr1 11-13  368.27 1.0930
 HrmStr1 11-14  368.27 1.0930
 HrmBnd1  1- 5- 6  40.03 110.16
 HrmBnd1  1- 5- 7  40.03 110.16
 HrmBnd1  1- 5- 8  52.04 113.37
 HrmBnd1  2- 1- 3  33.87 110.16
 HrmBnd1  2- 1- 4  33.87 110.16
 HrmBnd1  5- 1- 2  40.03 110.16
 HrmBnd1  3- 1- 4  33.87 110.16
 HrmBnd1  5- 1- 3  40.03 110.16
 HrmBnd1  5- 1- 4  40.03 110.16
 HrmBnd1  5- 8- 9  40.03 110.16
 HrmBnd1  5- 8-10  40.03 110.16
 HrmBnd1  5- 8-11  52.04 113.37
 HrmBnd1  6- 5- 7  33.87 110.16
 HrmBnd1  8- 5- 6  40.03 110.16
 HrmBnd1  8- 5- 7  40.03 110.16
 HrmBnd1  8-11-12  40.03 110.16
 HrmBnd1  8-11-13  40.03 110.16
 HrmBnd1  8-11-14  40.03 110.16
 HrmBnd1  9- 8-10  33.87 110.16
 HrmBnd1 11- 8- 9  40.03 110.16
 HrmBnd1 11- 8-10  40.03 110.16
 HrmBnd1 12-11-13  33.87 110.16
 HrmBnd1 12-11-14  33.87 110.16
 HrmBnd1 13-11-14  33.87 110.16
 AmbTrs  2- 1- 5- 6   0   0   0   0  0.0000  0.0000  2.1600  0.0000  9.0
 AmbTrs  2- 1- 5- 7   0   0   0   0  0.0000  0.0000  2.1600  0.0000  9.0
 AmbTrs  8- 5- 1- 2   0   0   0   0  0.0000  0.0000  2.1600  0.0000  9.0
 AmbTrs  3- 1- 5- 6   0   0   0   0  0.0000  0.0000  2.1600  0.0000  9.0
 AmbTrs  3- 1- 5- 7   0   0   0   0  0.0000  0.0000  2.1600  0.0000  9.0
 AmbTrs  8- 5- 1- 3   0   0   0   0  0.0000  0.0000  2.1600  0.0000  9.0
 AmbTrs  4- 1- 5- 6   0   0   0   0  0.0000  0.0000  2.1600  0.0000  9.0
 AmbTrs  4- 1- 5- 7   0   0   0   0  0.0000  0.0000  2.1600  0.0000  9.0
 AmbTrs  8- 5- 1- 4   0   0   0   0  0.0000  0.0000  2.1600  0.0000  9.0
 AmbTrs  1- 5- 8- 9   0   0   0   0  0.0000  0.0000  2.1600  0.0000  9.0
 AmbTrs  1- 5- 8-10   0   0   0   0  0.0000  0.0000  2.1600  0.0000  9.0
 AmbTrs  1- 5- 8-11   0   0   0   0  0.0000  0.0000  0.0000  0.0000  9.0
 AmbTrs  6- 5- 8- 9   0   0   0   0  0.0000  0.0000  2.1600  0.0000  9.0
 AmbTrs  6- 5- 8-10   0   0   0   0  0.0000  0.0000  2.1600  0.0000  9.0
 AmbTrs 11- 8- 5- 6   0   0   0   0  0.0000  0.0000  2.1600  0.0000  9.0
 AmbTrs  7- 5- 8- 9   0   0   0   0  0.0000  0.0000  2.1600  0.0000  9.0
 AmbTrs  7- 5- 8-10   0   0   0   0  0.0000  0.0000  2.1600  0.0000  9.0
 AmbTrs 11- 8- 5- 7   0   0   0   0  0.0000  0.0000  2.1600  0.0000  9.0
 AmbTrs  5- 8-11-12   0   0   0   0  0.0000  0.0000  2.1600  0.0000  9.0
 AmbTrs  5- 8-11-13   0   0   0   0  0.0000  0.0000  2.1600  0.0000  9.0
 AmbTrs  5- 8-11-14   0   0   0   0  0.0000  0.0000  2.1600  0.0000  9.0
 AmbTrs  9- 8-11-12   0   0   0   0  0.0000  0.0000  2.1600  0.0000  9.0
 AmbTrs  9- 8-11-13   0   0   0   0  0.0000  0.0000  2.1600  0.0000  9.0
 AmbTrs  9- 8-11-14   0   0   0   0  0.0000  0.0000  2.1600  0.0000  9.0
 AmbTrs 10- 8-11-12   0   0   0   0  0.0000  0.0000  2.1600  0.0000  9.0
 AmbTrs 10- 8-11-13   0   0   0   0  0.0000  0.0000  2.1600  0.0000  9.0
 AmbTrs 10- 8-11-14   0   0   0   0  0.0000  0.0000  2.1600  0.0000  9.0
 NBPair  2- 1 3 1      0      0 -1.000 -1.000
 NBPair  3- 2 3 1      0      0 -1.000 -1.000
 NBPair  4- 2 3 1      0      0 -1.000 -1.000
 NBPair  5- 2 3 1      0      0 -1.000 -1.000
 NBPair  3- 1 3 1      0      0 -1.000 -1.000
 NBPair  4- 3 3 1      0      0 -1.000 -1.000
 NBPair  5- 3 3 1      0      0 -1.000 -1.000
 NBPair  4- 1 3 1      0      0 -1.000 -1.000
 NBPair  5- 4 3 1      0      0 -1.000 -1.000
 NBPair  5- 1 3 1      0      0 -1.000 -1.000
 NBPair  6- 2 3 1      0      0 -0.500 -0.167
 NBPair  7- 2 3 1      0      0 -0.500 -0.167
 NBPair  8- 2 3 1      0      0 -0.500 -0.167
 NBPair  6- 3 3 1      0      0 -0.500 -0.167
 NBPair  7- 3 3 1      0      0 -0.500 -0.167
 NBPair  8- 3 3 1      0      0 -0.500 -0.167
 NBPair  6- 4 3 1      0      0 -0.500 -0.167
 NBPair  7- 4 3 1      0      0 -0.500 -0.167
 NBPair  8- 4 3 1      0      0 -0.500 -0.167
 NBPair  6- 1 3 1      0      0 -1.000 -1.000
 NBPair  7- 1 3 1      0      0 -1.000 -1.000
 NBPair  8- 1 3 1      0      0 -1.000 -1.000
 NBPair  6- 5 3 1      0      0 -1.000 -1.000
 NBPair  7- 6 3 1      0      0 -1.000 -1.000
 NBPair  8- 6 3 1      0      0 -1.000 -1.000
 NBPair  7- 5 3 1      0      0 -1.000 -1.000
 NBPair  8- 7 3 1      0      0 -1.000 -1.000
 NBPair  8- 5 3 1      0      0 -1.000 -1.000
 NBPair  9- 1 3 1      0      0 -0.500 -0.167
 NBPair 10- 1 3 1      0      0 -0.500 -0.167
 NBPair 11- 1 3 1      0      0 -0.500 -0.167
 NBPair  9- 6 3 1      0      0 -0.500 -0.167
 NBPair 10- 6 3 1      0      0 -0.500 -0.167
 NBPair 11- 6 3 1      0      0 -0.500 -0.167
 NBPair  9- 7 3 1      0      0 -0.500 -0.167
 NBPair 10- 7 3 1      0      0 -0.500 -0.167
 NBPair 11- 7 3 1      0      0 -0.500 -0.167
 NBPair  9- 5 3 1      0      0 -1.000 -1.000
 NBPair 10- 5 3 1      0      0 -1.000 -1.000
 NBPair 11- 5 3 1      0      0 -1.000 -1.000
 NBPair  9- 8 3 1      0      0 -1.000 -1.000
 NBPair 10- 9 3 1      0      0 -1.000 -1.000
 NBPair 11- 9 3 1      0      0 -1.000 -1.000
 NBPair 10- 8 3 1      0      0 -1.000 -1.000
 NBPair 11-10 3 1      0      0 -1.000 -1.000
 NBPair 11- 8 3 1      0      0 -1.000 -1.000
 NBPair 12- 5 3 1      0      0 -0.500 -0.167
 NBPair 13- 5 3 1      0      0 -0.500 -0.167
 NBPair 14- 5 3 1      0      0 -0.500 -0.167
 NBPair 12- 9 3 1      0      0 -0.500 -0.167
 NBPair 13- 9 3 1      0      0 -0.500 -0.167
 NBPair 14- 9 3 1      0      0 -0.500 -0.167
 NBPair 12-10 3 1      0      0 -0.500 -0.167
 NBPair 13-10 3 1      0      0 -0.500 -0.167
 NBPair 14-10 3 1      0      0 -0.500 -0.167
 NBPair 12- 8 3 1      0      0 -1.000 -1.000
 NBPair 13- 8 3 1      0      0 -1.000 -1.000
 NBPair 14- 8 3 1      0      0 -1.000 -1.000
 NBPair 12-11 3 1      0      0 -1.000 -1.000
 NBPair 13-12 3 1      0      0 -1.000 -1.000
 NBPair 14-12 3 1      0      0 -1.000 -1.000
 NBPair 13-11 3 1      0      0 -1.000 -1.000
 NBPair 14-13 3 1      0      0 -1.000 -1.000
 NBPair 14-11 3 1      0      0 -1.000 -1.000
 Energy per function type:
 Direct Coulomb + vdW (small)                           0.014422052
 Direct Coulomb (large)                                -0.055898775
 Direct vdW (large)                                   513.452804911
 Non-direct Coulomb + vdW (small)                       0.026380699
 Non-direct Coulomb (large)                             0.021653217
 Non-direct vdW (large)                              -513.452804911
 Harmonic stretch I                                     0.000648889
 Harmonic bend I                                        0.019545025
 Amber torsion                                          0.005151586
 Energy per function class:
        Coulomb               0.003785658
    Vanderwaals               0.002771535
     Stretching               0.000648889
        Bending               0.019545025
        Torsion               0.005151586
 Energy=    3.190269352E-02 NIter=   0.
 Dipole moment=       0.021862       0.007724      -0.013308
 Leave Link  402 at Thu Nov 30 10:57:03 2023, MaxMem=   134217728 cpu:               0.0 elap:               0.0
 (Enter /home/emanuele/chem_software/gaussian//gdv/l9999.exe)
 Unable to Open any file for archive entry.
 1\1\GINC-EMANUELE-XPS-13-9343\SP\AMBER\ZDO\C4H10\EMANUELE\30-Nov-2023\
 0\\#p Amber=(SoftFirst,Print) geom=nocrowd nosymm\\Title\\0,1\C,0,-2.1
 83588,0.569268,-0.004892\H,0,-1.7913,-0.450354,-0.093461\H,0,-1.448069
 ,1.24499,-0.464051\H,0,-3.100455,0.619192,-0.607294\C,0,-2.448077,0.93
 6729,1.458967\H,0,-1.388777,0.830734,1.767545\H,0,-3.041426,0.32439,2.
 16409\C,0,-2.890276,2.404856,1.583608\H,0,-2.838323,2.903296,0.594956\
 H,0,-3.952592,2.432488,1.891732\C,0,-1.779965,3.257834,2.206106\H,0,-0
 .841107,3.173428,1.640566\H,0,-2.056988,4.318163,2.224134\H,0,-1.57088
 5,2.957952,3.241664\\Version=ES64L-GDVRevJ.14\HF=0.0319027\RMSD=0.000e
 +00\Dipole=0.0218619,0.0077244,-0.0133075\PG=C01 [X(C4H10)]\\@
 The archive entry for this job was punched.


 A SCIENTIST IS SOMEONE WHOSE CURIOSITY SURVIVES
 EDUCATION'S ASSAULTS ON IT.
                          - SIR HERMANN BONDI
 Job cpu time:       0 days  0 hours  0 minutes  0.4 seconds.
 Elapsed time:       0 days  0 hours  0 minutes  0.4 seconds.
 File lengths (MBytes):  RWF=      6 Int=      0 D2E=      0 Chk=      1 Scr=      1
 Normal termination of Gaussian DV at Thu Nov 30 10:57:03 2023.
