 Entering Gaussian System, Link 0=/home/emanuele/chem_software/gaussian//g09/g09
 Input=3_mm_112.gjf
 Output=3_mm_112.log
 Initial command:
 /home/emanuele/chem_software/gaussian//gdv/l1.exe "/home/emanuele/chem_software/gaussian/scratch/Gau-17704.inp" -scrdir="/home/emanuele/chem_software/gaussian/scratch/"
 Entering Link 1 = /home/emanuele/chem_software/gaussian//gdv/l1.exe PID=     17706.
  
 Copyright (c) 1988-2020, Gaussian, Inc.  All Rights Reserved.
  
 This is the private, development version of
 the Gaussian(R) DV system of programs. It is based on
 the Gaussian(R) 16 system (copyright 2016, Gaussian, Inc.),
 the Gaussian(R) 09 system (copyright 2009, Gaussian, Inc.),
 the Gaussian(R) 03 system (copyright 2003, Gaussian, Inc.),
 the Gaussian(R) 98 system (copyright 1998, Gaussian, Inc.),
 the Gaussian(R) 94 system (copyright 1995, Gaussian, Inc.),
 the Gaussian 92(TM) system (copyright 1992, Gaussian, Inc.),
 the Gaussian 90(TM) system (copyright 1990, Gaussian, Inc.),
 the Gaussian 88(TM) system (copyright 1988, Gaussian, Inc.),
 the Gaussian 86(TM) system (copyright 1986, Carnegie Mellon
 University), and the Gaussian 82(TM) system (copyright 1983,
 Carnegie Mellon University). Gaussian is a federally registered
 trademark of Gaussian, Inc.
  
 This software contains proprietary and confidential information,
 including trade secrets, belonging to Gaussian, Inc.
  
 This software is provided under written license and may be
 used, copied, transmitted, or stored only in accord with that
 written license.
  
 The following legend is applicable only to US Government
 contracts under FAR:
  
                    RESTRICTED RIGHTS LEGEND
  
 Use, reproduction and disclosure by the US Government is
 subject to restrictions as set forth in subparagraphs (a)
 and (c) of the Commercial Computer Software - Restricted
 Rights clause in FAR 52.227-19.
  
 Gaussian, Inc.
 340 Quinnipiac St., Bldg. 40, Wallingford CT 06492
  
  
 ---------------------------------------------------------------
 Warning -- This program may not be used in any manner that
 competes with the business of Gaussian, Inc. or will provide
 assistance to any competitor of Gaussian, Inc.  The licensee
 of this program is prohibited from giving any competitor of
 Gaussian, Inc. access to this program.  By using this program,
 the user acknowledges that Gaussian, Inc. is engaged in the
 business of creating and licensing software in the field of
 computational chemistry and represents and warrants to the
 licensee that it is not a competitor of Gaussian, Inc. and that
 it will not use this program in any manner prohibited above.
 ---------------------------------------------------------------
  

 Cite this work as:
 Gaussian Development Version, Revision J.14,
 M. J. Frisch, G. W. Trucks, H. B. Schlegel, G. E. Scuseria, 
 M. A. Robb, J. R. Cheeseman, G. Scalmani, V. Barone, 
 G. A. Petersson, H. Nakatsuji, X. Li, A. V. Marenich, M. Caricato, 
 J. Bloino, B. G. Janesko, J. Zheng, R. Gomperts, B. Mennucci, 
 H. P. Hratchian, J. V. Ortiz, A. F. Izmaylov, J. L. Sonnenberg, 
 D. Williams-Young, F. Ding, F. Lipparini, F. Egidi, J. Goings, 
 B. Peng, A. Petrone, T. Henderson, D. Ranasinghe, V. G. Zakrzewski, 
 J. Gao, N. Rega, G. Zheng, W. Liang, M. Hada, M. Ehara, K. Toyota, 
 R. Fukuda, J. Hasegawa, M. Ishida, T. Nakajima, Y. Honda, O. Kitao, 
 H. Nakai, T. Vreven, K. Throssell, J. A. Montgomery, Jr., 
 J. E. Peralta, F. Ogliaro, M. J. Bearpark, J. J. Heyd, 
 E. N. Brothers, K. N. Kudin, V. N. Staroverov, T. A. Keith, 
 R. Kobayashi, J. Normand, K. Raghavachari, A. P. Rendell, 
 J. C. Burant, S. S. Iyengar, J. Tomasi, M. Cossi, J. M. Millam, 
 M. Klene, C. Adamo, R. Cammi, J. W. Ochterski, R. L. Martin, 
 K. Morokuma, O. Farkas, J. B. Foresman, and D. J. Fox, 
 Gaussian, Inc., Wallingford CT, 2020.
 
 ******************************************
 Gaussian DV:  ES64L-GDVRevJ.14 29-Dec-2020
                29-Nov-2023 
 ******************************************
 %mem=1GB
 %nprocshared=1
 Will use up to    1 processors via shared memory.
 %chk=3_mm_112.chk
 ----------------------------------------------
 #p Amber=(SoftFirst,Print) geom=nocrowd nosymm
 ----------------------------------------------
 1/37=210000000,38=1,56=2,64=203,172=1/1;
 2/12=1,15=1,40=1/2;
 3/5=30,11=9,25=1,30=1,41=10030000,43=2/1;
 4/20=11,24=3,119=11/2;
 99/5=1,9=1/99;
 Leave Link    1 at Wed Nov 29 16:44:53 2023, MaxMem=   134217728 cpu:               0.0 elap:               0.0
 (Enter /home/emanuele/chem_software/gaussian//gdv/l101.exe)
 -----
 Title
 -----
 Symbolic Z-matrix:
 Charge =  0 Multiplicity = 1
 C-CT--0.267532       -1.54816   0.07305   0.90774 
 H-HC-+0.083821       -1.80294  -0.72479   0.20112 
 H-HC-+0.077363       -1.52709  -0.3729    1.9108 
 H-HC-+0.077360       -0.52761   0.40775   0.67299 
 C-CT--0.092257       -2.5481    1.23067   0.82353 
 H-HC-+0.060623       -3.41992   0.62058   1.13077 
 H-HC-+0.060622       -2.83784   1.73048  -0.1215 
 C-CT--0.092258       -2.26643   2.29592   1.89846 
 H-HC-+0.060627       -3.09591   2.30527   2.63234 
 H-HC-+0.060618       -1.35628   2.01519   2.46382 
 C-CT--0.267532       -2.54645   3.70775   1.37369 
 H-HC-+0.077330       -3.5685    3.80039   0.98346 
 H-HC-+0.083821       -2.43015   4.4566    2.16519 
 H-HC-+0.077394       -1.85644   3.977     0.56125 
 
 ITRead=  0  0  0  0  0  0  0  0  0  0  0  0  0  0
 MicOpt= -1 -1 -1 -1 -1 -1 -1 -1 -1 -1 -1 -1 -1 -1
 NAtoms=     14 NQM=       14 NQMF=       0 NMMI=      0 NMMIF=      0
                NMic=       0 NMicF=      0.
                    Isotopes and Nuclear Properties:
 (Nuclear quadrupole moments (NQMom) in fm**2, nuclear magnetic moments (NMagM)
  in nuclear magnetons)

  Atom         1           2           3           4           5           6           7           8           9          10
 IAtWgt=          12           1           1           1          12           1           1          12           1           1
 AtmWgt=  12.0000000   1.0078250   1.0078250   1.0078250  12.0000000   1.0078250   1.0078250  12.0000000   1.0078250   1.0078250
 NucSpn=           0           1           1           1           0           1           1           0           1           1
 AtZEff=  -0.0000000  -0.0000000  -0.0000000  -0.0000000  -0.0000000  -0.0000000  -0.0000000  -0.0000000  -0.0000000  -0.0000000
 NQMom=    0.0000000   0.0000000   0.0000000   0.0000000   0.0000000   0.0000000   0.0000000   0.0000000   0.0000000   0.0000000
 NMagM=    0.0000000   2.7928460   2.7928460   2.7928460   0.0000000   2.7928460   2.7928460   0.0000000   2.7928460   2.7928460
 AtZNuc=   6.0000000   1.0000000   1.0000000   1.0000000   6.0000000   1.0000000   1.0000000   6.0000000   1.0000000   1.0000000

  Atom        11          12          13          14
 IAtWgt=          12           1           1           1
 AtmWgt=  12.0000000   1.0078250   1.0078250   1.0078250
 NucSpn=           0           1           1           1
 AtZEff=  -0.0000000  -0.0000000  -0.0000000  -0.0000000
 NQMom=    0.0000000   0.0000000   0.0000000   0.0000000
 NMagM=    0.0000000   2.7928460   2.7928460   2.7928460
 AtZNuc=   6.0000000   1.0000000   1.0000000   1.0000000
 Generating MM parameters.
 Read MM parameter file:
 Include all MM classes

 MM sanity checks:
 All charges sum to:                0.00000000
 Charges of atoms sum to:           0.00000000
 MMInit generated parameter data with length LenPar=        2717.
 MM Charge=              0.0000 electrons
 MM Dipole moment (Debye):
    X=             -0.2068    Y=             -0.0731    Z=              0.1267  Tot=              0.2533
 MM Quadrupole moment (Debye-Ang):
   XX=              3.1789   YY=              2.6001   ZZ=              2.6857
   XY=             -0.4330   XZ=             -0.4058   YZ=              0.2265
 MM Traceless Quadrupole moment (Debye-Ang):
   XX=              0.3573   YY=             -0.2215   ZZ=             -0.1359
   XY=             -0.4330   XZ=             -0.4058   YZ=              0.2265
 MM Octapole moment (Debye-Ang**2):
  XXX=            -17.9648  YYY=             15.0997  ZZZ=              9.7298  XYY=             -7.2372
  XXY=              6.2354  XXZ=              3.8073  XZZ=             -6.0062  YZZ=              5.1406
  YYZ=              3.8194  XYZ=             -1.1152
 MM Hexadecapole moment (Debye-Ang**3):
 XXXX=             79.6592 YYYY=             88.9166 ZZZZ=             28.0423 XXXY=            -37.4129
 XXXZ=            -21.0747 YYYX=            -40.2169 YYYZ=             24.6020 ZZZX=            -21.6544
 ZZZY=             20.4878 XXYY=             31.0435 XXZZ=             17.9522 YYZZ=             20.5952
 XXYZ=              8.7121 YYXZ=            -10.7094 ZZXY=            -13.1960
 Leave Link  101 at Wed Nov 29 16:44:53 2023, MaxMem=   134217728 cpu:               0.2 elap:               0.2
 (Enter /home/emanuele/chem_software/gaussian//gdv/l202.exe)
                          Input orientation:                          
 ---------------------------------------------------------------------
 Center     Atomic      Atomic             Coordinates (Angstroms)
 Number     Number       Type             X           Y           Z
 ---------------------------------------------------------------------
      1          6    20001001       -1.548159    0.073051    0.907739
      2          1    20001034       -1.802944   -0.724789    0.201123
      3          1    20001034       -1.527090   -0.372901    1.910803
      4          1    20001034       -0.527608    0.407754    0.672986
      5          6    20001001       -2.548097    1.230669    0.823531
      6          1    20001034       -3.419924    0.620578    1.130770
      7          1    20001034       -2.837843    1.730478   -0.121495
      8          6    20001001       -2.266433    2.295922    1.898461
      9          1    20001034       -3.095909    2.305273    2.632336
     10          1    20001034       -1.356275    2.015187    2.463823
     11          6    20001001       -2.546450    3.707750    1.373690
     12          1    20001034       -3.568501    3.800392    0.983457
     13          1    20001034       -2.430150    4.456597    2.165191
     14          1    20001034       -1.856444    3.977004    0.561254
 ---------------------------------------------------------------------
                    Distance matrix (angstroms):
                    1          2          3          4          5
     1  C    0.000000
     2  H    1.095797   0.000000
     3  H    1.097932   1.767180   0.000000
     4  H    1.099390   1.769686   1.772167   0.000000
     5  C    1.532007   2.183223   2.189989   2.186831   0.000000
     6  H    1.962914   2.299757   2.275582   2.936044   1.107560
     7  H    2.338733   2.683921   3.205076   2.778126   1.107626
     8  C    2.537440   3.495779   2.769368   2.844377   1.539342
     9  H    3.217543   4.094366   3.186600   3.746438   2.174085
    10  H    2.496019   3.581451   2.457229   2.545118   2.174044
    11  C    3.797991   4.644902   4.240200   3.931499   2.537441
    12  H    4.240352   4.920010   4.737479   4.566554   2.769526
    13  H    4.644843   5.576532   4.919785   4.715874   3.495794
    14  H    3.931404   4.715868   4.566337   3.810228   2.844210
                    6          7          8          9         10
     6  H    0.000000
     7  H    1.771684   0.000000
     8  C    2.174090   2.174042   0.000000
     9  H    2.279887   2.824991   1.107561   0.000000
    10  H    2.824998   2.993321   1.107625   1.771686   0.000000
    11  C    3.217545   2.496015   1.532009   1.962915   2.338734
    12  H    3.186690   2.457504   2.189987   2.275418   3.205056
    13  H    4.094474   3.581462   2.183223   2.299925   2.683817
    14  H    3.746253   2.544832   2.186836   2.936041   2.778248
                   11         12         13         14
    11  C    0.000000
    12  H    1.097931   0.000000
    13  H    1.095797   1.767185   0.000000
    14  H    1.099390   1.772170   1.769678   0.000000
 Symmetry turned off by external request.
 Stoichiometry    C4H10
 Framework group  C1[X(C4H10)]
 Deg. of freedom    36
 Full point group                 C1      NOp   1
 Rotational constants (GHZ):          20.7090040           3.7119709           3.5541000
 Leave Link  202 at Wed Nov 29 16:44:53 2023, MaxMem=   134217728 cpu:               0.0 elap:               0.0
 (Enter /home/emanuele/chem_software/gaussian//gdv/l301.exe)
 Standard basis: Dummy (5D, 7F)
    14 basis functions,    14 primitive gaussians,    14 cartesian basis functions
     9 alpha electrons        9 beta electrons
       nuclear repulsion energy        36.5173271479 Hartrees.
 IExCor=       0 DFT=F Ex=HF Corr=None N6=None ScaHFX=  1.000000
 ScaDFX=  1.000000  1.000000  1.000000  1.000000  1.000000  0.000000
 ScaDFX=  0.000000  0.000000  0.000000  0.000000  0.000000  0.000000
 IRadAn=      5 IRanWt=     -1 IRanGd=            0 ICorTp=0 IEmpDi=  4
 NAtoms=   14 NActive=   14 NUniq=   14 SFac= 1.00D+00 NAtFMM=   60 NAOKFM=F Big=F
 Integral buffers will be    131072 words long.
 Raffenetti 1 integral format.
 Two-electron integral symmetry is turned off.
 Leave Link  301 at Wed Nov 29 16:44:53 2023, MaxMem=   134217728 cpu:               0.0 elap:               0.0
 (Enter /home/emanuele/chem_software/gaussian//gdv/l402.exe)
 AMBER calculation of energy.
 ****************************
 MOLECULAR MECHANICS FUNCTION
 ****************************
 Atomic parameters:
 Center  VDW
      1 1.9080 0.1094000
      2 1.4870 0.0157000
      3 1.4870 0.0157000
      4 1.4870 0.0157000
      5 1.9080 0.1094000
      6 1.4870 0.0157000
      7 1.4870 0.0157000
      8 1.9080 0.1094000
      9 1.4870 0.0157000
     10 1.4870 0.0157000
     11 1.9080 0.1094000
     12 1.4870 0.0157000
     13 1.4870 0.0157000
     14 1.4870 0.0157000
 Molecular mechanics terms:
 NBDir 3 1      0      0
 HrmStr1  1- 2  368.27 1.0930
 HrmStr1  1- 3  368.27 1.0930
 HrmStr1  1- 4  368.27 1.0930
 HrmStr1  1- 5  302.21 1.5280
 HrmStr1  5- 6  368.27 1.0930
 HrmStr1  5- 7  368.27 1.0930
 HrmStr1  5- 8  302.21 1.5280
 HrmStr1  8- 9  368.27 1.0930
 HrmStr1  8-10  368.27 1.0930
 HrmStr1  8-11  302.21 1.5280
 HrmStr1 11-12  368.27 1.0930
 HrmStr1 11-13  368.27 1.0930
 HrmStr1 11-14  368.27 1.0930
 HrmBnd1  1- 5- 6  40.03 110.16
 HrmBnd1  1- 5- 7  40.03 110.16
 HrmBnd1  1- 5- 8  52.04 113.37
 HrmBnd1  2- 1- 3  33.87 110.16
 HrmBnd1  2- 1- 4  33.87 110.16
 HrmBnd1  5- 1- 2  40.03 110.16
 HrmBnd1  3- 1- 4  33.87 110.16
 HrmBnd1  5- 1- 3  40.03 110.16
 HrmBnd1  5- 1- 4  40.03 110.16
 HrmBnd1  5- 8- 9  40.03 110.16
 HrmBnd1  5- 8-10  40.03 110.16
 HrmBnd1  5- 8-11  52.04 113.37
 HrmBnd1  6- 5- 7  33.87 110.16
 HrmBnd1  8- 5- 6  40.03 110.16
 HrmBnd1  8- 5- 7  40.03 110.16
 HrmBnd1  8-11-12  40.03 110.16
 HrmBnd1  8-11-13  40.03 110.16
 HrmBnd1  8-11-14  40.03 110.16
 HrmBnd1  9- 8-10  33.87 110.16
 HrmBnd1 11- 8- 9  40.03 110.16
 HrmBnd1 11- 8-10  40.03 110.16
 HrmBnd1 12-11-13  33.87 110.16
 HrmBnd1 12-11-14  33.87 110.16
 HrmBnd1 13-11-14  33.87 110.16
 AmbTrs  2- 1- 5- 6   0   0   0   0  0.0000  0.0000  2.1600  0.0000  9.0
 AmbTrs  2- 1- 5- 7   0   0   0   0  0.0000  0.0000  2.1600  0.0000  9.0
 AmbTrs  8- 5- 1- 2   0   0   0   0  0.0000  0.0000  2.1600  0.0000  9.0
 AmbTrs  3- 1- 5- 6   0   0   0   0  0.0000  0.0000  2.1600  0.0000  9.0
 AmbTrs  3- 1- 5- 7   0   0   0   0  0.0000  0.0000  2.1600  0.0000  9.0
 AmbTrs  8- 5- 1- 3   0   0   0   0  0.0000  0.0000  2.1600  0.0000  9.0
 AmbTrs  4- 1- 5- 6   0   0   0   0  0.0000  0.0000  2.1600  0.0000  9.0
 AmbTrs  4- 1- 5- 7   0   0   0   0  0.0000  0.0000  2.1600  0.0000  9.0
 AmbTrs  8- 5- 1- 4   0   0   0   0  0.0000  0.0000  2.1600  0.0000  9.0
 AmbTrs  1- 5- 8- 9   0   0   0   0  0.0000  0.0000  2.1600  0.0000  9.0
 AmbTrs  1- 5- 8-10   0   0   0   0  0.0000  0.0000  2.1600  0.0000  9.0
 AmbTrs  1- 5- 8-11   0   0   0   0  0.0000  0.0000  0.0000  0.0000  9.0
 AmbTrs  6- 5- 8- 9   0   0   0   0  0.0000  0.0000  2.1600  0.0000  9.0
 AmbTrs  6- 5- 8-10   0   0   0   0  0.0000  0.0000  2.1600  0.0000  9.0
 AmbTrs 11- 8- 5- 6   0   0   0   0  0.0000  0.0000  2.1600  0.0000  9.0
 AmbTrs  7- 5- 8- 9   0   0   0   0  0.0000  0.0000  2.1600  0.0000  9.0
 AmbTrs  7- 5- 8-10   0   0   0   0  0.0000  0.0000  2.1600  0.0000  9.0
 AmbTrs 11- 8- 5- 7   0   0   0   0  0.0000  0.0000  2.1600  0.0000  9.0
 AmbTrs  5- 8-11-12   0   0   0   0  0.0000  0.0000  2.1600  0.0000  9.0
 AmbTrs  5- 8-11-13   0   0   0   0  0.0000  0.0000  2.1600  0.0000  9.0
 AmbTrs  5- 8-11-14   0   0   0   0  0.0000  0.0000  2.1600  0.0000  9.0
 AmbTrs  9- 8-11-12   0   0   0   0  0.0000  0.0000  2.1600  0.0000  9.0
 AmbTrs  9- 8-11-13   0   0   0   0  0.0000  0.0000  2.1600  0.0000  9.0
 AmbTrs  9- 8-11-14   0   0   0   0  0.0000  0.0000  2.1600  0.0000  9.0
 AmbTrs 10- 8-11-12   0   0   0   0  0.0000  0.0000  2.1600  0.0000  9.0
 AmbTrs 10- 8-11-13   0   0   0   0  0.0000  0.0000  2.1600  0.0000  9.0
 AmbTrs 10- 8-11-14   0   0   0   0  0.0000  0.0000  2.1600  0.0000  9.0
 NBPair  2- 1 3 1      0      0 -1.000 -1.000
 NBPair  3- 2 3 1      0      0 -1.000 -1.000
 NBPair  4- 2 3 1      0      0 -1.000 -1.000
 NBPair  5- 2 3 1      0      0 -1.000 -1.000
 NBPair  3- 1 3 1      0      0 -1.000 -1.000
 NBPair  4- 3 3 1      0      0 -1.000 -1.000
 NBPair  5- 3 3 1      0      0 -1.000 -1.000
 NBPair  4- 1 3 1      0      0 -1.000 -1.000
 NBPair  5- 4 3 1      0      0 -1.000 -1.000
 NBPair  5- 1 3 1      0      0 -1.000 -1.000
 NBPair  6- 2 3 1      0      0 -0.500 -0.167
 NBPair  7- 2 3 1      0      0 -0.500 -0.167
 NBPair  8- 2 3 1      0      0 -0.500 -0.167
 NBPair  6- 3 3 1      0      0 -0.500 -0.167
 NBPair  7- 3 3 1      0      0 -0.500 -0.167
 NBPair  8- 3 3 1      0      0 -0.500 -0.167
 NBPair  6- 4 3 1      0      0 -0.500 -0.167
 NBPair  7- 4 3 1      0      0 -0.500 -0.167
 NBPair  8- 4 3 1      0      0 -0.500 -0.167
 NBPair  6- 1 3 1      0      0 -1.000 -1.000
 NBPair  7- 1 3 1      0      0 -1.000 -1.000
 NBPair  8- 1 3 1      0      0 -1.000 -1.000
 NBPair  6- 5 3 1      0      0 -1.000 -1.000
 NBPair  7- 6 3 1      0      0 -1.000 -1.000
 NBPair  8- 6 3 1      0      0 -1.000 -1.000
 NBPair  7- 5 3 1      0      0 -1.000 -1.000
 NBPair  8- 7 3 1      0      0 -1.000 -1.000
 NBPair  8- 5 3 1      0      0 -1.000 -1.000
 NBPair  9- 1 3 1      0      0 -0.500 -0.167
 NBPair 10- 1 3 1      0      0 -0.500 -0.167
 NBPair 11- 1 3 1      0      0 -0.500 -0.167
 NBPair  9- 6 3 1      0      0 -0.500 -0.167
 NBPair 10- 6 3 1      0      0 -0.500 -0.167
 NBPair 11- 6 3 1      0      0 -0.500 -0.167
 NBPair  9- 7 3 1      0      0 -0.500 -0.167
 NBPair 10- 7 3 1      0      0 -0.500 -0.167
 NBPair 11- 7 3 1      0      0 -0.500 -0.167
 NBPair  9- 5 3 1      0      0 -1.000 -1.000
 NBPair 10- 5 3 1      0      0 -1.000 -1.000
 NBPair 11- 5 3 1      0      0 -1.000 -1.000
 NBPair  9- 8 3 1      0      0 -1.000 -1.000
 NBPair 10- 9 3 1      0      0 -1.000 -1.000
 NBPair 11- 9 3 1      0      0 -1.000 -1.000
 NBPair 10- 8 3 1      0      0 -1.000 -1.000
 NBPair 11-10 3 1      0      0 -1.000 -1.000
 NBPair 11- 8 3 1      0      0 -1.000 -1.000
 NBPair 12- 5 3 1      0      0 -0.500 -0.167
 NBPair 13- 5 3 1      0      0 -0.500 -0.167
 NBPair 14- 5 3 1      0      0 -0.500 -0.167
 NBPair 12- 9 3 1      0      0 -0.500 -0.167
 NBPair 13- 9 3 1      0      0 -0.500 -0.167
 NBPair 14- 9 3 1      0      0 -0.500 -0.167
 NBPair 12-10 3 1      0      0 -0.500 -0.167
 NBPair 13-10 3 1      0      0 -0.500 -0.167
 NBPair 14-10 3 1      0      0 -0.500 -0.167
 NBPair 12- 8 3 1      0      0 -1.000 -1.000
 NBPair 13- 8 3 1      0      0 -1.000 -1.000
 NBPair 14- 8 3 1      0      0 -1.000 -1.000
 NBPair 12-11 3 1      0      0 -1.000 -1.000
 NBPair 13-12 3 1      0      0 -1.000 -1.000
 NBPair 14-12 3 1      0      0 -1.000 -1.000
 NBPair 13-11 3 1      0      0 -1.000 -1.000
 NBPair 14-13 3 1      0      0 -1.000 -1.000
 NBPair 14-11 3 1      0      0 -1.000 -1.000
 Energy per function type:
 Direct Coulomb + vdW (small)                           0.014710426
 Direct Coulomb (large)                                -0.055911087
 Direct vdW (large)                                   513.551318746
 Non-direct Coulomb + vdW (small)                       0.026258386
 Non-direct Coulomb (large)                             0.021658563
 Non-direct vdW (large)                              -513.551318746
 Harmonic stretch I                                     0.000662997
 Harmonic bend I                                        0.018347946
 Amber torsion                                          0.006017008
 Energy per function class:
        Coulomb               0.003945404
    Vanderwaals               0.002770884
     Stretching               0.000662997
        Bending               0.018347946
        Torsion               0.006017008
 Energy=    3.174423925E-02 NIter=   0.
 Dipole moment=      -0.081381      -0.028754       0.049834
 Leave Link  402 at Wed Nov 29 16:44:53 2023, MaxMem=   134217728 cpu:               0.0 elap:               0.0
 (Enter /home/emanuele/chem_software/gaussian//gdv/l9999.exe)
 Unable to Open any file for archive entry.
 1\1\GINC-EMANUELE-XPS-13-9343\SP\AMBER\ZDO\C4H10\EMANUELE\29-Nov-2023\
 0\\#p Amber=(SoftFirst,Print) geom=nocrowd nosymm\\Title\\0,1\C,0,-1.5
 48159,0.073051,0.907739\H,0,-1.802944,-0.724789,0.201123\H,0,-1.52709,
 -0.372901,1.910803\H,0,-0.527608,0.407754,0.672986\C,0,-2.548097,1.230
 669,0.823531\H,0,-3.419924,0.620578,1.13077\H,0,-2.837843,1.730478,-0.
 121495\C,0,-2.266433,2.295922,1.898461\H,0,-3.095909,2.305273,2.632336
 \H,0,-1.356275,2.015187,2.463823\C,0,-2.54645,3.70775,1.37369\H,0,-3.5
 68501,3.800392,0.983457\H,0,-2.43015,4.456597,2.165191\H,0,-1.856444,3
 .977004,0.561254\\Version=ES64L-GDVRevJ.14\HF=0.0317442\RMSD=0.000e+00
 \Dipole=-0.0813807,-0.028754,0.0498339\PG=C01 [X(C4H10)]\\@
 The archive entry for this job was punched.


 The impersonal hand of government can
 never replace the helping hand of a neighbor.
                        -- Hubert H. Humphrey
 Job cpu time:       0 days  0 hours  0 minutes  0.4 seconds.
 Elapsed time:       0 days  0 hours  0 minutes  0.4 seconds.
 File lengths (MBytes):  RWF=      6 Int=      0 D2E=      0 Chk=      1 Scr=      1
 Normal termination of Gaussian DV at Wed Nov 29 16:44:53 2023.
