 Entering Gaussian System, Link 0=/home/emanuele/chem_software/gaussian//g09/g09
 Input=3_mm_140.gjf
 Output=3_mm_140.log
 Initial command:
 /home/emanuele/chem_software/gaussian//gdv/l1.exe "/home/emanuele/chem_software/gaussian/scratch/Gau-17710.inp" -scrdir="/home/emanuele/chem_software/gaussian/scratch/"
 Entering Link 1 = /home/emanuele/chem_software/gaussian//gdv/l1.exe PID=     17712.
  
 Copyright (c) 1988-2020, Gaussian, Inc.  All Rights Reserved.
  
 This is the private, development version of
 the Gaussian(R) DV system of programs. It is based on
 the Gaussian(R) 16 system (copyright 2016, Gaussian, Inc.),
 the Gaussian(R) 09 system (copyright 2009, Gaussian, Inc.),
 the Gaussian(R) 03 system (copyright 2003, Gaussian, Inc.),
 the Gaussian(R) 98 system (copyright 1998, Gaussian, Inc.),
 the Gaussian(R) 94 system (copyright 1995, Gaussian, Inc.),
 the Gaussian 92(TM) system (copyright 1992, Gaussian, Inc.),
 the Gaussian 90(TM) system (copyright 1990, Gaussian, Inc.),
 the Gaussian 88(TM) system (copyright 1988, Gaussian, Inc.),
 the Gaussian 86(TM) system (copyright 1986, Carnegie Mellon
 University), and the Gaussian 82(TM) system (copyright 1983,
 Carnegie Mellon University). Gaussian is a federally registered
 trademark of Gaussian, Inc.
  
 This software contains proprietary and confidential information,
 including trade secrets, belonging to Gaussian, Inc.
  
 This software is provided under written license and may be
 used, copied, transmitted, or stored only in accord with that
 written license.
  
 The following legend is applicable only to US Government
 contracts under FAR:
  
                    RESTRICTED RIGHTS LEGEND
  
 Use, reproduction and disclosure by the US Government is
 subject to restrictions as set forth in subparagraphs (a)
 and (c) of the Commercial Computer Software - Restricted
 Rights clause in FAR 52.227-19.
  
 Gaussian, Inc.
 340 Quinnipiac St., Bldg. 40, Wallingford CT 06492
  
  
 ---------------------------------------------------------------
 Warning -- This program may not be used in any manner that
 competes with the business of Gaussian, Inc. or will provide
 assistance to any competitor of Gaussian, Inc.  The licensee
 of this program is prohibited from giving any competitor of
 Gaussian, Inc. access to this program.  By using this program,
 the user acknowledges that Gaussian, Inc. is engaged in the
 business of creating and licensing software in the field of
 computational chemistry and represents and warrants to the
 licensee that it is not a competitor of Gaussian, Inc. and that
 it will not use this program in any manner prohibited above.
 ---------------------------------------------------------------
  

 Cite this work as:
 Gaussian Development Version, Revision J.14,
 M. J. Frisch, G. W. Trucks, H. B. Schlegel, G. E. Scuseria, 
 M. A. Robb, J. R. Cheeseman, G. Scalmani, V. Barone, 
 G. A. Petersson, H. Nakatsuji, X. Li, A. V. Marenich, M. Caricato, 
 J. Bloino, B. G. Janesko, J. Zheng, R. Gomperts, B. Mennucci, 
 H. P. Hratchian, J. V. Ortiz, A. F. Izmaylov, J. L. Sonnenberg, 
 D. Williams-Young, F. Ding, F. Lipparini, F. Egidi, J. Goings, 
 B. Peng, A. Petrone, T. Henderson, D. Ranasinghe, V. G. Zakrzewski, 
 J. Gao, N. Rega, G. Zheng, W. Liang, M. Hada, M. Ehara, K. Toyota, 
 R. Fukuda, J. Hasegawa, M. Ishida, T. Nakajima, Y. Honda, O. Kitao, 
 H. Nakai, T. Vreven, K. Throssell, J. A. Montgomery, Jr., 
 J. E. Peralta, F. Ogliaro, M. J. Bearpark, J. J. Heyd, 
 E. N. Brothers, K. N. Kudin, V. N. Staroverov, T. A. Keith, 
 R. Kobayashi, J. Normand, K. Raghavachari, A. P. Rendell, 
 J. C. Burant, S. S. Iyengar, J. Tomasi, M. Cossi, J. M. Millam, 
 M. Klene, C. Adamo, R. Cammi, J. W. Ochterski, R. L. Martin, 
 K. Morokuma, O. Farkas, J. B. Foresman, and D. J. Fox, 
 Gaussian, Inc., Wallingford CT, 2020.
 
 ******************************************
 Gaussian DV:  ES64L-GDVRevJ.14 29-Dec-2020
                29-Nov-2023 
 ******************************************
 %mem=1GB
 %nprocshared=1
 Will use up to    1 processors via shared memory.
 %chk=3_mm_140.chk
 ----------------------------------------------
 #p Amber=(SoftFirst,Print) geom=nocrowd nosymm
 ----------------------------------------------
 1/37=210000000,38=1,56=2,64=203,172=1/1;
 2/12=1,15=1,40=1/2;
 3/5=30,11=9,25=1,30=1,41=10030000,43=2/1;
 4/20=11,24=3,119=11/2;
 99/5=1,9=1/99;
 Leave Link    1 at Wed Nov 29 16:44:54 2023, MaxMem=   134217728 cpu:               0.0 elap:               0.0
 (Enter /home/emanuele/chem_software/gaussian//gdv/l101.exe)
 -----
 Title
 -----
 Symbolic Z-matrix:
 Charge =  0 Multiplicity = 1
 C-CT--0.267532       -1.71213  -0.03925   1.04213 
 H-HC-+0.083821       -1.92278  -0.78561   0.2682 
 H-HC-+0.077363       -2.06542  -0.44711   1.99594 
 H-HC-+0.077360       -0.62324   0.06189   1.11264 
 C-CT--0.092257       -2.38103   1.29484   0.71875 
 H-HC-+0.060623       -3.47425   1.15109   0.61596 
 H-HC-+0.060622       -2.03177   1.66036  -0.26651 
 C-CT--0.092258       -2.09494   2.3513    1.79606 
 H-HC-+0.060627       -2.44417   1.98575   2.78134 
 H-HC-+0.060618       -1.00174   2.49507   1.89883 
 C-CT--0.267532       -2.76384   3.68539   1.47268 
 H-HC-+0.077330       -3.85275   3.58428   1.4023 
 H-HC-+0.083821       -2.55312   4.43178   2.24656 
 H-HC-+0.077394       -2.41065   4.09319   0.5188 
 
 ITRead=  0  0  0  0  0  0  0  0  0  0  0  0  0  0
 MicOpt= -1 -1 -1 -1 -1 -1 -1 -1 -1 -1 -1 -1 -1 -1
 NAtoms=     14 NQM=       14 NQMF=       0 NMMI=      0 NMMIF=      0
                NMic=       0 NMicF=      0.
                    Isotopes and Nuclear Properties:
 (Nuclear quadrupole moments (NQMom) in fm**2, nuclear magnetic moments (NMagM)
  in nuclear magnetons)

  Atom         1           2           3           4           5           6           7           8           9          10
 IAtWgt=          12           1           1           1          12           1           1          12           1           1
 AtmWgt=  12.0000000   1.0078250   1.0078250   1.0078250  12.0000000   1.0078250   1.0078250  12.0000000   1.0078250   1.0078250
 NucSpn=           0           1           1           1           0           1           1           0           1           1
 AtZEff=  -0.0000000  -0.0000000  -0.0000000  -0.0000000  -0.0000000  -0.0000000  -0.0000000  -0.0000000  -0.0000000  -0.0000000
 NQMom=    0.0000000   0.0000000   0.0000000   0.0000000   0.0000000   0.0000000   0.0000000   0.0000000   0.0000000   0.0000000
 NMagM=    0.0000000   2.7928460   2.7928460   2.7928460   0.0000000   2.7928460   2.7928460   0.0000000   2.7928460   2.7928460
 AtZNuc=   6.0000000   1.0000000   1.0000000   1.0000000   6.0000000   1.0000000   1.0000000   6.0000000   1.0000000   1.0000000

  Atom        11          12          13          14
 IAtWgt=          12           1           1           1
 AtmWgt=  12.0000000   1.0078250   1.0078250   1.0078250
 NucSpn=           0           1           1           1
 AtZEff=  -0.0000000  -0.0000000  -0.0000000  -0.0000000
 NQMom=    0.0000000   0.0000000   0.0000000   0.0000000
 NMagM=    0.0000000   2.7928460   2.7928460   2.7928460
 AtZNuc=   6.0000000   1.0000000   1.0000000   1.0000000
 Generating MM parameters.
 Read MM parameter file:
 Include all MM classes

 MM sanity checks:
 All charges sum to:                0.00000000
 Charges of atoms sum to:           0.00000000
 MMInit generated parameter data with length LenPar=        2717.
 MM Charge=              0.0000 electrons
 MM Dipole moment (Debye):
    X=              0.0002    Y=              0.0001    Z=             -0.0001  Tot=              0.0002
 MM Quadrupole moment (Debye-Ang):
   XX=              2.2248   YY=              2.7331   ZZ=              2.4245
   XY=             -0.1521   XZ=              0.1718   YZ=              0.1338
 MM Traceless Quadrupole moment (Debye-Ang):
   XX=             -0.2360   YY=              0.2723   ZZ=             -0.0363
   XY=             -0.1521   XZ=              0.1718   YZ=              0.1338
 MM Octapole moment (Debye-Ang**2):
  XXX=            -14.9388  YYY=             14.9483  ZZZ=              9.1463  XYY=             -6.6708
  XXY=              4.7371  XXZ=              2.0297  XZZ=             -4.9948  YZZ=              4.7572
  YYZ=              3.9241  XYZ=             -0.1781
 MM Hexadecapole moment (Debye-Ang**3):
 XXXX=             73.0914 YYYY=             87.8247 ZZZZ=             27.1534 XXXY=            -33.6696
 XXXZ=            -15.9058 YYYX=            -38.6010 YYYZ=             24.9063 ZZZX=            -20.0951
 ZZZY=             18.9854 XXYY=             28.1640 XXZZ=             14.2484 YYZZ=             20.7657
 XXYZ=              5.9905 YYXZ=             -9.4741 ZZXY=            -10.7010
 Leave Link  101 at Wed Nov 29 16:44:54 2023, MaxMem=   134217728 cpu:               0.2 elap:               0.2
 (Enter /home/emanuele/chem_software/gaussian//gdv/l202.exe)
                          Input orientation:                          
 ---------------------------------------------------------------------
 Center     Atomic      Atomic             Coordinates (Angstroms)
 Number     Number       Type             X           Y           Z
 ---------------------------------------------------------------------
      1          6    20001001       -1.712134   -0.039249    1.042134
      2          1    20001034       -1.922778   -0.785610    0.268204
      3          1    20001034       -2.065421   -0.447105    1.995944
      4          1    20001034       -0.623235    0.061889    1.112635
      5          6    20001001       -2.381028    1.294844    0.718748
      6          1    20001034       -3.474249    1.151091    0.615958
      7          1    20001034       -2.031772    1.660358   -0.266514
      8          6    20001001       -2.094942    2.351297    1.796055
      9          1    20001034       -2.444169    1.985750    2.781339
     10          1    20001034       -1.001740    2.495071    1.898832
     11          6    20001001       -2.763836    3.685388    1.472675
     12          1    20001034       -3.852750    3.584277    1.402299
     13          1    20001034       -2.553121    4.431778    2.246558
     14          1    20001034       -2.410654    4.093188    0.518803
 ---------------------------------------------------------------------
                    Distance matrix (angstroms):
                    1          2          3          4          5
     1  C    0.000000
     2  H    1.095625   0.000000
     3  H    1.095861   1.766357   0.000000
     4  H    1.095856   1.766389   1.766129   0.000000
     5  C    1.527024   2.177446   2.182939   2.182925   0.000000
     6  H    2.168775   2.505755   2.538383   3.092140   1.107413
     7  H    2.168731   2.506105   3.092127   2.537938   1.107394
     8  C    2.535675   3.493445   2.805687   2.806131   1.535750
     9  H    2.767911   3.777318   2.584391   3.130753   2.176148
    10  H    2.767918   3.777582   3.130056   2.584907   2.176138
    11  C    3.894145   4.706161   4.223635   4.223925   2.535675
    12  H    4.223967   4.909875   4.449607   4.787577   2.806192
    13  H    4.706164   5.615368   4.909599   4.909804   3.493447
    14  H    4.223605   4.909531   4.787002   4.449593   2.805634
                    6          7          8          9         10
     6  H    0.000000
     7  H    1.766027   0.000000
     8  C    2.176146   2.176138   0.000000
     9  H    2.539015   3.092791   1.107415   0.000000
    10  H    3.092790   2.538983   1.107395   1.766020   0.000000
    11  C    2.767908   2.767931   1.527021   2.168769   2.168743
    12  H    2.584954   3.130872   2.182927   2.537940   3.092115
    13  H    3.777597   3.777314   2.177449   2.506175   2.505700
    14  H    3.129953   2.584364   2.182941   3.092165   2.538404
                   11         12         13         14
    11  C    0.000000
    12  H    1.095860   0.000000
    13  H    1.095625   1.766371   0.000000
    14  H    1.095860   1.766125   1.766374   0.000000
 Symmetry turned off by external request.
 Stoichiometry    C4H10
 Framework group  C1[X(C4H10)]
 Deg. of freedom    36
 Full point group                 C1      NOp   1
 Rotational constants (GHZ):          22.9460334           3.6614569           3.4268159
 Leave Link  202 at Wed Nov 29 16:44:54 2023, MaxMem=   134217728 cpu:               0.0 elap:               0.0
 (Enter /home/emanuele/chem_software/gaussian//gdv/l301.exe)
 Standard basis: Dummy (5D, 7F)
    14 basis functions,    14 primitive gaussians,    14 cartesian basis functions
     9 alpha electrons        9 beta electrons
       nuclear repulsion energy        36.4454800153 Hartrees.
 IExCor=       0 DFT=F Ex=HF Corr=None N6=None ScaHFX=  1.000000
 ScaDFX=  1.000000  1.000000  1.000000  1.000000  1.000000  0.000000
 ScaDFX=  0.000000  0.000000  0.000000  0.000000  0.000000  0.000000
 IRadAn=      5 IRanWt=     -1 IRanGd=            0 ICorTp=0 IEmpDi=  4
 NAtoms=   14 NActive=   14 NUniq=   14 SFac= 1.00D+00 NAtFMM=   60 NAOKFM=F Big=F
 Integral buffers will be    131072 words long.
 Raffenetti 1 integral format.
 Two-electron integral symmetry is turned off.
 Leave Link  301 at Wed Nov 29 16:44:54 2023, MaxMem=   134217728 cpu:               0.0 elap:               0.0
 (Enter /home/emanuele/chem_software/gaussian//gdv/l402.exe)
 AMBER calculation of energy.
 ****************************
 MOLECULAR MECHANICS FUNCTION
 ****************************
 Atomic parameters:
 Center  VDW
      1 1.9080 0.1094000
      2 1.4870 0.0157000
      3 1.4870 0.0157000
      4 1.4870 0.0157000
      5 1.9080 0.1094000
      6 1.4870 0.0157000
      7 1.4870 0.0157000
      8 1.9080 0.1094000
      9 1.4870 0.0157000
     10 1.4870 0.0157000
     11 1.9080 0.1094000
     12 1.4870 0.0157000
     13 1.4870 0.0157000
     14 1.4870 0.0157000
 Molecular mechanics terms:
 NBDir 3 1      0      0
 HrmStr1  1- 2  368.27 1.0930
 HrmStr1  1- 3  368.27 1.0930
 HrmStr1  1- 4  368.27 1.0930
 HrmStr1  1- 5  302.21 1.5280
 HrmStr1  5- 6  368.27 1.0930
 HrmStr1  5- 7  368.27 1.0930
 HrmStr1  5- 8  302.21 1.5280
 HrmStr1  8- 9  368.27 1.0930
 HrmStr1  8-10  368.27 1.0930
 HrmStr1  8-11  302.21 1.5280
 HrmStr1 11-12  368.27 1.0930
 HrmStr1 11-13  368.27 1.0930
 HrmStr1 11-14  368.27 1.0930
 HrmBnd1  1- 5- 6  40.03 110.16
 HrmBnd1  1- 5- 7  40.03 110.16
 HrmBnd1  1- 5- 8  52.04 113.37
 HrmBnd1  2- 1- 3  33.87 110.16
 HrmBnd1  2- 1- 4  33.87 110.16
 HrmBnd1  5- 1- 2  40.03 110.16
 HrmBnd1  3- 1- 4  33.87 110.16
 HrmBnd1  5- 1- 3  40.03 110.16
 HrmBnd1  5- 1- 4  40.03 110.16
 HrmBnd1  5- 8- 9  40.03 110.16
 HrmBnd1  5- 8-10  40.03 110.16
 HrmBnd1  5- 8-11  52.04 113.37
 HrmBnd1  6- 5- 7  33.87 110.16
 HrmBnd1  8- 5- 6  40.03 110.16
 HrmBnd1  8- 5- 7  40.03 110.16
 HrmBnd1  8-11-12  40.03 110.16
 HrmBnd1  8-11-13  40.03 110.16
 HrmBnd1  8-11-14  40.03 110.16
 HrmBnd1  9- 8-10  33.87 110.16
 HrmBnd1 11- 8- 9  40.03 110.16
 HrmBnd1 11- 8-10  40.03 110.16
 HrmBnd1 12-11-13  33.87 110.16
 HrmBnd1 12-11-14  33.87 110.16
 HrmBnd1 13-11-14  33.87 110.16
 AmbTrs  2- 1- 5- 6   0   0   0   0  0.0000  0.0000  2.1600  0.0000  9.0
 AmbTrs  2- 1- 5- 7   0   0   0   0  0.0000  0.0000  2.1600  0.0000  9.0
 AmbTrs  8- 5- 1- 2   0   0   0   0  0.0000  0.0000  2.1600  0.0000  9.0
 AmbTrs  3- 1- 5- 6   0   0   0   0  0.0000  0.0000  2.1600  0.0000  9.0
 AmbTrs  3- 1- 5- 7   0   0   0   0  0.0000  0.0000  2.1600  0.0000  9.0
 AmbTrs  8- 5- 1- 3   0   0   0   0  0.0000  0.0000  2.1600  0.0000  9.0
 AmbTrs  4- 1- 5- 6   0   0   0   0  0.0000  0.0000  2.1600  0.0000  9.0
 AmbTrs  4- 1- 5- 7   0   0   0   0  0.0000  0.0000  2.1600  0.0000  9.0
 AmbTrs  8- 5- 1- 4   0   0   0   0  0.0000  0.0000  2.1600  0.0000  9.0
 AmbTrs  1- 5- 8- 9   0   0   0   0  0.0000  0.0000  2.1600  0.0000  9.0
 AmbTrs  1- 5- 8-10   0   0   0   0  0.0000  0.0000  2.1600  0.0000  9.0
 AmbTrs  1- 5- 8-11   0   0   0   0  0.0000  0.0000  0.0000  0.0000  9.0
 AmbTrs  6- 5- 8- 9   0   0   0   0  0.0000  0.0000  2.1600  0.0000  9.0
 AmbTrs  6- 5- 8-10   0   0   0   0  0.0000  0.0000  2.1600  0.0000  9.0
 AmbTrs 11- 8- 5- 6   0   0   0   0  0.0000  0.0000  2.1600  0.0000  9.0
 AmbTrs  7- 5- 8- 9   0   0   0   0  0.0000  0.0000  2.1600  0.0000  9.0
 AmbTrs  7- 5- 8-10   0   0   0   0  0.0000  0.0000  2.1600  0.0000  9.0
 AmbTrs 11- 8- 5- 7   0   0   0   0  0.0000  0.0000  2.1600  0.0000  9.0
 AmbTrs  5- 8-11-12   0   0   0   0  0.0000  0.0000  2.1600  0.0000  9.0
 AmbTrs  5- 8-11-13   0   0   0   0  0.0000  0.0000  2.1600  0.0000  9.0
 AmbTrs  5- 8-11-14   0   0   0   0  0.0000  0.0000  2.1600  0.0000  9.0
 AmbTrs  9- 8-11-12   0   0   0   0  0.0000  0.0000  2.1600  0.0000  9.0
 AmbTrs  9- 8-11-13   0   0   0   0  0.0000  0.0000  2.1600  0.0000  9.0
 AmbTrs  9- 8-11-14   0   0   0   0  0.0000  0.0000  2.1600  0.0000  9.0
 AmbTrs 10- 8-11-12   0   0   0   0  0.0000  0.0000  2.1600  0.0000  9.0
 AmbTrs 10- 8-11-13   0   0   0   0  0.0000  0.0000  2.1600  0.0000  9.0
 AmbTrs 10- 8-11-14   0   0   0   0  0.0000  0.0000  2.1600  0.0000  9.0
 NBPair  2- 1 3 1      0      0 -1.000 -1.000
 NBPair  3- 2 3 1      0      0 -1.000 -1.000
 NBPair  4- 2 3 1      0      0 -1.000 -1.000
 NBPair  5- 2 3 1      0      0 -1.000 -1.000
 NBPair  3- 1 3 1      0      0 -1.000 -1.000
 NBPair  4- 3 3 1      0      0 -1.000 -1.000
 NBPair  5- 3 3 1      0      0 -1.000 -1.000
 NBPair  4- 1 3 1      0      0 -1.000 -1.000
 NBPair  5- 4 3 1      0      0 -1.000 -1.000
 NBPair  5- 1 3 1      0      0 -1.000 -1.000
 NBPair  6- 2 3 1      0      0 -0.500 -0.167
 NBPair  7- 2 3 1      0      0 -0.500 -0.167
 NBPair  8- 2 3 1      0      0 -0.500 -0.167
 NBPair  6- 3 3 1      0      0 -0.500 -0.167
 NBPair  7- 3 3 1      0      0 -0.500 -0.167
 NBPair  8- 3 3 1      0      0 -0.500 -0.167
 NBPair  6- 4 3 1      0      0 -0.500 -0.167
 NBPair  7- 4 3 1      0      0 -0.500 -0.167
 NBPair  8- 4 3 1      0      0 -0.500 -0.167
 NBPair  6- 1 3 1      0      0 -1.000 -1.000
 NBPair  7- 1 3 1      0      0 -1.000 -1.000
 NBPair  8- 1 3 1      0      0 -1.000 -1.000
 NBPair  6- 5 3 1      0      0 -1.000 -1.000
 NBPair  7- 6 3 1      0      0 -1.000 -1.000
 NBPair  8- 6 3 1      0      0 -1.000 -1.000
 NBPair  7- 5 3 1      0      0 -1.000 -1.000
 NBPair  8- 7 3 1      0      0 -1.000 -1.000
 NBPair  8- 5 3 1      0      0 -1.000 -1.000
 NBPair  9- 1 3 1      0      0 -0.500 -0.167
 NBPair 10- 1 3 1      0      0 -0.500 -0.167
 NBPair 11- 1 3 1      0      0 -0.500 -0.167
 NBPair  9- 6 3 1      0      0 -0.500 -0.167
 NBPair 10- 6 3 1      0      0 -0.500 -0.167
 NBPair 11- 6 3 1      0      0 -0.500 -0.167
 NBPair  9- 7 3 1      0      0 -0.500 -0.167
 NBPair 10- 7 3 1      0      0 -0.500 -0.167
 NBPair 11- 7 3 1      0      0 -0.500 -0.167
 NBPair  9- 5 3 1      0      0 -1.000 -1.000
 NBPair 10- 5 3 1      0      0 -1.000 -1.000
 NBPair 11- 5 3 1      0      0 -1.000 -1.000
 NBPair  9- 8 3 1      0      0 -1.000 -1.000
 NBPair 10- 9 3 1      0      0 -1.000 -1.000
 NBPair 11- 9 3 1      0      0 -1.000 -1.000
 NBPair 10- 8 3 1      0      0 -1.000 -1.000
 NBPair 11-10 3 1      0      0 -1.000 -1.000
 NBPair 11- 8 3 1      0      0 -1.000 -1.000
 NBPair 12- 5 3 1      0      0 -0.500 -0.167
 NBPair 13- 5 3 1      0      0 -0.500 -0.167
 NBPair 14- 5 3 1      0      0 -0.500 -0.167
 NBPair 12- 9 3 1      0      0 -0.500 -0.167
 NBPair 13- 9 3 1      0      0 -0.500 -0.167
 NBPair 14- 9 3 1      0      0 -0.500 -0.167
 NBPair 12-10 3 1      0      0 -0.500 -0.167
 NBPair 13-10 3 1      0      0 -0.500 -0.167
 NBPair 14-10 3 1      0      0 -0.500 -0.167
 NBPair 12- 8 3 1      0      0 -1.000 -1.000
 NBPair 13- 8 3 1      0      0 -1.000 -1.000
 NBPair 14- 8 3 1      0      0 -1.000 -1.000
 NBPair 12-11 3 1      0      0 -1.000 -1.000
 NBPair 13-12 3 1      0      0 -1.000 -1.000
 NBPair 14-12 3 1      0      0 -1.000 -1.000
 NBPair 13-11 3 1      0      0 -1.000 -1.000
 NBPair 14-13 3 1      0      0 -1.000 -1.000
 NBPair 14-11 3 1      0      0 -1.000 -1.000
 Energy per function type:
 Direct Coulomb + vdW (small)                           0.001968623
 Direct Coulomb (large)                                -0.055928633
 Direct vdW (large)                                   521.356416698
 Non-direct Coulomb + vdW (small)                       0.036975904
 Non-direct Coulomb (large)                             0.021661967
 Non-direct vdW (large)                              -521.356416698
 Harmonic stretch I                                     0.000544198
 Harmonic bend I                                        0.001738757
 Amber torsion                                          0.000053918
 Energy per function class:
        Coulomb               0.003815190
    Vanderwaals               0.000862671
     Stretching               0.000544198
        Bending               0.001738757
        Torsion               0.000053918
 Energy=    7.014734192E-03 NIter=   0.
 Dipole moment=       0.000062       0.000026      -0.000042
 Leave Link  402 at Wed Nov 29 16:44:54 2023, MaxMem=   134217728 cpu:               0.0 elap:               0.0
 (Enter /home/emanuele/chem_software/gaussian//gdv/l9999.exe)
 Unable to Open any file for archive entry.
 1\1\GINC-EMANUELE-XPS-13-9343\SP\AMBER\ZDO\C4H10\EMANUELE\29-Nov-2023\
 0\\#p Amber=(SoftFirst,Print) geom=nocrowd nosymm\\Title\\0,1\C,0,-1.7
 12134,-0.039249,1.042134\H,0,-1.922778,-0.78561,0.268204\H,0,-2.065421
 ,-0.447105,1.995944\H,0,-0.623235,0.061889,1.112635\C,0,-2.381028,1.29
 4844,0.718748\H,0,-3.474249,1.151091,0.615958\H,0,-2.031772,1.660358,-
 0.266514\C,0,-2.094942,2.351297,1.796055\H,0,-2.444169,1.98575,2.78133
 9\H,0,-1.00174,2.495071,1.898832\C,0,-2.763836,3.685388,1.472675\H,0,-
 3.85275,3.584277,1.402299\H,0,-2.553121,4.431778,2.246558\H,0,-2.41065
 4,4.093188,0.518803\\Version=ES64L-GDVRevJ.14\HF=0.0070147\RMSD=0.000e
 +00\Dipole=0.0000624,0.0000264,-0.0000417\PG=C01 [X(C4H10)]\\@
 The archive entry for this job was punched.


 ASKING DUMB QUESTIONS IS EASIER THAN CORECTING DUMB MISTAKES.
 Job cpu time:       0 days  0 hours  0 minutes  0.4 seconds.
 Elapsed time:       0 days  0 hours  0 minutes  0.4 seconds.
 File lengths (MBytes):  RWF=      6 Int=      0 D2E=      0 Chk=      1 Scr=      1
 Normal termination of Gaussian DV at Wed Nov 29 16:44:54 2023.
