 Entering Gaussian System, Link 0=g16
 Input=but_mm_all.gjf
 Output=but_mm_all.log
 Initial command:
 /home/emanuele/chemical_software//g16/l1.exe "/home/emanuele/chemical_software/scratch/Gau-409672.inp" -scrdir="/home/emanuele/chemical_software/scratch/"
 Entering Link 1 = /home/emanuele/chemical_software//g16/l1.exe PID=    409674.
  
 Copyright (c) 1988-2019, Gaussian, Inc.  All Rights Reserved.
  
 This is part of the Gaussian(R) 16 program.  It is based on
 the Gaussian(R) 09 system (copyright 2009, Gaussian, Inc.),
 the Gaussian(R) 03 system (copyright 2003, Gaussian, Inc.),
 the Gaussian(R) 98 system (copyright 1998, Gaussian, Inc.),
 the Gaussian(R) 94 system (copyright 1995, Gaussian, Inc.),
 the Gaussian 92(TM) system (copyright 1992, Gaussian, Inc.),
 the Gaussian 90(TM) system (copyright 1990, Gaussian, Inc.),
 the Gaussian 88(TM) system (copyright 1988, Gaussian, Inc.),
 the Gaussian 86(TM) system (copyright 1986, Carnegie Mellon
 University), and the Gaussian 82(TM) system (copyright 1983,
 Carnegie Mellon University). Gaussian is a federally registered
 trademark of Gaussian, Inc.
  
 This software contains proprietary and confidential information,
 including trade secrets, belonging to Gaussian, Inc.
  
 This software is provided under written license and may be
 used, copied, transmitted, or stored only in accord with that
 written license.
  
 The following legend is applicable only to US Government
 contracts under FAR:
  
                    RESTRICTED RIGHTS LEGEND
  
 Use, reproduction and disclosure by the US Government is
 subject to restrictions as set forth in subparagraphs (a)
 and (c) of the Commercial Computer Software - Restricted
 Rights clause in FAR 52.227-19.
  
 Gaussian, Inc.
 340 Quinnipiac St., Bldg. 40, Wallingford CT 06492
  
  
 ---------------------------------------------------------------
 Warning -- This program may not be used in any manner that
 competes with the business of Gaussian, Inc. or will provide
 assistance to any competitor of Gaussian, Inc.  The licensee
 of this program is prohibited from giving any competitor of
 Gaussian, Inc. access to this program.  By using this program,
 the user acknowledges that Gaussian, Inc. is engaged in the
 business of creating and licensing software in the field of
 computational chemistry and represents and warrants to the
 licensee that it is not a competitor of Gaussian, Inc. and that
 it will not use this program in any manner prohibited above.
 ---------------------------------------------------------------
  

 Cite this work as:
 Gaussian 16, Revision C.01,
 M. J. Frisch, G. W. Trucks, H. B. Schlegel, G. E. Scuseria, 
 M. A. Robb, J. R. Cheeseman, G. Scalmani, V. Barone, 
 G. A. Petersson, H. Nakatsuji, X. Li, M. Caricato, A. V. Marenich, 
 J. Bloino, B. G. Janesko, R. Gomperts, B. Mennucci, H. P. Hratchian, 
 J. V. Ortiz, A. F. Izmaylov, J. L. Sonnenberg, D. Williams-Young, 
 F. Ding, F. Lipparini, F. Egidi, J. Goings, B. Peng, A. Petrone, 
 T. Henderson, D. Ranasinghe, V. G. Zakrzewski, J. Gao, N. Rega, 
 G. Zheng, W. Liang, M. Hada, M. Ehara, K. Toyota, R. Fukuda, 
 J. Hasegawa, M. Ishida, T. Nakajima, Y. Honda, O. Kitao, H. Nakai, 
 T. Vreven, K. Throssell, J. A. Montgomery, Jr., J. E. Peralta, 
 F. Ogliaro, M. J. Bearpark, J. J. Heyd, E. N. Brothers, K. N. Kudin, 
 V. N. Staroverov, T. A. Keith, R. Kobayashi, J. Normand, 
 K. Raghavachari, A. P. Rendell, J. C. Burant, S. S. Iyengar, 
 J. Tomasi, M. Cossi, J. M. Millam, M. Klene, C. Adamo, R. Cammi, 
 J. W. Ochterski, R. L. Martin, K. Morokuma, O. Farkas, 
 J. B. Foresman, and D. J. Fox, Gaussian, Inc., Wallingford CT, 2019.
 
 ******************************************
 Gaussian 16:  ES64L-G16RevC.01  3-Jul-2019
                15-Jul-2022 
 ******************************************
 %chk=but_mm_all.chk
 %mem=500MB
 %nprocshared=1
 Will use up to    1 processors via shared memory.
 ---------------------------------------------------------
 #P Amber=(Print,Softonly) Geom=Connectivity Freq=intmodes
 ---------------------------------------------------------
 1/10=4,18=20,30=1,38=1,56=2,57=2,64=303/1,3;
 2/9=110,12=2,17=6,18=5,40=1/2;
 3/5=30,11=9,25=1,30=1,41=10300000,43=2,71=2,140=1/1;
 4/20=11,22=2,24=3,119=11/2;
 7/8=21,25=1,44=-1/16;
 1/10=4,18=20,30=1,64=303/3;
 99//99;
 Leave Link    1 at Fri Jul 15 15:11:11 2022, MaxMem=    65536000 cpu:               0.0 elap:               0.0
 (Enter /home/emanuele/chemical_software//g16/l101.exe)
 ----------------------
 Title C-CTard Required
 ----------------------
 Symbolic Z-matrix:
 Charge =  0 Multiplicity = 1
 C-CT-+0.000          -2.49467   0.37115   0. 
 H-HC-+0.000          -2.13802  -0.63766   0. 
 H-HC-+0.000          -2.138     0.87555  -0.87365 
 H-HC-+0.000          -3.56467   0.37116   0. 
 C-CT--0.000          -1.98133   1.0971    1.2574 
 H-HC--0.000          -0.91133   1.09709   1.25741 
 H-HC--0.000          -2.338     0.59271   2.13106 
 C-CT--0.000          -2.49464   2.54904   1.2574 
 H-HC--0.000          -2.13797   3.05343   0.38375 
 H-HC--0.000          -3.56464   2.54905   1.2574 
 C-CT-+0.000          -1.9813    3.27499   2.51481 
 H-HC-+0.000          -0.91131   3.27329   2.51579 
 H-HC-+0.000          -2.33636   4.28436   2.51384 
 H-HC-+0.000          -2.33957   2.77172   3.38846 
 
 ITRead=  0  0  0  0  0  0  0  0  0  0  0  0  0  0
 MicOpt= -1 -1 -1 -1 -1 -1 -1 -1 -1 -1 -1 -1 -1 -1
 NAtoms=     14 NQM=       14 NQMF=       0 NMMI=      0 NMMIF=      0
                NMic=       0 NMicF=      0.
                    Isotopes and Nuclear Properties:
 (Nuclear quadrupole moments (NQMom) in fm**2, nuclear magnetic moments (NMagM)
  in nuclear magnetons)

  Atom         1           2           3           4           5           6           7           8           9          10
 IAtWgt=          12           1           1           1          12           1           1          12           1           1
 AtmWgt=  12.0000000   1.0078250   1.0078250   1.0078250  12.0000000   1.0078250   1.0078250  12.0000000   1.0078250   1.0078250
 NucSpn=           0           1           1           1           0           1           1           0           1           1
 AtZEff=  -0.0000000  -0.0000000  -0.0000000  -0.0000000  -0.0000000  -0.0000000  -0.0000000  -0.0000000  -0.0000000  -0.0000000
 NQMom=    0.0000000   0.0000000   0.0000000   0.0000000   0.0000000   0.0000000   0.0000000   0.0000000   0.0000000   0.0000000
 NMagM=    0.0000000   2.7928460   2.7928460   2.7928460   0.0000000   2.7928460   2.7928460   0.0000000   2.7928460   2.7928460
 AtZNuc=   6.0000000   1.0000000   1.0000000   1.0000000   6.0000000   1.0000000   1.0000000   6.0000000   1.0000000   1.0000000

  Atom        11          12          13          14
 IAtWgt=          12           1           1           1
 AtmWgt=  12.0000000   1.0078250   1.0078250   1.0078250
 NucSpn=           0           1           1           1
 AtZEff=  -0.0000000  -0.0000000  -0.0000000  -0.0000000
 NQMom=    0.0000000   0.0000000   0.0000000   0.0000000
 NMagM=    0.0000000   2.7928460   2.7928460   2.7928460
 AtZNuc=   6.0000000   1.0000000   1.0000000   1.0000000
 Generating MM parameters.
 Read MM parameter file:
 Include all MM classes

 MM sanity checks:
 All charges sum to:                0.00000000
 Charges of atoms sum to:           0.00000000
 WARNING -- There are centers with partial charges, but
 there is no Vanderwaals repulsion. Centers can collapse
 onto each other.
 MMInit generated parameter data with length LenPar=        2657.
 Leave Link  101 at Fri Jul 15 15:11:11 2022, MaxMem=    65536000 cpu:               0.1 elap:               0.1
 (Enter /home/emanuele/chemical_software//g16/l103.exe)

 GradGradGradGradGradGradGradGradGradGradGradGradGradGradGradGradGradGrad
 Berny optimization.
 Initialization pass.
                           ----------------------------
                           !    Initial Parameters    !
                           ! (Angstroms and Degrees)  !
 --------------------------                            --------------------------
 ! Name  Definition              Value          Derivative Info.                !
 --------------------------------------------------------------------------------
 ! R1    R(1,2)                  1.07           calculate D2E/DX2 analytically  !
 ! R2    R(1,3)                  1.07           calculate D2E/DX2 analytically  !
 ! R3    R(1,4)                  1.07           calculate D2E/DX2 analytically  !
 ! R4    R(1,5)                  1.54           calculate D2E/DX2 analytically  !
 ! R5    R(5,6)                  1.07           calculate D2E/DX2 analytically  !
 ! R6    R(5,7)                  1.07           calculate D2E/DX2 analytically  !
 ! R7    R(5,8)                  1.54           calculate D2E/DX2 analytically  !
 ! R8    R(8,9)                  1.07           calculate D2E/DX2 analytically  !
 ! R9    R(8,10)                 1.07           calculate D2E/DX2 analytically  !
 ! R10   R(8,11)                 1.54           calculate D2E/DX2 analytically  !
 ! R11   R(11,12)                1.07           calculate D2E/DX2 analytically  !
 ! R12   R(11,13)                1.07           calculate D2E/DX2 analytically  !
 ! R13   R(11,14)                1.07           calculate D2E/DX2 analytically  !
 ! A1    A(2,1,3)              109.4712         calculate D2E/DX2 analytically  !
 ! A2    A(2,1,4)              109.4712         calculate D2E/DX2 analytically  !
 ! A3    A(2,1,5)              109.4712         calculate D2E/DX2 analytically  !
 ! A4    A(3,1,4)              109.4712         calculate D2E/DX2 analytically  !
 ! A5    A(3,1,5)              109.4713         calculate D2E/DX2 analytically  !
 ! A6    A(4,1,5)              109.4712         calculate D2E/DX2 analytically  !
 ! A7    A(1,5,6)              109.4712         calculate D2E/DX2 analytically  !
 ! A8    A(1,5,7)              109.4712         calculate D2E/DX2 analytically  !
 ! A9    A(1,5,8)              109.4712         calculate D2E/DX2 analytically  !
 ! A10   A(6,5,7)              109.4712         calculate D2E/DX2 analytically  !
 ! A11   A(6,5,8)              109.4713         calculate D2E/DX2 analytically  !
 ! A12   A(7,5,8)              109.4712         calculate D2E/DX2 analytically  !
 ! A13   A(5,8,9)              109.4712         calculate D2E/DX2 analytically  !
 ! A14   A(5,8,10)             109.4713         calculate D2E/DX2 analytically  !
 ! A15   A(5,8,11)             109.4712         calculate D2E/DX2 analytically  !
 ! A16   A(9,8,10)             109.4713         calculate D2E/DX2 analytically  !
 ! A17   A(9,8,11)             109.4712         calculate D2E/DX2 analytically  !
 ! A18   A(10,8,11)            109.4712         calculate D2E/DX2 analytically  !
 ! A19   A(8,11,12)            109.4712         calculate D2E/DX2 analytically  !
 ! A20   A(8,11,13)            109.4712         calculate D2E/DX2 analytically  !
 ! A21   A(8,11,14)            109.4712         calculate D2E/DX2 analytically  !
 ! A22   A(12,11,13)           109.4713         calculate D2E/DX2 analytically  !
 ! A23   A(12,11,14)           109.4712         calculate D2E/DX2 analytically  !
 ! A24   A(13,11,14)           109.4712         calculate D2E/DX2 analytically  !
 ! D1    D(2,1,5,6)             59.9999         calculate D2E/DX2 analytically  !
 ! D2    D(2,1,5,7)            -60.0001         calculate D2E/DX2 analytically  !
 ! D3    D(2,1,5,8)            179.9999         calculate D2E/DX2 analytically  !
 ! D4    D(3,1,5,6)            -60.0001         calculate D2E/DX2 analytically  !
 ! D5    D(3,1,5,7)            179.9999         calculate D2E/DX2 analytically  !
 ! D6    D(3,1,5,8)             59.9999         calculate D2E/DX2 analytically  !
 ! D7    D(4,1,5,6)            179.9999         calculate D2E/DX2 analytically  !
 ! D8    D(4,1,5,7)             59.9999         calculate D2E/DX2 analytically  !
 ! D9    D(4,1,5,8)            -60.0001         calculate D2E/DX2 analytically  !
 ! D10   D(1,5,8,9)            -60.0002         calculate D2E/DX2 analytically  !
 ! D11   D(1,5,8,10)            59.9999         calculate D2E/DX2 analytically  !
 ! D12   D(1,5,8,11)           179.9999         calculate D2E/DX2 analytically  !
 ! D13   D(6,5,8,9)             59.9998         calculate D2E/DX2 analytically  !
 ! D14   D(6,5,8,10)           179.9998         calculate D2E/DX2 analytically  !
 ! D15   D(6,5,8,11)           -60.0002         calculate D2E/DX2 analytically  !
 ! D16   D(7,5,8,9)            179.9998         calculate D2E/DX2 analytically  !
 ! D17   D(7,5,8,10)           -60.0001         calculate D2E/DX2 analytically  !
 ! D18   D(7,5,8,11)            59.9998         calculate D2E/DX2 analytically  !
 ! D19   D(5,8,11,12)           59.8891         calculate D2E/DX2 analytically  !
 ! D20   D(5,8,11,13)          179.8892         calculate D2E/DX2 analytically  !
 ! D21   D(5,8,11,14)          -60.1109         calculate D2E/DX2 analytically  !
 ! D22   D(9,8,11,12)          -60.1108         calculate D2E/DX2 analytically  !
 ! D23   D(9,8,11,13)           59.8892         calculate D2E/DX2 analytically  !
 ! D24   D(9,8,11,14)          179.8892         calculate D2E/DX2 analytically  !
 ! D25   D(10,8,11,12)         179.8892         calculate D2E/DX2 analytically  !
 ! D26   D(10,8,11,13)         -60.1108         calculate D2E/DX2 analytically  !
 ! D27   D(10,8,11,14)          59.8892         calculate D2E/DX2 analytically  !
 --------------------------------------------------------------------------------
 Trust Radius=3.00D-01 FncErr=1.00D-07 GrdErr=1.00D-07 EigMax=2.50D+02 EigMin=1.00D-04
 Number of steps in this run=      2 maximum allowed number of steps=      2.
 GradGradGradGradGradGradGradGradGradGradGradGradGradGradGradGradGradGrad

 Leave Link  103 at Fri Jul 15 15:11:12 2022, MaxMem=    65536000 cpu:               0.0 elap:               0.0
 (Enter /home/emanuele/chemical_software//g16/l202.exe)
                          Input orientation:                          
 ---------------------------------------------------------------------
 Center     Atomic      Atomic             Coordinates (Angstroms)
 Number     Number       Type             X           Y           Z
 ---------------------------------------------------------------------
      1          6    20001001       -2.494672    0.371147    0.000000
      2          1    20001034       -2.138018   -0.637663    0.000000
      3          1    20001034       -2.137999    0.875545   -0.873652
      4          1    20001034       -3.564672    0.371160    0.000000
      5          6    20001001       -1.981330    1.097103    1.257405
      6          1    20001034       -0.911330    1.097089    1.257406
      7          1    20001034       -2.338004    0.592706    2.131056
      8          6    20001001       -2.494644    2.549036    1.257404
      9          1    20001034       -2.137967    3.053435    0.383754
     10          1    20001034       -3.564644    2.549051    1.257401
     11          6    20001001       -1.981304    3.274990    2.514811
     12          1    20001034       -0.911306    3.273285    2.515791
     13          1    20001034       -2.336363    4.284363    2.513836
     14          1    20001034       -2.339573    2.771720    3.388460
 ---------------------------------------------------------------------
                    Distance matrix (angstroms):
                    1          2          3          4          5
     1  C    0.000000
     2  H    1.070000   0.000000
     3  H    1.070000   1.747302   0.000000
     4  H    1.070000   1.747303   1.747303   0.000000
     5  C    1.540000   2.148263   2.148263   2.148263   0.000000
     6  H    2.148263   2.468845   2.468847   3.024610   1.070000
     7  H    2.148263   2.468846   3.024611   2.468845   1.070000
     8  C    2.514809   3.444314   2.732977   2.732978   1.540000
     9  H    2.732979   3.710993   2.514810   3.062246   2.148263
    10  H    2.732977   3.710993   3.062241   2.514809   2.148264
    11  C    3.875581   4.653782   4.154945   4.154944   2.514809
    12  H    4.154354   4.809318   4.329232   4.668178   2.732078
    13  H    4.653782   5.530375   4.809829   4.810537   3.444313
    14  H    4.155534   4.811047   4.669229   4.329574   2.733875
                    6          7          8          9         10
     6  H    0.000000
     7  H    1.747303   0.000000
     8  C    2.148263   2.148263   0.000000
     9  H    2.468845   3.024610   1.070000   0.000000
    10  H    3.024611   2.468848   1.070000   1.747303   0.000000
    11  C    2.732978   2.732975   1.540000   2.148263   2.148263
    12  H    2.513835   3.060881   2.148263   2.469536   3.024609
    13  H    3.710533   3.711449   2.148263   2.468156   2.469536
    14  H    3.063603   2.515784   2.148263   3.024610   2.468156
                   11         12         13         14
    11  C    0.000000
    12  H    1.070000   0.000000
    13  H    1.070000   1.747303   0.000000
    14  H    1.070000   1.747303   1.747303   0.000000
 Stoichiometry    C4H10
 Framework group  C1[X(C4H10)]
 Deg. of freedom    36
 Full point group                 C1      NOp   1
 Largest Abelian subgroup         C1      NOp   1
 Largest concise Abelian subgroup C1      NOp   1
                         Standard orientation:                         
 ---------------------------------------------------------------------
 Center     Atomic      Atomic             Coordinates (Angstroms)
 Number     Number       Type             X           Y           Z
 ---------------------------------------------------------------------
      1          6    20001001        1.933553   -0.128084    0.000001
      2          1    20001034        2.693619    0.625042   -0.000000
      3          1    20001034        2.035225   -0.737426   -0.873649
      4          1    20001034        2.035224   -0.737423    0.873654
      5          6    20001001        0.546964    0.541969   -0.000001
      6          1    20001034        0.445294    1.151309   -0.873653
      7          1    20001034        0.445291    1.151310    0.873650
      8          6    20001001       -0.546964   -0.541969   -0.000001
      9          1    20001034       -0.445294   -1.151309   -0.873654
     10          1    20001034       -0.445293   -1.151312    0.873649
     11          6    20001001       -1.933553    0.128084    0.000001
     12          1    20001034       -2.034489    0.738947   -0.872672
     13          1    20001034       -2.693619   -0.625040   -0.001951
     14          1    20001034       -2.035959    0.735901    0.874627
 ---------------------------------------------------------------------
 Rotational constants (GHZ):          23.0583260           3.7383904           3.4902866
 Leave Link  202 at Fri Jul 15 15:11:12 2022, MaxMem=    65536000 cpu:               0.0 elap:               0.0
 (Enter /home/emanuele/chemical_software//g16/l301.exe)
 Standard basis: Dummy (5D, 7F)
 There are    14 symmetry adapted cartesian basis functions of A   symmetry.
 There are    14 symmetry adapted basis functions of A   symmetry.
    14 basis functions,    14 primitive gaussians,    14 cartesian basis functions
     9 alpha electrons        9 beta electrons
       nuclear repulsion energy        37.0538558052 Hartrees.
 IExCor=    0 DFT=F Ex=HF Corr=None ExCW=0 ScaHFX=  1.000000
 ScaDFX=  1.000000  1.000000  1.000000  1.000000 ScalE2=  1.000000  1.000000
 IRadAn=      5 IRanWt=     -1 IRanGd=            0 ICorTp=0 IEmpDi=  4
 NAtoms=   14 NActive=   14 NUniq=   14 SFac= 1.00D+00 NAtFMM=   60 NAOKFM=F Big=F
 Integral buffers will be    131072 words long.
 Raffenetti 1 integral format.
 Two-electron integral symmetry is turned on.
 Leave Link  301 at Fri Jul 15 15:11:12 2022, MaxMem=    65536000 cpu:               0.0 elap:               0.0
 (Enter /home/emanuele/chemical_software//g16/l402.exe)
 AMBER calculation of energy, first and second derivatives.
 ****************************
 MOLECULAR MECHANICS FUNCTION
 ****************************
 Molecular mechanics terms:
 NBDir 3 1      0      0
 HrmStr1  1- 2    1.00 1.0928
 HrmStr1  1- 3    1.00 1.0928
 HrmStr1  1- 4    1.00 1.0928
 HrmStr1  1- 5    1.00 1.5278
 HrmStr1  5- 6    1.00 1.0928
 HrmStr1  5- 7    1.00 1.0928
 HrmStr1  5- 8    1.00 1.5278
 HrmStr1  8- 9    1.00 1.0928
 HrmStr1  8-10    1.00 1.0928
 HrmStr1  8-11    1.00 1.5278
 HrmStr1 11-12    1.00 1.0928
 HrmStr1 11-13    1.00 1.0928
 HrmStr1 11-14    1.00 1.0928
 HrmBnd1  1- 5- 6   1.00 110.16
 HrmBnd1  1- 5- 7   1.00 110.16
 HrmBnd1  1- 5- 8   1.00 113.37
 HrmBnd1  2- 1- 3   1.00 107.19
 HrmBnd1  2- 1- 4   1.00 107.19
 HrmBnd1  5- 1- 2   1.00 110.16
 HrmBnd1  3- 1- 4   1.00 107.19
 HrmBnd1  5- 1- 3   1.00 110.16
 HrmBnd1  5- 1- 4   1.00 110.16
 HrmBnd1  5- 8- 9   1.00 110.16
 HrmBnd1  5- 8-10   1.00 110.16
 HrmBnd1  5- 8-11   1.00 113.37
 HrmBnd1  6- 5- 7   1.00 107.19
 HrmBnd1  8- 5- 6   1.00 110.16
 HrmBnd1  8- 5- 7   1.00 110.16
 HrmBnd1  8-11-12   1.00 110.16
 HrmBnd1  8-11-13   1.00 110.16
 HrmBnd1  8-11-14   1.00 110.16
 HrmBnd1  9- 8-10   1.00 107.19
 HrmBnd1 11- 8- 9   1.00 110.16
 HrmBnd1 11- 8-10   1.00 110.16
 HrmBnd1 12-11-13   1.00 107.19
 HrmBnd1 12-11-14   1.00 107.19
 HrmBnd1 13-11-14   1.00 107.19
 AmbTrs  2- 1- 5- 6   0   0   0   0  0.0000  0.0000  1.0000  0.0000  9.0
 AmbTrs  2- 1- 5- 7   0   0   0   0  0.0000  0.0000  1.0000  0.0000  9.0
 AmbTrs  2- 1- 5- 8   0   0   0   0  0.0000  0.0000  1.0000  0.0000  9.0
 AmbTrs  3- 1- 5- 6   0   0   0   0  0.0000  0.0000  1.0000  0.0000  9.0
 AmbTrs  3- 1- 5- 7   0   0   0   0  0.0000  0.0000  1.0000  0.0000  9.0
 AmbTrs  3- 1- 5- 8   0   0   0   0  0.0000  0.0000  1.0000  0.0000  9.0
 AmbTrs  4- 1- 5- 6   0   0   0   0  0.0000  0.0000  1.0000  0.0000  9.0
 AmbTrs  4- 1- 5- 7   0   0   0   0  0.0000  0.0000  1.0000  0.0000  9.0
 AmbTrs  4- 1- 5- 8   0   0   0   0  0.0000  0.0000  1.0000  0.0000  9.0
 AmbTrs  1- 5- 8- 9   0   0   0   0  0.0000  0.0000  1.0000  0.0000  9.0
 AmbTrs  1- 5- 8-10   0   0   0   0  0.0000  0.0000  1.0000  0.0000  9.0
 AmbTrs  1- 5- 8-11   0   0   0   0  0.0000  0.0000  1.0000  0.0000  9.0
 AmbTrs  6- 5- 8- 9   0   0   0   0  0.0000  0.0000  1.0000  0.0000  9.0
 AmbTrs  6- 5- 8-10   0   0   0   0  0.0000  0.0000  1.0000  0.0000  9.0
 AmbTrs  6- 5- 8-11   0   0   0   0  0.0000  0.0000  1.0000  0.0000  9.0
 AmbTrs  7- 5- 8- 9   0   0   0   0  0.0000  0.0000  1.0000  0.0000  9.0
 AmbTrs  7- 5- 8-10   0   0   0   0  0.0000  0.0000  1.0000  0.0000  9.0
 AmbTrs  7- 5- 8-11   0   0   0   0  0.0000  0.0000  1.0000  0.0000  9.0
 AmbTrs  5- 8-11-12   0   0   0   0  0.0000  0.0000  1.0000  0.0000  9.0
 AmbTrs  5- 8-11-13   0   0   0   0  0.0000  0.0000  1.0000  0.0000  9.0
 AmbTrs  5- 8-11-14   0   0   0   0  0.0000  0.0000  1.0000  0.0000  9.0
 AmbTrs  9- 8-11-12   0   0   0   0  0.0000  0.0000  1.0000  0.0000  9.0
 AmbTrs  9- 8-11-13   0   0   0   0  0.0000  0.0000  1.0000  0.0000  9.0
 AmbTrs  9- 8-11-14   0   0   0   0  0.0000  0.0000  1.0000  0.0000  9.0
 AmbTrs 10- 8-11-12   0   0   0   0  0.0000  0.0000  1.0000  0.0000  9.0
 AmbTrs 10- 8-11-13   0   0   0   0  0.0000  0.0000  1.0000  0.0000  9.0
 AmbTrs 10- 8-11-14   0   0   0   0  0.0000  0.0000  1.0000  0.0000  9.0
 NBPair  2- 1 3 1      0      0 -1.000 -1.000
 NBPair  3- 2 3 1      0      0 -1.000 -1.000
 NBPair  4- 2 3 1      0      0 -1.000 -1.000
 NBPair  5- 2 3 1      0      0 -1.000 -1.000
 NBPair  3- 1 3 1      0      0 -1.000 -1.000
 NBPair  4- 3 3 1      0      0 -1.000 -1.000
 NBPair  5- 3 3 1      0      0 -1.000 -1.000
 NBPair  4- 1 3 1      0      0 -1.000 -1.000
 NBPair  5- 4 3 1      0      0 -1.000 -1.000
 NBPair  5- 1 3 1      0      0 -1.000 -1.000
 NBPair  6- 2 3 1      0      0 -0.500 -0.167
 NBPair  7- 2 3 1      0      0 -0.500 -0.167
 NBPair  8- 2 3 1      0      0 -0.500 -0.167
 NBPair  6- 3 3 1      0      0 -0.500 -0.167
 NBPair  7- 3 3 1      0      0 -0.500 -0.167
 NBPair  8- 3 3 1      0      0 -0.500 -0.167
 NBPair  6- 4 3 1      0      0 -0.500 -0.167
 NBPair  7- 4 3 1      0      0 -0.500 -0.167
 NBPair  8- 4 3 1      0      0 -0.500 -0.167
 NBPair  6- 1 3 1      0      0 -1.000 -1.000
 NBPair  7- 1 3 1      0      0 -1.000 -1.000
 NBPair  8- 1 3 1      0      0 -1.000 -1.000
 NBPair  6- 5 3 1      0      0 -1.000 -1.000
 NBPair  7- 6 3 1      0      0 -1.000 -1.000
 NBPair  8- 6 3 1      0      0 -1.000 -1.000
 NBPair  7- 5 3 1      0      0 -1.000 -1.000
 NBPair  8- 7 3 1      0      0 -1.000 -1.000
 NBPair  8- 5 3 1      0      0 -1.000 -1.000
 NBPair  9- 1 3 1      0      0 -0.500 -0.167
 NBPair 10- 1 3 1      0      0 -0.500 -0.167
 NBPair 11- 1 3 1      0      0 -0.500 -0.167
 NBPair  9- 6 3 1      0      0 -0.500 -0.167
 NBPair 10- 6 3 1      0      0 -0.500 -0.167
 NBPair 11- 6 3 1      0      0 -0.500 -0.167
 NBPair  9- 7 3 1      0      0 -0.500 -0.167
 NBPair 10- 7 3 1      0      0 -0.500 -0.167
 NBPair 11- 7 3 1      0      0 -0.500 -0.167
 NBPair  9- 5 3 1      0      0 -1.000 -1.000
 NBPair 10- 5 3 1      0      0 -1.000 -1.000
 NBPair 11- 5 3 1      0      0 -1.000 -1.000
 NBPair  9- 8 3 1      0      0 -1.000 -1.000
 NBPair 10- 9 3 1      0      0 -1.000 -1.000
 NBPair 11- 9 3 1      0      0 -1.000 -1.000
 NBPair 10- 8 3 1      0      0 -1.000 -1.000
 NBPair 11-10 3 1      0      0 -1.000 -1.000
 NBPair 11- 8 3 1      0      0 -1.000 -1.000
 NBPair 12- 5 3 1      0      0 -0.500 -0.167
 NBPair 13- 5 3 1      0      0 -0.500 -0.167
 NBPair 14- 5 3 1      0      0 -0.500 -0.167
 NBPair 12- 9 3 1      0      0 -0.500 -0.167
 NBPair 13- 9 3 1      0      0 -0.500 -0.167
 NBPair 14- 9 3 1      0      0 -0.500 -0.167
 NBPair 12-10 3 1      0      0 -0.500 -0.167
 NBPair 13-10 3 1      0      0 -0.500 -0.167
 NBPair 14-10 3 1      0      0 -0.500 -0.167
 NBPair 12- 8 3 1      0      0 -1.000 -1.000
 NBPair 13- 8 3 1      0      0 -1.000 -1.000
 NBPair 14- 8 3 1      0      0 -1.000 -1.000
 NBPair 12-11 3 1      0      0 -1.000 -1.000
 NBPair 13-12 3 1      0      0 -1.000 -1.000
 NBPair 14-12 3 1      0      0 -1.000 -1.000
 NBPair 13-11 3 1      0      0 -1.000 -1.000
 NBPair 14-13 3 1      0      0 -1.000 -1.000
 NBPair 14-11 3 1      0      0 -1.000 -1.000
 Energy per function type:
 Direct Coulomb + vdW (small)                           0.000000000
 Direct Coulomb (large)                                 0.000000000
 Direct vdW (large)                                     0.000000000
 Non-direct Coulomb + vdW (small)                       0.000000000
 Non-direct Coulomb (large)                             0.000000000
 Non-direct vdW (large)                                 0.000000000
 Harmonic stretch I                                     0.000009003
 Harmonic bend I                                        0.000038159
 Amber torsion                                          0.000000027
 Energy per function class:
        Coulomb               0.000000000
    Vanderwaals               0.000000000
     Stretching               0.000009003
        Bending               0.000038159
        Torsion               0.000000027
 Energy=    4.718923928E-05 NIter=   0.
 Dipole moment=       0.000000       0.000000       0.000000
 Leave Link  402 at Fri Jul 15 15:11:12 2022, MaxMem=    65536000 cpu:               0.0 elap:               0.0
 (Enter /home/emanuele/chemical_software//g16/l716.exe)
 Dipole        = 0.00000000D+00 0.00000000D+00 0.00000000D+00
 Full mass-weighted force constant matrix:
 Low frequencies ---   -7.1335   -6.0340   -4.6054   -0.0000   -0.0000    0.0000
 Low frequencies ---   32.8055   37.1900   56.6156
 Diagonal vibrational polarizability:
        0.0000000       0.0000000       0.0000000
 Harmonic frequencies (cm**-1), IR intensities (KM/Mole), Raman scattering
 activities (A**4/AMU), depolarization ratios for plane and unpolarized
 incident light, reduced masses (AMU), force constants (mDyne/A),
 and normal coordinates:
                      1                      2                      3
                      A                      A                      A
 Frequencies --     32.8051                37.1900                56.6156
 Red. masses --      3.6102                 2.3800                 3.8242
 Frc consts  --      0.0023                 0.0019                 0.0072
 IR Inten    --      0.0000                 0.0000                 0.0000
  Atom  AN      X      Y      Z        X      Y      Z        X      Y      Z
     1   6    -0.32   0.00  -0.00    -0.07  -0.15  -0.00    -0.22   0.11  -0.00
     2   1    -0.31  -0.03  -0.00     0.11  -0.36   0.00    -0.24   0.11  -0.00
     3   1    -0.35   0.00  -0.00    -0.23  -0.18  -0.01    -0.24   0.12   0.00
     4   1    -0.35   0.00   0.00    -0.23  -0.18   0.01    -0.24   0.12  -0.00
     5   6    -0.12  -0.04   0.00     0.07   0.17   0.00     0.24  -0.11   0.00
     6   1    -0.14  -0.04   0.00     0.15   0.20   0.00     0.25  -0.12   0.01
     7   1    -0.14  -0.04  -0.00     0.15   0.20  -0.00     0.25  -0.12  -0.01
     8   6     0.12   0.04   0.00     0.07   0.17  -0.00     0.24  -0.11   0.00
     9   1     0.14   0.04   0.00     0.15   0.20  -0.00     0.25  -0.12  -0.01
    10   1     0.14   0.04  -0.00     0.15   0.20   0.00     0.25  -0.12   0.01
    11   6     0.32  -0.00  -0.00    -0.07  -0.15   0.00    -0.22   0.11  -0.00
    12   1     0.35  -0.00  -0.00    -0.23  -0.18   0.01    -0.24   0.12  -0.00
    13   1     0.31   0.03  -0.00     0.11  -0.36  -0.00    -0.24   0.11  -0.00
    14   1     0.35  -0.00   0.00    -0.23  -0.18  -0.01    -0.24   0.12   0.00
                      4                      5                      6
                      A                      A                      A
 Frequencies --     60.7288                64.0186                84.7020
 Red. masses --      3.1312                 2.2074                 2.6980
 Frc consts  --      0.0068                 0.0053                 0.0114
 IR Inten    --      0.0000                 0.0000                 0.0000
  Atom  AN      X      Y      Z        X      Y      Z        X      Y      Z
     1   6    -0.10   0.07   0.00    -0.00   0.00  -0.15     0.03  -0.07   0.00
     2   1     0.01  -0.06   0.00     0.00  -0.00  -0.26     0.19  -0.28   0.00
     3   1    -0.21   0.06   0.00    -0.23   0.09  -0.29    -0.11  -0.11  -0.02
     4   1    -0.21   0.06   0.00     0.23  -0.09  -0.29    -0.11  -0.11   0.02
     5   6     0.25   0.14  -0.00     0.00   0.00   0.18    -0.11   0.24  -0.00
     6   1     0.35   0.17  -0.01    -0.03  -0.01   0.22    -0.20   0.29  -0.03
     7   1     0.35   0.17   0.01     0.03   0.01   0.22    -0.20   0.29   0.03
     8   6    -0.25  -0.14  -0.00    -0.00  -0.00   0.18     0.11  -0.24  -0.00
     9   1    -0.35  -0.17  -0.01     0.03   0.01   0.22     0.20  -0.29  -0.03
    10   1    -0.35  -0.17   0.01    -0.03  -0.01   0.22     0.20  -0.29   0.03
    11   6     0.10  -0.07   0.00     0.00  -0.00  -0.15    -0.03   0.07   0.00
    12   1     0.21  -0.06   0.00     0.23  -0.09  -0.29     0.11   0.11  -0.02
    13   1    -0.01   0.06   0.00    -0.00   0.00  -0.26    -0.19   0.28   0.00
    14   1     0.21  -0.06   0.00    -0.23   0.09  -0.29     0.11   0.11   0.02
                      7                      8                      9
                      A                      A                      A
 Frequencies --    126.7860               144.8574               152.5343
 Red. masses --      1.0118                 1.0694                 1.0161
 Frc consts  --      0.0096                 0.0132                 0.0139
 IR Inten    --      0.0000                 0.0000                 0.0000
  Atom  AN      X      Y      Z        X      Y      Z        X      Y      Z
     1   6     0.00   0.00  -0.00     0.00   0.00  -0.02     0.00  -0.00   0.02
     2   1    -0.00   0.00   0.34     0.00   0.00   0.25     0.00  -0.00  -0.04
     3   1     0.14   0.26  -0.17     0.32   0.01  -0.06    -0.27   0.27   0.09
     4   1    -0.14  -0.26  -0.17    -0.32  -0.01  -0.06     0.27  -0.27   0.09
     5   6    -0.00  -0.00  -0.01     0.00   0.00  -0.05     0.00  -0.00  -0.00
     6   1     0.18   0.19   0.10     0.03   0.27  -0.20     0.02   0.17  -0.25
     7   1    -0.18  -0.19   0.10    -0.03  -0.27  -0.20    -0.02  -0.17  -0.25
     8   6    -0.00   0.00  -0.01    -0.00  -0.00   0.05     0.00  -0.00   0.00
     9   1    -0.18  -0.19   0.10     0.03   0.27   0.20     0.02   0.17   0.25
    10   1     0.18   0.19   0.10    -0.03  -0.26   0.20    -0.02  -0.17   0.25
    11   6    -0.00   0.00  -0.00     0.00  -0.00   0.02     0.00  -0.00  -0.02
    12   1    -0.14  -0.26  -0.17     0.32   0.02   0.06    -0.27   0.28  -0.09
    13   1     0.00   0.00   0.34    -0.00  -0.00  -0.25    -0.01  -0.00   0.04
    14   1     0.14   0.25  -0.17    -0.32  -0.01   0.06     0.28  -0.27  -0.08
                     10                     11                     12
                      A                      A                      A
 Frequencies --    152.7374               153.0159               153.1026
 Red. masses --      1.0153                 1.0162                 1.0172
 Frc consts  --      0.0140                 0.0140                 0.0140
 IR Inten    --      0.0000                 0.0000                 0.0000
  Atom  AN      X      Y      Z        X      Y      Z        X      Y      Z
     1   6     0.00   0.00  -0.02     0.01   0.01   0.00     0.01   0.01  -0.00
     2   1     0.00  -0.00   0.06     0.47  -0.00  -0.00     0.49   0.01   0.00
     3   1     0.29  -0.29  -0.13    -0.19   0.08   0.09    -0.19   0.07   0.09
     4   1    -0.29   0.29  -0.13    -0.19   0.07  -0.09    -0.20   0.08  -0.10
     5   6     0.00  -0.00   0.00    -0.01  -0.00   0.00    -0.01  -0.00  -0.00
     6   1     0.02  -0.14   0.21    -0.01  -0.17   0.25    -0.01  -0.16   0.23
     7   1    -0.02   0.14   0.20    -0.01  -0.17  -0.25    -0.01  -0.16  -0.23
     8   6     0.00   0.00   0.00     0.01   0.00  -0.00    -0.01  -0.00   0.00
     9   1    -0.02   0.15   0.21     0.01   0.17   0.24    -0.01  -0.16  -0.23
    10   1     0.02  -0.14   0.20     0.01   0.18  -0.25    -0.01  -0.16   0.23
    11   6    -0.00  -0.00  -0.02    -0.01  -0.01   0.00     0.01   0.01  -0.00
    12   1    -0.29   0.29  -0.13     0.19  -0.08   0.09    -0.20   0.08  -0.10
    13   1    -0.01  -0.00   0.06    -0.46   0.00   0.00     0.49   0.01  -0.00
    14   1     0.30  -0.28  -0.13     0.19  -0.07  -0.09    -0.19   0.07   0.10
                     13                     14                     15
                      A                      A                      A
 Frequencies --    153.6449               153.6462               157.4200
 Red. masses --      1.0151                 1.0151                 1.0512
 Frc consts  --      0.0141                 0.0141                 0.0153
 IR Inten    --      0.0000                 0.0000                 0.0000
  Atom  AN      X      Y      Z        X      Y      Z        X      Y      Z
     1   6     0.02  -0.01  -0.00     0.01  -0.00   0.00     0.01   0.01  -0.00
     2   1    -0.27  -0.44  -0.00    -0.10  -0.17   0.00    -0.31  -0.14  -0.00
     3   1     0.02   0.28   0.47     0.01   0.11   0.19     0.09  -0.07  -0.13
     4   1     0.02   0.28  -0.47     0.01   0.11  -0.19     0.09  -0.07   0.13
     5   6    -0.00  -0.00  -0.00    -0.00  -0.00   0.00    -0.00   0.04  -0.00
     6   1    -0.01  -0.01   0.01    -0.00  -0.01   0.01     0.05  -0.18   0.36
     7   1    -0.00  -0.01  -0.01    -0.00  -0.00  -0.00     0.05  -0.18  -0.36
     8   6     0.00   0.00   0.00    -0.00  -0.00  -0.00    -0.00   0.04  -0.00
     9   1     0.00   0.00   0.00    -0.01  -0.01  -0.01     0.05  -0.18  -0.36
    10   1     0.00  -0.00  -0.00    -0.00  -0.00   0.01     0.05  -0.18   0.36
    11   6    -0.01   0.00  -0.00     0.02  -0.01   0.00     0.01   0.01   0.00
    12   1    -0.01  -0.11   0.18     0.02   0.28  -0.47     0.09  -0.07   0.13
    13   1     0.11   0.17  -0.00    -0.27  -0.44   0.00    -0.31  -0.14  -0.00
    14   1    -0.01  -0.11  -0.18     0.02   0.29   0.47     0.09  -0.07  -0.13
                     16                     17                     18
                      A                      A                      A
 Frequencies --    158.1522               160.4804               161.3500
 Red. masses --      1.0648                 1.0933                 1.1218
 Frc consts  --      0.0157                 0.0166                 0.0172
 IR Inten    --      0.0000                 0.0000                 0.0000
  Atom  AN      X      Y      Z        X      Y      Z        X      Y      Z
     1   6    -0.01  -0.02  -0.00    -0.00   0.00  -0.04     0.00   0.00  -0.07
     2   1     0.32   0.22  -0.00     0.00   0.00  -0.04    -0.00  -0.00  -0.03
     3   1    -0.07   0.08   0.16     0.00   0.21   0.26     0.15   0.21   0.39
     4   1    -0.07   0.08  -0.16    -0.00  -0.21   0.26    -0.15  -0.21   0.39
     5   6     0.00  -0.04  -0.00     0.00  -0.00  -0.04    -0.00   0.00  -0.02
     6   1    -0.02   0.16  -0.33     0.04  -0.23   0.28    -0.10  -0.03   0.14
     7   1    -0.02   0.16   0.33    -0.04   0.23   0.28     0.10   0.03   0.14
     8   6    -0.00   0.04  -0.00    -0.00  -0.00  -0.04    -0.00  -0.00   0.02
     9   1     0.02  -0.16  -0.33    -0.04   0.23   0.28    -0.10  -0.03  -0.14
    10   1     0.02  -0.16   0.33     0.04  -0.23   0.28     0.10   0.03  -0.14
    11   6     0.01   0.02   0.00     0.00   0.00  -0.04    -0.00  -0.00   0.07
    12   1     0.07  -0.08   0.16    -0.00  -0.21   0.26     0.15   0.21  -0.39
    13   1    -0.32  -0.22  -0.00    -0.00   0.00  -0.04     0.00   0.00   0.03
    14   1     0.07  -0.08  -0.16     0.00   0.21   0.27    -0.15  -0.21  -0.39
                     19                     20                     21
                      A                      A                      A
 Frequencies --    167.3244               169.7781               173.9765
 Red. masses --      1.2392                 1.3028                 1.3709
 Frc consts  --      0.0204                 0.0221                 0.0244
 IR Inten    --      0.0000                 0.0000                 0.0000
  Atom  AN      X      Y      Z        X      Y      Z        X      Y      Z
     1   6    -0.04  -0.09   0.00    -0.04  -0.09  -0.00    -0.00  -0.00   0.10
     2   1    -0.04   0.54  -0.00    -0.09   0.52   0.00    -0.00   0.00   0.05
     3   1     0.17   0.03   0.22     0.18   0.01   0.20    -0.32  -0.03  -0.28
     4   1     0.17   0.03  -0.22     0.18   0.01  -0.20     0.32   0.03  -0.28
     5   6     0.00   0.04   0.00    -0.00   0.06  -0.00    -0.00   0.00  -0.08
     6   1     0.09  -0.01   0.11     0.06  -0.01   0.17     0.07  -0.18   0.15
     7   1     0.09  -0.01  -0.11     0.05  -0.01  -0.17    -0.07   0.18   0.15
     8   6     0.00   0.04  -0.00     0.00  -0.06   0.00    -0.00  -0.00  -0.08
     9   1     0.09  -0.01  -0.11    -0.05   0.01   0.17    -0.07   0.18   0.15
    10   1     0.09  -0.01   0.11    -0.06   0.01  -0.17     0.07  -0.18   0.15
    11   6    -0.04  -0.09  -0.00     0.04   0.09   0.00     0.00   0.00   0.10
    12   1     0.17   0.03  -0.22    -0.18  -0.01   0.20     0.32   0.03  -0.28
    13   1    -0.04   0.54   0.00     0.09  -0.52  -0.00     0.00  -0.00   0.05
    14   1     0.16   0.03   0.22    -0.18  -0.01  -0.20    -0.32  -0.03  -0.28
                     22                     23                     24
                      A                      A                      A
 Frequencies --    176.5077               214.2798               219.8626
 Red. masses --      1.1371                 1.4958                 1.2446
 Frc consts  --      0.0209                 0.0405                 0.0354
 IR Inten    --      0.0000                 0.0000                 0.0000
  Atom  AN      X      Y      Z        X      Y      Z        X      Y      Z
     1   6     0.00   0.00  -0.01     0.00   0.00  -0.06     0.09  -0.05  -0.00
     2   1     0.00  -0.00   0.16     0.00  -0.00  -0.28    -0.32   0.25  -0.00
     3   1     0.01   0.21  -0.10     0.09  -0.13   0.15    -0.37   0.13  -0.07
     4   1    -0.01  -0.21  -0.09    -0.09   0.13   0.15    -0.37   0.13   0.07
     5   6     0.00  -0.00  -0.08    -0.00  -0.00   0.14     0.00   0.00   0.00
     6   1     0.38  -0.18   0.08     0.35   0.01  -0.16    -0.02  -0.00   0.00
     7   1    -0.38   0.18   0.08    -0.35  -0.01  -0.16    -0.02  -0.00  -0.00
     8   6     0.00   0.00   0.08    -0.00  -0.00  -0.14    -0.00  -0.00  -0.00
     9   1     0.38  -0.18  -0.08     0.35   0.02   0.16     0.02   0.00   0.00
    10   1    -0.38   0.18  -0.08    -0.35  -0.01   0.16     0.02   0.00  -0.00
    11   6    -0.00  -0.00   0.01     0.00  -0.00   0.06    -0.09   0.05   0.00
    12   1     0.01   0.20   0.10     0.09  -0.13  -0.15     0.37  -0.13  -0.07
    13   1     0.00   0.00  -0.16    -0.00  -0.00   0.28     0.32  -0.25   0.00
    14   1    -0.01  -0.21   0.09    -0.09   0.13  -0.15     0.37  -0.13   0.07
                     25                     26                     27
                      A                      A                      A
 Frequencies --    219.8698               239.2348               247.3466
 Red. masses --      1.2447                 1.2291                 1.0106
 Frc consts  --      0.0355                 0.0414                 0.0364
 IR Inten    --      0.0000                 0.0000                 0.0000
  Atom  AN      X      Y      Z        X      Y      Z        X      Y      Z
     1   6    -0.09   0.05  -0.00     0.01   0.02   0.00     0.00   0.00  -0.01
     2   1     0.32  -0.25  -0.00     0.03  -0.04   0.00     0.00  -0.00  -0.19
     3   1     0.37  -0.13   0.07    -0.02   0.05  -0.04    -0.05  -0.13   0.09
     4   1     0.37  -0.13  -0.07    -0.02   0.04   0.04     0.05   0.13   0.09
     5   6     0.00  -0.00   0.00    -0.09  -0.03  -0.00    -0.00  -0.00   0.01
     6   1     0.02   0.00  -0.00     0.48   0.06  -0.02     0.45   0.06  -0.01
     7   1     0.02   0.00   0.00     0.49   0.06   0.02    -0.44  -0.06  -0.01
     8   6     0.00  -0.00  -0.00    -0.09  -0.03   0.00     0.00  -0.00   0.01
     9   1     0.02   0.00   0.00     0.49   0.06   0.02    -0.45  -0.06  -0.01
    10   1     0.02   0.00  -0.00     0.48   0.06  -0.02     0.44   0.06  -0.01
    11   6    -0.09   0.05   0.00     0.01   0.02   0.00    -0.00  -0.00  -0.01
    12   1     0.37  -0.13  -0.07    -0.02   0.04   0.04     0.05   0.13   0.09
    13   1     0.32  -0.25   0.00     0.03  -0.04   0.00     0.00   0.00  -0.19
    14   1     0.37  -0.13   0.07    -0.02   0.05  -0.04    -0.05  -0.13   0.09
                     28                     29                     30
                      A                      A                      A
 Frequencies --    250.0680               283.0966               305.8812
 Red. masses --      1.3404                 1.1452                 1.0859
 Frc consts  --      0.0494                 0.0541                 0.0599
 IR Inten    --      0.0000                 0.0000                 0.0000
  Atom  AN      X      Y      Z        X      Y      Z        X      Y      Z
     1   6    -0.01  -0.01  -0.00    -0.00   0.00  -0.00    -0.00  -0.00  -0.05
     2   1    -0.02   0.04  -0.00    -0.00   0.00   0.09     0.00  -0.00   0.31
     3   1     0.01  -0.04   0.04     0.14   0.19  -0.12    -0.20  -0.21   0.14
     4   1     0.01  -0.04  -0.03    -0.14  -0.19  -0.12     0.20   0.21   0.14
     5   6     0.12   0.01   0.00     0.00   0.00   0.08    -0.00  -0.00  -0.03
     6   1    -0.47  -0.10  -0.02    -0.16  -0.31  -0.22    -0.07   0.24   0.18
     7   1    -0.48  -0.10   0.02     0.16   0.31  -0.22     0.07  -0.24   0.18
     8   6    -0.12  -0.01   0.00    -0.00  -0.00  -0.08     0.00  -0.00  -0.03
     9   1     0.47   0.10  -0.02    -0.16  -0.31   0.23     0.07  -0.24   0.18
    10   1     0.48   0.10   0.02     0.16   0.31   0.22    -0.08   0.24   0.18
    11   6     0.01   0.01  -0.00    -0.00  -0.00   0.00    -0.00  -0.00  -0.05
    12   1    -0.01   0.04   0.04     0.14   0.19   0.12     0.20   0.21   0.14
    13   1     0.02  -0.04  -0.00     0.00   0.00  -0.09    -0.00  -0.00   0.31
    14   1    -0.01   0.04  -0.03    -0.14  -0.19   0.11    -0.20  -0.21   0.14
                     31                     32                     33
                      A                      A                      A
 Frequencies --    307.5087               307.5268               309.0466
 Red. masses --      1.1375                 1.1366                 1.1685
 Frc consts  --      0.0634                 0.0633                 0.0658
 IR Inten    --      0.0000                 0.0000                 0.0000
  Atom  AN      X      Y      Z        X      Y      Z        X      Y      Z
     1   6    -0.03  -0.07  -0.00    -0.03  -0.07   0.00    -0.00  -0.00   0.08
     2   1     0.10  -0.07   0.00     0.11  -0.07  -0.00     0.00  -0.00  -0.58
     3   1     0.12   0.39  -0.24     0.13   0.41  -0.25     0.19   0.16  -0.12
     4   1     0.12   0.39   0.24     0.13   0.41   0.25    -0.19  -0.16  -0.12
     5   6     0.01   0.00  -0.00     0.01   0.00   0.00     0.00  -0.00  -0.03
     6   1    -0.03   0.03   0.02    -0.03   0.03   0.02    -0.00   0.06   0.05
     7   1    -0.03   0.03  -0.02    -0.03   0.03  -0.02     0.00  -0.06   0.05
     8   6     0.01   0.00   0.00    -0.01  -0.00  -0.00     0.00   0.00   0.03
     9   1    -0.03   0.03  -0.02     0.03  -0.02   0.02    -0.00   0.06  -0.05
    10   1    -0.03   0.03   0.02     0.03  -0.02  -0.02     0.00  -0.06  -0.05
    11   6    -0.03  -0.07   0.00     0.03   0.07  -0.00    -0.00  -0.00  -0.08
    12   1     0.13   0.41   0.26    -0.12  -0.39  -0.24     0.19   0.16   0.12
    13   1     0.11  -0.07  -0.00    -0.10   0.07   0.00    -0.00  -0.00   0.58
    14   1     0.13   0.41  -0.25    -0.12  -0.39   0.24    -0.19  -0.16   0.11
                     34                     35                     36
                      A                      A                      A
 Frequencies --    310.5545               339.7565               343.0469
 Red. masses --      1.1230                 1.1302                 1.1604
 Frc consts  --      0.0638                 0.0769                 0.0805
 IR Inten    --      0.0000                 0.0000                 0.0000
  Atom  AN      X      Y      Z        X      Y      Z        X      Y      Z
     1   6    -0.00   0.00  -0.06     0.00   0.01   0.00     0.00   0.01  -0.00
     2   1     0.00   0.00   0.47     0.00  -0.00   0.00     0.00  -0.01  -0.00
     3   1    -0.08  -0.03   0.03    -0.01  -0.02   0.01    -0.01  -0.02   0.01
     4   1     0.08   0.03   0.03    -0.01  -0.02  -0.01    -0.01  -0.02  -0.01
     5   6     0.00   0.00   0.05     0.01  -0.07   0.00     0.02  -0.08  -0.00
     6   1     0.10  -0.27  -0.21    -0.06   0.41   0.27    -0.08   0.41   0.27
     7   1    -0.10   0.27  -0.21    -0.06   0.41  -0.27    -0.08   0.41  -0.27
     8   6    -0.00   0.00   0.05     0.01  -0.07   0.00    -0.02   0.08  -0.00
     9   1    -0.10   0.27  -0.21    -0.06   0.41  -0.27     0.08  -0.41   0.27
    10   1     0.10  -0.27  -0.21    -0.06   0.41   0.27     0.08  -0.41  -0.27
    11   6    -0.00  -0.00  -0.06     0.00   0.01  -0.00    -0.00  -0.01   0.00
    12   1     0.08   0.03   0.03    -0.01  -0.02  -0.01     0.01   0.02   0.01
    13   1    -0.00  -0.00   0.47     0.00  -0.00   0.00    -0.00   0.01  -0.00
    14   1    -0.08  -0.03   0.03    -0.01  -0.02   0.01     0.01   0.02  -0.01

 -------------------
 - Thermochemistry -
 -------------------
 Temperature   298.150 Kelvin.  Pressure   1.00000 Atm.
 Atom     1 has atomic number  6 and mass  12.00000
 Atom     2 has atomic number  1 and mass   1.00783
 Atom     3 has atomic number  1 and mass   1.00783
 Atom     4 has atomic number  1 and mass   1.00783
 Atom     5 has atomic number  6 and mass  12.00000
 Atom     6 has atomic number  1 and mass   1.00783
 Atom     7 has atomic number  1 and mass   1.00783
 Atom     8 has atomic number  6 and mass  12.00000
 Atom     9 has atomic number  1 and mass   1.00783
 Atom    10 has atomic number  1 and mass   1.00783
 Atom    11 has atomic number  6 and mass  12.00000
 Atom    12 has atomic number  1 and mass   1.00783
 Atom    13 has atomic number  1 and mass   1.00783
 Atom    14 has atomic number  1 and mass   1.00783
 Molecular mass:    58.07825 amu.
 Principal axes and moments of inertia in atomic units:
                           1         2         3
     Eigenvalues --    78.26853 482.75890 517.07537
           X            0.99999  -0.00513  -0.00000
           Y            0.00513   0.99999  -0.00000
           Z            0.00000   0.00000   1.00000
 This molecule is an asymmetric top.
 Rotational symmetry number  1.
 Rotational temperatures (Kelvin)      1.10663     0.17941     0.16751
 Rotational constants (GHZ):          23.05833     3.73839     3.49029
 Zero-point vibrational energy      40364.7 (Joules/Mol)
                                    9.64740 (Kcal/Mol)
 Warning -- explicit consideration of  36 degrees of freedom as
           vibrations may cause significant error
 Vibrational temperatures:     47.20    53.51    81.46    87.38    92.11
          (Kelvin)            121.87   182.42   208.42   219.46   219.76
                              220.16   220.28   221.06   221.06   226.49
                              227.55   230.90   232.15   240.74   244.27
                              250.31   253.96   308.30   316.33   316.34
                              344.21   355.88   359.79   407.31   440.09
                              442.44   442.46   444.65   446.82   488.83
                              493.57
 
 Zero-point correction=                           0.015374 (Hartree/Particle)
 Thermal correction to Energy=                    0.039554
 Thermal correction to Enthalpy=                  0.040498
 Thermal correction to Gibbs Free Energy=        -0.032757
 Sum of electronic and zero-point Energies=              0.015421
 Sum of electronic and thermal Energies=                 0.039601
 Sum of electronic and thermal Enthalpies=               0.040545
 Sum of electronic and thermal Free Energies=           -0.032710
 
                     E (Thermal)             CV                S
                      KCal/Mol        Cal/Mol-Kelvin    Cal/Mol-Kelvin
 Total                   24.820             72.045            154.177
 Electronic               0.000              0.000              0.000
 Translational            0.889              2.981             38.098
 Rotational               0.889              2.981             24.483
 Vibrational             23.043             66.084             91.596
 Vibration     1          0.594              1.983              5.652
 Vibration     2          0.594              1.982              5.403
 Vibration     3          0.596              1.975              4.572
 Vibration     4          0.597              1.973              4.433
 Vibration     5          0.597              1.971              4.329
 Vibration     6          0.601              1.960              3.779
 Vibration     7          0.611              1.926              2.994
 Vibration     8          0.616              1.908              2.739
 Vibration     9          0.619              1.900              2.640
 Vibration    10          0.619              1.900              2.638
 Vibration    11          0.619              1.899              2.634
 Vibration    12          0.619              1.899              2.633
 Vibration    13          0.619              1.899              2.627
 Vibration    14          0.619              1.899              2.627
 Vibration    15          0.621              1.894              2.581
 Vibration    16          0.621              1.893              2.572
 Vibration    17          0.622              1.891              2.544
 Vibration    18          0.622              1.890              2.534
 Vibration    19          0.624              1.883              2.465
 Vibration    20          0.625              1.880              2.438
 Vibration    21          0.627              1.874              2.392
 Vibration    22          0.628              1.871              2.365
 Vibration    23          0.644              1.819              2.007
 Vibration    24          0.647              1.811              1.960
 Vibration    25          0.647              1.811              1.960
 Vibration    26          0.657              1.780              1.809
 Vibration    27          0.661              1.767              1.749
 Vibration    28          0.663              1.763              1.730
 Vibration    29          0.682              1.705              1.515
 Vibration    30          0.696              1.663              1.385
 Vibration    31          0.697              1.659              1.376
 Vibration    32          0.697              1.659              1.376
 Vibration    33          0.698              1.656              1.367
 Vibration    34          0.699              1.654              1.359
 Vibration    35          0.720              1.596              1.213
 Vibration    36          0.722              1.589              1.198
                       Q            Log10(Q)             Ln(Q)
 Total Bot       0.116710D+16         15.067108         34.693297
 Total V=0       0.137626D+23         22.138701         50.976242
 Vib (Bot)       0.134076D+04          3.127352          7.200995
 Vib (Bot)    1  0.631025D+01          0.800047          1.842175
 Vib (Bot)    2  0.556459D+01          0.745433          1.716423
 Vib (Bot)    3  0.364884D+01          0.562155          1.294410
 Vib (Bot)    4  0.340011D+01          0.531494          1.223809
 Vib (Bot)    5  0.322411D+01          0.508410          1.170656
 Vib (Bot)    6  0.242956D+01          0.385528          0.887712
 Vib (Bot)    7  0.160923D+01          0.206617          0.475754
 Vib (Bot)    8  0.140183D+01          0.146694          0.337775
 Vib (Bot)    9  0.132835D+01          0.123313          0.283939
 Vib (Bot)   10  0.132651D+01          0.122709          0.282549
 Vib (Bot)   11  0.132398D+01          0.121883          0.280645
 Vib (Bot)   12  0.132320D+01          0.121626          0.280054
 Vib (Bot)   13  0.131832D+01          0.120020          0.276357
 Vib (Bot)   14  0.131831D+01          0.120017          0.276348
 Vib (Bot)   15  0.128525D+01          0.108988          0.250955
 Vib (Bot)   16  0.127902D+01          0.106877          0.246093
 Vib (Bot)   17  0.125956D+01          0.100220          0.230766
 Vib (Bot)   18  0.125244D+01          0.097757          0.225093
 Vib (Bot)   19  0.120545D+01          0.081147          0.186849
 Vib (Bot)   20  0.118708D+01          0.074480          0.171497
 Vib (Bot)   21  0.115683D+01          0.063270          0.145685
 Vib (Bot)   22  0.113927D+01          0.056627          0.130390
 Vib (Bot)   23  0.925296D+00         -0.033719         -0.077641
 Vib (Bot)   24  0.899721D+00         -0.045892         -0.105671
 Vib (Bot)   25  0.899688D+00         -0.045908         -0.105707
 Vib (Bot)   26  0.819901D+00         -0.086239         -0.198572
 Vib (Bot)   27  0.790048D+00         -0.102346         -0.235661
 Vib (Bot)   28  0.780448D+00         -0.107656         -0.247887
 Vib (Bot)   29  0.678023D+00         -0.168755         -0.388574
 Vib (Bot)   30  0.619660D+00         -0.207847         -0.478584
 Vib (Bot)   31  0.615804D+00         -0.210557         -0.484826
 Vib (Bot)   32  0.615762D+00         -0.210587         -0.484895
 Vib (Bot)   33  0.612196D+00         -0.213109         -0.490703
 Vib (Bot)   34  0.608691D+00         -0.215603         -0.496444
 Vib (Bot)   35  0.546607D+00         -0.262325         -0.604025
 Vib (Bot)   36  0.540236D+00         -0.267417         -0.615750
 Vib (V=0)       0.158105D+11         10.198945         23.483939
 Vib (V=0)    1  0.683003D+01          0.834422          1.921329
 Vib (V=0)    2  0.608701D+01          0.784404          1.806156
 Vib (V=0)    3  0.418294D+01          0.621482          1.431014
 Vib (V=0)    4  0.393668D+01          0.595130          1.370338
 Vib (V=0)    5  0.376265D+01          0.575494          1.325123
 Vib (V=0)    6  0.298048D+01          0.474286          1.092085
 Vib (V=0)    7  0.218511D+01          0.339474          0.781668
 Vib (V=0)    8  0.198833D+01          0.298488          0.687293
 Vib (V=0)    9  0.191934D+01          0.283151          0.651980
 Vib (V=0)   10  0.191761D+01          0.282760          0.651080
 Vib (V=0)   11  0.191525D+01          0.282226          0.649848
 Vib (V=0)   12  0.191452D+01          0.282059          0.649466
 Vib (V=0)   13  0.190995D+01          0.281022          0.647078
 Vib (V=0)   14  0.190994D+01          0.281020          0.647072
 Vib (V=0)   15  0.187908D+01          0.273946          0.630785
 Vib (V=0)   16  0.187328D+01          0.272602          0.627689
 Vib (V=0)   17  0.185518D+01          0.268385          0.617980
 Vib (V=0)   18  0.184856D+01          0.266833          0.614405
 Vib (V=0)   19  0.180503D+01          0.256484          0.590576
 Vib (V=0)   20  0.178808D+01          0.252388          0.581145
 Vib (V=0)   21  0.176026D+01          0.245577          0.565462
 Vib (V=0)   22  0.174416D+01          0.241587          0.556275
 Vib (V=0)   23  0.155175D+01          0.190821          0.439382
 Vib (V=0)   24  0.152932D+01          0.184498          0.424822
 Vib (V=0)   25  0.152929D+01          0.184490          0.424804
 Vib (V=0)   26  0.146033D+01          0.164452          0.378664
 Vib (V=0)   27  0.143497D+01          0.156844          0.361147
 Vib (V=0)   28  0.142688D+01          0.154386          0.355488
 Vib (V=0)   29  0.134245D+01          0.127897          0.294493
 Vib (V=0)   30  0.129623D+01          0.112681          0.259458
 Vib (V=0)   31  0.129323D+01          0.111676          0.257143
 Vib (V=0)   32  0.129320D+01          0.111665          0.257118
 Vib (V=0)   33  0.129043D+01          0.110735          0.254978
 Vib (V=0)   34  0.128772D+01          0.109822          0.252874
 Vib (V=0)   35  0.124080D+01          0.093701          0.215753
 Vib (V=0)   36  0.123611D+01          0.092056          0.211967
 Electronic      0.100000D+01          0.000000          0.000000
 Translational   0.173970D+08          7.240474         16.671808
 Rotational      0.500358D+05          4.699281         10.820495
                           ----------------------------
                           ! Normal Mode     1        !
 --------------------------                            --------------------------
 ! Name  Definition              Value          Relative Weight (%)             !
 --------------------------------------------------------------------------------
 ! R1    R(1,2)                 -0.0124                  1.1                    !
 ! R4    R(1,5)                 -0.1993                 18.4                    !
 ! R7    R(5,8)                 -0.2234                 20.6                    !
 ! R10   R(8,11)                -0.1993                 18.4                    !
 ! R12   R(11,13)               -0.0124                  1.1                    !
 ! A1    A(2,1,3)                0.0044                  0.4                    !
 ! A2    A(2,1,4)                0.0044                  0.4                    !
 ! A5    A(3,1,5)               -0.0056                  0.5                    !
 ! A6    A(4,1,5)               -0.0056                  0.5                    !
 ! A7    A(1,5,6)                0.0166                  1.5                    !
 ! A8    A(1,5,7)                0.0167                  1.5                    !
 ! A9    A(1,5,8)               -0.0561                  5.2                    !
 ! A10   A(6,5,7)               -0.004                   0.4                    !
 ! A11   A(6,5,8)                0.0134                  1.2                    !
 ! A12   A(7,5,8)                0.0134                  1.2                    !
 ! A13   A(5,8,9)                0.0134                  1.2                    !
 ! A14   A(5,8,10)               0.0134                  1.2                    !
 ! A15   A(5,8,11)              -0.0561                  5.2                    !
 ! A16   A(9,8,10)              -0.004                   0.4                    !
 ! A17   A(9,8,11)               0.0167                  1.5                    !
 ! A18   A(10,8,11)              0.0167                  1.5                    !
 ! A19   A(8,11,12)             -0.0056                  0.5                    !
 ! A21   A(8,11,14)             -0.0056                  0.5                    !
 ! A22   A(12,11,13)             0.0044                  0.4                    !
 ! A24   A(13,11,14)             0.0044                  0.4                    !
 ! D1    D(2,1,5,6)              0.0078                  0.7                    !
 ! D2    D(2,1,5,7)             -0.0078                  0.7                    !
 ! D4    D(3,1,5,6)              0.006                   0.6                    !
 ! D5    D(3,1,5,7)             -0.0096                  0.9                    !
 ! D7    D(4,1,5,6)              0.0096                  0.9                    !
 ! D8    D(4,1,5,7)             -0.006                   0.6                    !
 ! D10   D(1,5,8,9)             -0.0057                  0.5                    !
 ! D11   D(1,5,8,10)             0.0058                  0.5                    !
 ! D13   D(6,5,8,9)             -0.0115                  1.1                    !
 ! D15   D(6,5,8,11)            -0.0057                  0.5                    !
 ! D17   D(7,5,8,10)             0.0115                  1.1                    !
 ! D18   D(7,5,8,11)             0.0058                  0.5                    !
 ! D22   D(9,8,11,12)            0.006                   0.6                    !
 ! D23   D(9,8,11,13)            0.0078                  0.7                    !
 ! D24   D(9,8,11,14)            0.0096                  0.9                    !
 ! D25   D(10,8,11,12)          -0.0096                  0.9                    !
 ! D26   D(10,8,11,13)          -0.0078                  0.7                    !
 ! D27   D(10,8,11,14)          -0.006                   0.6                    !
 --------------------------------------------------------------------------------
                           ----------------------------
                           ! Normal Mode     2        !
 --------------------------                            --------------------------
 ! Name  Definition              Value          Relative Weight (%)             !
 --------------------------------------------------------------------------------
 ! R1    R(1,2)                 -0.023                   2.2                    !
 ! R2    R(1,3)                  0.0115                  1.1                    !
 ! R3    R(1,4)                  0.0115                  1.1                    !
 ! R4    R(1,5)                  0.0083                  0.8                    !
 ! R10   R(8,11)                -0.0083                  0.8                    !
 ! R11   R(11,12)               -0.0117                  1.1                    !
 ! R12   R(11,13)                0.023                   2.2                    !
 ! R13   R(11,14)               -0.0113                  1.1                    !
 ! A3    A(2,1,5)                0.0165                  1.6                    !
 ! A5    A(3,1,5)               -0.0082                  0.8                    !
 ! A6    A(4,1,5)               -0.0082                  0.8                    !
 ! A7    A(1,5,6)                0.0293                  2.9                    !
 ! A8    A(1,5,7)                0.0292                  2.9                    !
 ! A9    A(1,5,8)               -0.121                  11.8                    !
 ! A10   A(6,5,7)               -0.0106                  1.0                    !
 ! A11   A(6,5,8)                0.0365                  3.6                    !
 ! A12   A(7,5,8)                0.0365                  3.6                    !
 ! A13   A(5,8,9)               -0.0364                  3.6                    !
 ! A14   A(5,8,10)              -0.0366                  3.6                    !
 ! A15   A(5,8,11)               0.121                  11.8                    !
 ! A16   A(9,8,10)               0.0106                  1.0                    !
 ! A17   A(9,8,11)              -0.0294                  2.9                    !
 ! A18   A(10,8,11)             -0.0291                  2.8                    !
 ! A19   A(8,11,12)              0.008                   0.8                    !
 ! A20   A(8,11,13)             -0.0165                  1.6                    !
 ! A21   A(8,11,14)              0.0085                  0.8                    !
 ! D1    D(2,1,5,6)              0.0114                  1.1                    !
 ! D2    D(2,1,5,7)             -0.0114                  1.1                    !
 ! D5    D(3,1,5,7)             -0.0182                  1.8                    !
 ! D6    D(3,1,5,8)             -0.0067                  0.7                    !
 ! D7    D(4,1,5,6)              0.0181                  1.8                    !
 ! D9    D(4,1,5,8)              0.0067                  0.7                    !
 ! D10   D(1,5,8,9)              0.0158                  1.5                    !
 ! D11   D(1,5,8,10)            -0.016                   1.6                    !
 ! D14   D(6,5,8,10)            -0.0318                  3.1                    !
 ! D15   D(6,5,8,11)            -0.0158                  1.5                    !
 ! D16   D(7,5,8,9)              0.0317                  3.1                    !
 ! D18   D(7,5,8,11)             0.0159                  1.6                    !
 ! D19   D(5,8,11,12)            0.0068                  0.7                    !
 ! D21   D(5,8,11,14)           -0.0066                  0.6                    !
 ! D23   D(9,8,11,13)           -0.0115                  1.1                    !
 ! D24   D(9,8,11,14)           -0.0181                  1.8                    !
 ! D25   D(10,8,11,12)           0.0182                  1.8                    !
 ! D26   D(10,8,11,13)           0.0114                  1.1                    !
 --------------------------------------------------------------------------------
                           ----------------------------
                           ! Normal Mode     3        !
 --------------------------                            --------------------------
 ! Name  Definition              Value          Relative Weight (%)             !
 --------------------------------------------------------------------------------
 ! R1    R(1,2)                 -0.0117                  0.8                    !
 ! R2    R(1,3)                 -0.0118                  0.8                    !
 ! R3    R(1,4)                 -0.0118                  0.8                    !
 ! R4    R(1,5)                 -0.5058                 36.2                    !
 ! R5    R(5,6)                 -0.0137                  1.0                    !
 ! R6    R(5,7)                 -0.0137                  1.0                    !
 ! R8    R(8,9)                  0.0137                  1.0                    !
 ! R9    R(8,10)                 0.0137                  1.0                    !
 ! R10   R(8,11)                 0.5058                 36.2                    !
 ! R11   R(11,12)                0.0118                  0.8                    !
 ! R12   R(11,13)                0.0117                  0.8                    !
 ! R13   R(11,14)                0.0118                  0.8                    !
 ! A1    A(2,1,3)                0.0101                  0.7                    !
 ! A2    A(2,1,4)                0.0101                  0.7                    !
 ! A3    A(2,1,5)               -0.0101                  0.7                    !
 ! A4    A(3,1,4)                0.0101                  0.7                    !
 ! A5    A(3,1,5)               -0.01                    0.7                    !
 ! A6    A(4,1,5)               -0.01                    0.7                    !
 ! A19   A(8,11,12)              0.01                    0.7                    !
 ! A20   A(8,11,13)              0.0101                  0.7                    !
 ! A21   A(8,11,14)              0.01                    0.7                    !
 ! A22   A(12,11,13)            -0.0101                  0.7                    !
 ! A23   A(12,11,14)            -0.0101                  0.7                    !
 ! A24   A(13,11,14)            -0.0101                  0.7                    !
 ! D14   D(6,5,8,10)            -0.0118                  0.8                    !
 ! D16   D(7,5,8,9)              0.0118                  0.8                    !
 --------------------------------------------------------------------------------
                           ----------------------------
                           ! Normal Mode     4        !
 --------------------------                            --------------------------
 ! Name  Definition              Value          Relative Weight (%)             !
 --------------------------------------------------------------------------------
 ! R1    R(1,2)                 -0.0127                  0.8                    !
 ! R4    R(1,5)                 -0.2832                 17.0                    !
 ! R5    R(5,6)                  0.0103                  0.6                    !
 ! R6    R(5,7)                  0.0102                  0.6                    !
 ! R7    R(5,8)                  0.5507                 33.0                    !
 ! R8    R(8,9)                  0.0105                  0.6                    !
 ! R9    R(8,10)                 0.01                    0.6                    !
 ! R10   R(8,11)                -0.2832                 17.0                    !
 ! R12   R(11,13)               -0.0127                  0.8                    !
 ! A1    A(2,1,3)                0.0055                  0.3                    !
 ! A2    A(2,1,4)                0.0055                  0.3                    !
 ! A3    A(2,1,5)                0.0119                  0.7                    !
 ! A4    A(3,1,4)                0.0064                  0.4                    !
 ! A5    A(3,1,5)               -0.0146                  0.9                    !
 ! A6    A(4,1,5)               -0.0147                  0.9                    !
 ! A7    A(1,5,6)               -0.0076                  0.5                    !
 ! A8    A(1,5,7)               -0.008                   0.5                    !
 ! A9    A(1,5,8)               -0.0208                  1.2                    !
 ! A11   A(6,5,8)                0.0204                  1.2                    !
 ! A12   A(7,5,8)                0.0203                  1.2                    !
 ! A13   A(5,8,9)                0.0204                  1.2                    !
 ! A14   A(5,8,10)               0.0204                  1.2                    !
 ! A15   A(5,8,11)              -0.0208                  1.2                    !
 ! A17   A(9,8,11)              -0.0075                  0.5                    !
 ! A18   A(10,8,11)             -0.0081                  0.5                    !
 ! A19   A(8,11,12)             -0.0144                  0.9                    !
 ! A20   A(8,11,13)              0.0119                  0.7                    !
 ! A21   A(8,11,14)             -0.0149                  0.9                    !
 ! A22   A(12,11,13)             0.0055                  0.3                    !
 ! A23   A(12,11,14)             0.0064                  0.4                    !
 ! A24   A(13,11,14)             0.0055                  0.3                    !
 ! D1    D(2,1,5,6)             -0.0075                  0.4                    !
 ! D2    D(2,1,5,7)              0.0075                  0.4                    !
 ! D4    D(3,1,5,6)             -0.0126                  0.8                    !
 ! D8    D(4,1,5,7)              0.0124                  0.7                    !
 ! D10   D(1,5,8,9)             -0.0101                  0.6                    !
 ! D11   D(1,5,8,10)             0.0095                  0.6                    !
 ! D13   D(6,5,8,9)             -0.0196                  1.2                    !
 ! D15   D(6,5,8,11)            -0.0102                  0.6                    !
 ! D17   D(7,5,8,10)             0.0196                  1.2                    !
 ! D18   D(7,5,8,11)             0.0095                  0.6                    !
 ! D22   D(9,8,11,12)           -0.0126                  0.8                    !
 ! D23   D(9,8,11,13)           -0.0074                  0.4                    !
 ! D26   D(10,8,11,13)           0.0075                  0.4                    !
 ! D27   D(10,8,11,14)           0.0124                  0.7                    !
 --------------------------------------------------------------------------------
                           ----------------------------
                           ! Normal Mode     5        !
 --------------------------                            --------------------------
 ! Name  Definition              Value          Relative Weight (%)             !
 --------------------------------------------------------------------------------
 ! R2    R(1,3)                  0.0406                  1.9                    !
 ! R3    R(1,4)                 -0.0405                  1.9                    !
 ! R5    R(5,6)                 -0.0321                  1.5                    !
 ! R6    R(5,7)                  0.0322                  1.5                    !
 ! R8    R(8,9)                 -0.0321                  1.5                    !
 ! R9    R(8,10)                 0.0322                  1.5                    !
 ! R11   R(11,12)                0.0404                  1.8                    !
 ! R13   R(11,14)               -0.0407                  1.9                    !
 ! A5    A(3,1,5)               -0.0374                  1.7                    !
 ! A6    A(4,1,5)                0.0373                  1.7                    !
 ! A7    A(1,5,6)               -0.0822                  3.8                    !
 ! A8    A(1,5,7)                0.0823                  3.8                    !
 ! A17   A(9,8,11)              -0.0821                  3.7                    !
 ! A18   A(10,8,11)              0.0823                  3.8                    !
 ! A19   A(8,11,12)             -0.0375                  1.7                    !
 ! A21   A(8,11,14)              0.0371                  1.7                    !
 ! D3    D(2,1,5,8)             -0.0586                  2.7                    !
 ! D4    D(3,1,5,6)              0.0291                  1.3                    !
 ! D5    D(3,1,5,7)              0.0291                  1.3                    !
 ! D6    D(3,1,5,8)             -0.0318                  1.5                    !
 ! D7    D(4,1,5,6)              0.0292                  1.3                    !
 ! D8    D(4,1,5,7)              0.0292                  1.3                    !
 ! D9    D(4,1,5,8)             -0.0318                  1.5                    !
 ! D10   D(1,5,8,9)              0.1336                  6.1                    !
 ! D11   D(1,5,8,10)             0.1335                  6.1                    !
 ! D12   D(1,5,8,11)             0.2396                 10.9                    !
 ! D13   D(6,5,8,9)              0.0275                  1.3                    !
 ! D14   D(6,5,8,10)             0.0275                  1.3                    !
 ! D15   D(6,5,8,11)             0.1335                  6.1                    !
 ! D16   D(7,5,8,9)              0.0276                  1.3                    !
 ! D17   D(7,5,8,10)             0.0275                  1.3                    !
 ! D18   D(7,5,8,11)             0.1336                  6.1                    !
 ! D19   D(5,8,11,12)           -0.0319                  1.5                    !
 ! D20   D(5,8,11,13)           -0.0586                  2.7                    !
 ! D21   D(5,8,11,14)           -0.0317                  1.4                    !
 ! D22   D(9,8,11,12)            0.0291                  1.3                    !
 ! D24   D(9,8,11,14)            0.0293                  1.3                    !
 ! D25   D(10,8,11,12)           0.029                   1.3                    !
 ! D27   D(10,8,11,14)           0.0292                  1.3                    !
 --------------------------------------------------------------------------------
                           ----------------------------
                           ! Normal Mode     6        !
 --------------------------                            --------------------------
 ! Name  Definition              Value          Relative Weight (%)             !
 --------------------------------------------------------------------------------
 ! R1    R(1,2)                 -0.0303                  1.0                    !
 ! R2    R(1,3)                  0.0257                  0.9                    !
 ! R3    R(1,4)                  0.0258                  0.9                    !
 ! R4    R(1,5)                  0.2583                  8.6                    !
 ! R5    R(5,6)                  0.0639                  2.1                    !
 ! R6    R(5,7)                  0.0638                  2.1                    !
 ! R7    R(5,8)                  0.1869                  6.2                    !
 ! R8    R(8,9)                  0.0639                  2.1                    !
 ! R9    R(8,10)                 0.0638                  2.1                    !
 ! R10   R(8,11)                 0.2583                  8.6                    !
 ! R11   R(11,12)                0.026                   0.9                    !
 ! R12   R(11,13)               -0.0303                  1.0                    !
 ! R13   R(11,14)                0.0255                  0.8                    !
 ! A3    A(2,1,5)                0.0575                  1.9                    !
 ! A5    A(3,1,5)               -0.0205                  0.7                    !
 ! A6    A(4,1,5)               -0.0206                  0.7                    !
 ! A7    A(1,5,6)                0.0818                  2.7                    !
 ! A8    A(1,5,7)                0.0817                  2.7                    !
 ! A9    A(1,5,8)               -0.2484                  8.2                    !
 ! A10   A(6,5,7)               -0.0344                  1.1                    !
 ! A11   A(6,5,8)                0.0597                  2.0                    !
 ! A12   A(7,5,8)                0.0596                  2.0                    !
 ! A13   A(5,8,9)                0.0595                  2.0                    !
 ! A14   A(5,8,10)               0.0598                  2.0                    !
 ! A15   A(5,8,11)              -0.2484                  8.2                    !
 ! A16   A(9,8,10)              -0.0344                  1.1                    !
 ! A17   A(9,8,11)               0.0819                  2.7                    !
 ! A18   A(10,8,11)              0.0816                  2.7                    !
 ! A19   A(8,11,12)             -0.0202                  0.7                    !
 ! A20   A(8,11,13)              0.0575                  1.9                    !
 ! A21   A(8,11,14)             -0.0208                  0.7                    !
 ! D1    D(2,1,5,6)              0.029                   1.0                    !
 ! D2    D(2,1,5,7)             -0.029                   1.0                    !
[...]
    R5        2.02201   0.00004   0.00000   0.04311   0.04311   2.06511
    R6        2.02201   0.00004   0.00000   0.04311   0.04311   2.06511
    R7        2.91018  -0.00002   0.00000  -0.02305  -0.02305   2.88712
    R8        2.02201   0.00004   0.00000   0.04311   0.04311   2.06511
    R9        2.02201   0.00004   0.00000   0.04311   0.04311   2.06511
   R10        2.91018  -0.00002   0.00000  -0.02305  -0.02305   2.88712
   R11        2.02201   0.00004   0.00000   0.04311   0.04311   2.06511
   R12        2.02201   0.00004   0.00000   0.04311   0.04311   2.06511
   R13        2.02201   0.00004   0.00000   0.04311   0.04311   2.06511
    A1        1.91063  -0.00008   0.00000  -0.02628  -0.02662   1.88402
    A2        1.91063  -0.00008   0.00000  -0.02628  -0.02662   1.88402
    A3        1.91063   0.00008   0.00000   0.02628   0.02592   1.93655
    A4        1.91063  -0.00008   0.00000  -0.02628  -0.02662   1.88402
    A5        1.91063   0.00008   0.00000   0.02628   0.02592   1.93655
    A6        1.91063   0.00008   0.00000   0.02628   0.02592   1.93655
    A7        1.91063  -0.00002   0.00000  -0.00515  -0.00528   1.90535
    A8        1.91063  -0.00002   0.00000  -0.00515  -0.00528   1.90535
    A9        1.91063   0.00011   0.00000   0.03813   0.03800   1.94863
   A10        1.91063  -0.00003   0.00000  -0.01753  -0.01765   1.89298
   A11        1.91063  -0.00002   0.00000  -0.00515  -0.00528   1.90535
   A12        1.91063  -0.00002   0.00000  -0.00515  -0.00528   1.90535
   A13        1.91063  -0.00002   0.00000  -0.00515  -0.00528   1.90535
   A14        1.91063  -0.00002   0.00000  -0.00515  -0.00528   1.90535
   A15        1.91063   0.00011   0.00000   0.03813   0.03800   1.94863
   A16        1.91063  -0.00003   0.00000  -0.01753  -0.01765   1.89298
   A17        1.91063  -0.00002   0.00000  -0.00515  -0.00528   1.90535
   A18        1.91063  -0.00002   0.00000  -0.00515  -0.00528   1.90535
   A19        1.91063   0.00008   0.00000   0.02628   0.02592   1.93655
   A20        1.91063   0.00008   0.00000   0.02628   0.02592   1.93655
   A21        1.91063   0.00008   0.00000   0.02628   0.02592   1.93655
   A22        1.91063  -0.00008   0.00000  -0.02628  -0.02662   1.88402
   A23        1.91063  -0.00008   0.00000  -0.02628  -0.02662   1.88402
   A24        1.91063  -0.00008   0.00000  -0.02628  -0.02662   1.88402
    D1        1.04720  -0.00003   0.00000  -0.01389  -0.01389   1.03331
    D2       -1.04720   0.00003   0.00000   0.01389   0.01389  -1.03331
    D3        3.14159   0.00000   0.00000   0.00000   0.00000   3.14159
    D4       -1.04720  -0.00003   0.00000  -0.01389  -0.01389  -1.06109
    D5        3.14159   0.00003   0.00000   0.01389   0.01389  -3.12770
    D6        1.04720   0.00000   0.00000   0.00000   0.00000   1.04720
    D7        3.14159  -0.00003   0.00000  -0.01389  -0.01389   3.12770
    D8        1.04720   0.00003   0.00000   0.01389   0.01389   1.06109
    D9       -1.04720   0.00000   0.00000   0.00000   0.00000  -1.04720
   D10       -1.04720   0.00003   0.00000   0.01389   0.01389  -1.03331
   D11        1.04720  -0.00003   0.00000  -0.01389  -0.01389   1.03331
   D12        3.14159   0.00000   0.00000   0.00000   0.00000  -3.14159
   D13        1.04719   0.00006   0.00000   0.02778   0.02779   1.07498
   D14        3.14159   0.00000   0.00000   0.00000   0.00000   3.14159
   D15       -1.04720   0.00003   0.00000   0.01389   0.01389  -1.03331
   D16        3.14159   0.00000   0.00000   0.00000   0.00000   3.14159
   D17       -1.04720  -0.00006   0.00000  -0.02778  -0.02778  -1.07498
   D18        1.04719  -0.00003   0.00000  -0.01389  -0.01389   1.03331
   D19        1.04526   0.00000   0.00000   0.00193   0.00193   1.04720
   D20        3.13966   0.00000   0.00000   0.00193   0.00193  -3.14159
   D21       -1.04913   0.00000   0.00000   0.00193   0.00193  -1.04720
   D22       -1.04913  -0.00003   0.00000  -0.01196  -0.01196  -1.06109
   D23        1.04526  -0.00003   0.00000  -0.01196  -0.01196   1.03331
   D24        3.13966  -0.00003   0.00000  -0.01196  -0.01196   3.12770
   D25        3.13966   0.00003   0.00000   0.01582   0.01583  -3.12770
   D26       -1.04913   0.00003   0.00000   0.01582   0.01583  -1.03331
   D27        1.04526   0.00003   0.00000   0.01582   0.01583   1.06109
         Item               Value     Threshold  Converged?
 Maximum Force            0.000106     0.000450     YES
 RMS     Force            0.000048     0.000300     YES
 Maximum Displacement     0.073969     0.001800     NO 
 RMS     Displacement     0.026782     0.001200     NO 
 Predicted change in Energy=-3.174900D-05
                           ----------------------------
                           ! Non-Optimized Parameters !
                           ! (Angstroms and Degrees)  !
 --------------------------                            --------------------------
 ! Name  Definition              Value          Derivative Info.                !
 --------------------------------------------------------------------------------
 ! R1    R(1,2)                  1.0928         -DE/DX =    0.0                 !
 ! R2    R(1,3)                  1.0928         -DE/DX =    0.0                 !
 ! R3    R(1,4)                  1.0928         -DE/DX =    0.0                 !
 ! R4    R(1,5)                  1.5278         -DE/DX =    0.0                 !
 ! R5    R(5,6)                  1.0928         -DE/DX =    0.0                 !
 ! R6    R(5,7)                  1.0928         -DE/DX =    0.0                 !
 ! R7    R(5,8)                  1.5278         -DE/DX =    0.0                 !
 ! R8    R(8,9)                  1.0928         -DE/DX =    0.0                 !
 ! R9    R(8,10)                 1.0928         -DE/DX =    0.0                 !
 ! R10   R(8,11)                 1.5278         -DE/DX =    0.0                 !
 ! R11   R(11,12)                1.0928         -DE/DX =    0.0                 !
 ! R12   R(11,13)                1.0928         -DE/DX =    0.0                 !
 ! R13   R(11,14)                1.0928         -DE/DX =    0.0                 !
 ! A1    A(2,1,3)              107.9462         -DE/DX =   -0.0001              !
 ! A2    A(2,1,4)              107.9462         -DE/DX =   -0.0001              !
 ! A3    A(2,1,5)              110.9563         -DE/DX =    0.0001              !
 ! A4    A(3,1,4)              107.9462         -DE/DX =   -0.0001              !
 ! A5    A(3,1,5)              110.9563         -DE/DX =    0.0001              !
 ! A6    A(4,1,5)              110.9563         -DE/DX =    0.0001              !
 ! A7    A(1,5,6)              109.1688         -DE/DX =    0.0                 !
 ! A8    A(1,5,7)              109.1688         -DE/DX =    0.0                 !
 ! A9    A(1,5,8)              111.6485         -DE/DX =    0.0001              !
 ! A10   A(6,5,7)              108.46           -DE/DX =    0.0                 !
 ! A11   A(6,5,8)              109.1688         -DE/DX =    0.0                 !
 ! A12   A(7,5,8)              109.1688         -DE/DX =    0.0                 !
 ! A13   A(5,8,9)              109.1688         -DE/DX =    0.0                 !
 ! A14   A(5,8,10)             109.1688         -DE/DX =    0.0                 !
 ! A15   A(5,8,11)             111.6485         -DE/DX =    0.0001              !
 ! A16   A(9,8,10)             108.46           -DE/DX =    0.0                 !
 ! A17   A(9,8,11)             109.1688         -DE/DX =    0.0                 !
 ! A18   A(10,8,11)            109.1688         -DE/DX =    0.0                 !
 ! A19   A(8,11,12)            110.9563         -DE/DX =    0.0001              !
 ! A20   A(8,11,13)            110.9563         -DE/DX =    0.0001              !
 ! A21   A(8,11,14)            110.9563         -DE/DX =    0.0001              !
 ! A22   A(12,11,13)           107.9462         -DE/DX =   -0.0001              !
 ! A23   A(12,11,14)           107.9462         -DE/DX =   -0.0001              !
 ! A24   A(13,11,14)           107.9462         -DE/DX =   -0.0001              !
 ! D1    D(2,1,5,6)             59.2041         -DE/DX =    0.0                 !
 ! D2    D(2,1,5,7)            -59.2041         -DE/DX =    0.0                 !
 ! D3    D(2,1,5,8)            180.0            -DE/DX =    0.0                 !
 ! D4    D(3,1,5,6)            -60.7959         -DE/DX =    0.0                 !
 ! D5    D(3,1,5,7)           -179.2041         -DE/DX =    0.0                 !
 ! D6    D(3,1,5,8)             60.0            -DE/DX =    0.0                 !
 ! D7    D(4,1,5,6)            179.2041         -DE/DX =    0.0                 !
 ! D8    D(4,1,5,7)             60.7959         -DE/DX =    0.0                 !
 ! D9    D(4,1,5,8)            -60.0            -DE/DX =    0.0                 !
 ! D10   D(1,5,8,9)            -59.2041         -DE/DX =    0.0                 !
 ! D11   D(1,5,8,10)            59.2041         -DE/DX =    0.0                 !
 ! D12   D(1,5,8,11)          -180.0            -DE/DX =    0.0                 !
 ! D13   D(6,5,8,9)             61.5918         -DE/DX =    0.0001              !
 ! D14   D(6,5,8,10)           180.0            -DE/DX =    0.0                 !
 ! D15   D(6,5,8,11)           -59.2041         -DE/DX =    0.0                 !
 ! D16   D(7,5,8,9)            180.0            -DE/DX =    0.0                 !
 ! D17   D(7,5,8,10)           -61.5918         -DE/DX =   -0.0001              !
 ! D18   D(7,5,8,11)            59.2041         -DE/DX =    0.0                 !
 ! D19   D(5,8,11,12)           60.0            -DE/DX =    0.0                 !
 ! D20   D(5,8,11,13)         -180.0            -DE/DX =    0.0                 !
 ! D21   D(5,8,11,14)          -60.0            -DE/DX =    0.0                 !
 ! D22   D(9,8,11,12)          -60.7959         -DE/DX =    0.0                 !
 ! D23   D(9,8,11,13)           59.2041         -DE/DX =    0.0                 !
 ! D24   D(9,8,11,14)          179.2041         -DE/DX =    0.0                 !
 ! D25   D(10,8,11,12)        -179.2041         -DE/DX =    0.0                 !
 ! D26   D(10,8,11,13)         -59.2041         -DE/DX =    0.0                 !
 ! D27   D(10,8,11,14)          60.7959         -DE/DX =    0.0                 !
 --------------------------------------------------------------------------------
 GradGradGradGradGradGradGradGradGradGradGradGradGradGradGradGradGradGrad

 Leave Link  103 at Fri Jul 15 15:11:12 2022, MaxMem=    65536000 cpu:               0.0 elap:               0.0
 (Enter /home/emanuele/chemical_software//g16/l9999.exe)
 Unable to Open any file for archive entry.
 1\1\GINC-COOLER-MASTER-U2\Freq\AMBER\ZDO\C4H10\EMANUELE\15-Jul-2022\0\
 \#P Amber=(Print,Softonly) Geom=Connectivity Freq=intmodes\\Title C-CT
 ard Required\\0,1\C,-2.4946723,0.37114711,0.\H,-2.13801788,-0.63766289
 ,0.\H,-2.13799946,0.8755453,-0.8736515\H,-3.5646723,0.37116029,0.\C,-1
 .98133008,1.09710338,1.25740497\H,-0.91133008,1.09708854,1.25740559\H,
 -2.33800421,0.59270574,2.13105626\C,-2.49464403,2.54903616,1.25740389\
 H,-2.13796688,3.05343458,0.38375428\H,-3.56464403,2.54905141,1.2574005
 \C,-1.9813044,3.27499042,2.51481107\H,-0.91130621,3.27328526,2.5157905
 3\H,-2.33636276,4.28436281,2.51383567\H,-2.33957337,2.77171975,3.38845
 974\\Version=ES64L-G16RevC.01\HF=0.0000472\RMSD=0.000e+00\RMSF=1.099e-
 04\ZeroPoint=0.0153741\Thermal=0.0395536\ETot=0.0396008\HTot=0.040545\
 GTot=-0.0327097\Dipole=0.,0.,0.\PG=C01 [X(C4H10)]\NImag=0\\0.00819211,
 -0.00030224,0.00751891,-0.00106030,-0.00119539,0.00631294,-0.00246020,
 -0.00068658,0.00072753,0.00198085,-0.00057442,-0.00114238,0.00022014,0
 .00040496,0.00104281,0.00079228,0.00003699,-0.00183330,-0.00055453,-0.
 00015897,0.00146628,-0.00246016,0.00097336,-0.00023085,0.00015128,0.00
 005348,-0.00033169,0.00198083,0.00097336,-0.00177194,-0.00032646,-0.00
 031400,-0.00011101,0.00055784,-0.00068272,0.00149811,-0.00010134,-0.00
 014331,-0.00120377,-0.00011953,-0.00004226,0.00018666,0.00007345,0.000
 10387,0.00101101,-0.00089251,-0.00002020,-0.00003495,0.,0.,0.,0.,0.,0.
 ,0.00089251,-0.00013236,-0.00271007,0.00075930,0.00073497,0.00025984,0
 .,-0.00036748,0.00004027,-0.00012678,0.00002020,0.00213116,-0.00022921
 ,0.00075930,-0.00183330,0.,0.,-0.00003293,0.00063650,-0.00012678,0.000
 18666,0.00003495,-0.00057580,0.00146628,-0.00309127,0.00005395,0.00087
 870,0.00041727,0.00014752,0.00003930,0.00023884,0.00008645,0.00014742,
 0.,-0.00034996,-0.00038761,0.00969438,0.00013188,-0.00250316,0.0008545
 3,-0.00010781,-0.00003811,-0.00045518,-0.00000818,0.00036688,0.0002084
 7,0.,0.00024534,-0.00003740,0.00016293,0.00771713,0.00092368,0.0007272
 8,-0.00168204,-0.00010811,-0.00003822,0.00024675,-0.00009278,-0.000247
 11,-0.00018055,0.,0.00000123,0.00017984,-0.00027298,-0.00100768,0.0088
 9303,0.,0.,0.,0.,0.,0.,0.,0.,0.,0.,0.,0.,-0.00089251,0.00002016,-0.000
 03495,0.00089251,-0.00025533,0.00027879,-0.00005672,-0.00031007,-0.000
 10962,0.00018987,0.00031006,-0.00021925,0.,0.,0.00032887,-0.00018987,0
 .00013231,-0.00263076,0.00075930,-0.00002016,0.00213116,-0.00044224,-0
 .00005672,0.00021329,0.00017902,0.00006329,-0.00010962,-0.00017901,0.0
 0012659,0.,0.,-0.00018988,0.00010962,-0.00022920,0.00075930,-0.0035075
 3,0.00003495,-0.00057580,0.00279604,0.00032806,0.00002336,-0.00014742,
 -0.00029233,-0.00010335,0.00017901,0.00029233,-0.00020671,0.,0.,0.0003
 1006,-0.00017901,-0.00351077,0.00059521,-0.00103090,0.,-0.00036748,0.0
 0063650,0.00285466,0.00002336,0.00034457,-0.00020847,0.00020671,0.0000
 7308,-0.00012659,-0.00020671,0.00014617,0.,0.,-0.00021925,0.00012659,0
 .00048305,-0.00197621,-0.00037443,0.,0.00004027,-0.00012678,-0.0003670
 6,0.00164063,0.00014742,0.00020847,-0.00018055,0.,0.,0.,0.,0.,0.,0.,0.
 ,0.,-0.00083664,-0.00037443,-0.00154382,0.,-0.00012678,0.00018666,0.00
 063575,0.00027383,0.00132442,0.00044597,-0.00001973,-0.00017068,0.0002
 0312,0.00007181,-0.00012438,-0.00020311,0.00014363,0.,0.,-0.00021544,0
 .00012438,-0.00354013,-0.00103607,0.00072436,0.,0.00051066,0.00010927,
 0.00023884,-0.00017089,-0.00000116,0.00969686,0.00015767,-0.00000698,-
 0.00006034,0.00007181,0.00002539,-0.00004397,-0.00007181,0.00005078,0.
 ,0.,-0.00007616,0.00004397,-0.00103640,-0.00129428,0.00007498,0.,0.000
 18054,0.00003863,0.00008444,-0.00006042,-0.00000041,0.00016161,0.00771
 584,-0.00006826,-0.00035004,0.00022996,-0.00012438,-0.00004397,0.00007
 617,0.00012438,-0.00008795,0.,0.,0.00013193,-0.00007617,0.00072339,0.0
 0007443,-0.00312761,0.,0.,0.00024463,-0.00003930,0.00045517,0.00024675
 ,-0.00027272,-0.00100621,0.00889177,-0.00020311,-0.00007181,0.00012438
 ,0.,0.,0.,0.,0.,0.,0.,0.,0.,0.00023884,0.00008444,-0.00003930,0.,0.,-0
 .00035803,0.00029233,0.00010335,0.00017902,-0.00351360,0.00059467,-0.0
 0102943,0.00285659,-0.00007181,-0.00002539,0.00004397,0.,0.,0.,0.,0.,0
 .,0.,0.,0.,-0.00017089,-0.00006042,0.00045518,0.,0.,-0.00012658,0.0001
 0335,0.00003654,0.00006329,0.00048155,-0.00197333,-0.00037547,-0.00036
 636,0.00163866,-0.00012438,-0.00004397,0.00007617,0.,0.,0.,0.,0.,0.,0.
 ,0.,0.,-0.00000116,-0.00000041,0.00024675,0.,0.,-0.00021925,0.00017902
 ,0.00006329,0.00010963,-0.00083628,-0.00037469,-0.00154384,0.00063456,
 0.00027467,0.00132443,0.,0.,0.,0.,0.,0.,0.,0.,0.,0.,0.,0.,0.,0.,0.,0.,
 0.,0.,0.,0.,0.,-0.00089250,0.00002223,-0.00003613,0.,0.,0.,0.00089251,
 0.,0.,0.,0.,0.,0.,0.,0.,0.,0.,0.,0.,0.00051066,0.00018054,0.,0.,0.,0.,
 0.,0.,0.,0.00013487,-0.00263233,0.00075917,-0.00036748,0.00004027,-0.0
 0012678,-0.00002224,0.00213188,0.00024876,0.00008795,-0.00015233,0.,0.
 ,0.,0.,0.,0.,0.,0.,0.,0.00010927,0.00003863,0.00024463,0.,0.,0.0004385
 0,-0.00035803,-0.00012658,-0.00021925,-0.00023067,0.00075759,-0.003505
 94,0.00063650,-0.00012679,0.00018666,0.00003614,-0.00057537,0.00279530
 ,0.00014113,0.00004989,-0.00008642,0.,0.,0.,0.,0.,0.,0.,0.,0.,0.000445
 34,0.00015745,-0.00006903,0.,0.,0.00024876,-0.00020312,-0.00007181,-0.
 00012438,-0.00309154,0.00013177,0.00092334,0.00032896,0.00002416,0.000
 14825,0.,-0.00025581,-0.00044197,0.00819207,0.00004989,0.00001764,-0.0
 0003055,0.,0.,0.,0.,0.,0.,0.,0.,0.,-0.00001963,-0.00000694,-0.00035052
 ,0.,0.,0.00008795,-0.00007181,-0.00002539,-0.00004397,0.00005399,-0.00
 250313,0.00072705,0.00002320,0.00034366,0.00020788,0.,0.00027964,-0.00
 005544,-0.00030223,0.00751887,-0.00008642,-0.00003055,0.00005292,0.,0.
 ,0.,0.,0.,0.,0.,0.,0.,-0.00017048,-0.00006027,0.00023055,0.,0.,-0.0001
 5233,0.00012438,0.00004397,0.00007617,0.00087877,0.00085455,-0.0016817
 6,-0.00014769,-0.00020828,-0.00018055,0.,-0.00005702,0.00021244,-0.001
 06028,-0.00119537,0.00631291,0.,0.,0.,0.,0.,0.,0.,0.,0.,0.,0.,0.,-0.00
 000046,-0.00000016,0.00000028,0.,0.,0.,0.,0.,0.,-0.00000020,0.00000042
 ,-0.00000016,0.00000066,-0.00000047,0.,0.,0.00000070,-0.00000040,-0.00
 089253,-0.00002587,-0.00003167,0.00089252,0.,0.,0.,0.,0.,0.,0.,0.,0.,0
 .,0.,0.,-0.00021535,-0.00007613,0.00013187,0.,0.,0.,0.,0.,0.,-0.000349
 23,0.00024483,0.00000123,0.00030994,-0.00021917,0.,0.,0.00032874,-0.00
 018980,-0.00013863,-0.00270723,0.00075991,0.00002478,0.00212959,0.,0.,
 0.,0.,0.,0.,0.,0.,0.,0.,0.,0.,0.00012452,0.00004402,-0.00007625,0.,0.,
 0.,0.,0.,0.,-0.00038795,-0.00003800,0.00018032,-0.00017921,0.00012672,
 0.,0.,-0.00019008,0.00010974,-0.00022557,0.00076189,-0.00183609,0.0000
 3230,-0.00057668,0.00146781,0.,0.,0.,0.,0.,0.,0.,0.,0.,0.,0.,0.,0.0002
 0334,0.00007189,-0.00012452,0.,0.,0.,0.,0.,0.,0.00041820,-0.00010817,-
 0.00010828,-0.00029265,0.00020694,0.,0.,-0.00031041,0.00017921,-0.0024
 6642,-0.00068249,0.00072800,0.00000117,0.00073538,-0.00000044,0.001985
 09,0.,0.,0.,0.,0.,0.,0.,0.,0.,0.,0.,0.,0.00007141,0.00002525,-0.000043
 73,0.,0.,0.,0.,0.,0.,0.00014715,-0.00003849,-0.00003785,-0.00010277,0.
 00007267,0.,0.,-0.00010901,0.00006293,-0.00057095,-0.00113894,0.000216
 84,0.00000041,0.00025868,-0.00000019,0.00040186,0.00104011,0.,0.,0.,0.
 ,0.,0.,0.,0.,0.,0.,0.,0.,-0.00012424,-0.00004392,0.00007608,0.,0.,0.,0
 .,0.,0.,0.00003982,-0.00045457,0.00024619,0.00017881,-0.00012644,0.,0.
 ,0.00018966,-0.00010950,0.00079100,0.00003270,-0.00183048,0.00000003,0
 .00000048,-0.00003293,-0.00055455,-0.00015618,0.00146472,0.,0.,0.,0.,0
 .,0.,0.,0.,0.,0.,0.,0.,-0.00020288,-0.00007173,0.00012424,0.,0.,0.,0.,
 0.,0.,0.00023810,-0.00000824,-0.00009245,0.00029199,-0.00020648,0.,0.,
 0.00030971,-0.00017881,-0.00245389,0.00097494,-0.00023461,-0.00000117,
 -0.00036689,0.00063636,0.00015128,0.00005289,-0.00033087,0.00197655,0.
 ,0.,0.,0.,0.,0.,0.,0.,0.,0.,0.,0.,0.00014394,0.00005089,-0.00008815,0.
 ,0.,0.,0.,0.,0.,0.00008610,0.00036776,-0.00024747,-0.00020717,0.000146
 50,0.,0.,-0.00021974,0.00012687,0.00097615,-0.00177818,-0.00032378,0.0
 0000018,0.00004069,-0.00012770,-0.00031500,-0.00011027,0.00055827,-0.0
 0068420,0.00150235,0.,0.,0.,0.,0.,0.,0.,0.,0.,0.,0.,0.,-0.00000028,-0.
 00000010,0.00000017,0.,0.,0.,0.,0.,0.,0.00014724,0.00020847,-0.0001804
 7,0.00000040,-0.00000028,0.,0.,0.00000042,-0.00000025,-0.00010370,-0.0
 0014163,-0.00120378,-0.00000037,-0.00012702,0.00018740,-0.00011942,-0.
 00004183,0.00018591,0.00007614,0.00010196,0.00101101\\-0.00012559,-0.0
 0008548,-0.00025442,0.00002566,0.00004988,0.00007068,0.00002565,0.0000
 3628,0.00007853,0.00003847,0.00004080,0.00007068,0.00020592,-0.0001119
 8,0.00026488,-0.00003847,0.00004080,-0.00007069,-0.00006412,0.00003174
 ,-0.00005497,-0.00020196,0.00011338,-0.00026730,0.00006017,-0.00002894
 ,0.00005498,0.00003847,-0.00004501,0.00007310,0.00012558,0.00008548,0.
 00025443,-0.00003848,-0.00004499,-0.00006826,-0.00002170,-0.00004849,-
 0.00007310,-0.00002959,-0.00003348,-0.00007854\\\@
 The archive entry for this job was punched.


 Experience is what you get when you don't get what you want.
 -- Dan Stanford
 Job cpu time:       0 days  0 hours  0 minutes  0.3 seconds.
 Elapsed time:       0 days  0 hours  0 minutes  0.3 seconds.
 File lengths (MBytes):  RWF=      6 Int=      0 D2E=      0 Chk=      1 Scr=      1
 Normal termination of Gaussian 16 at Fri Jul 15 15:11:12 2022.
