 Entering Gaussian System, Link 0=g16
 Input=qm.gjf
 Output=qm.log
 Initial command:
 /home/emanuele/chemical_software//g16/l1.exe "/home/emanuele/chemical_software/scratch/Gau-367081.inp" -scrdir="/home/emanuele/chemical_software/scratch/"
 Entering Link 1 = /home/emanuele/chemical_software//g16/l1.exe PID=    367083.
  
 Copyright (c) 1988-2019, Gaussian, Inc.  All Rights Reserved.
  
 This is part of the Gaussian(R) 16 program.  It is based on
 the Gaussian(R) 09 system (copyright 2009, Gaussian, Inc.),
 the Gaussian(R) 03 system (copyright 2003, Gaussian, Inc.),
 the Gaussian(R) 98 system (copyright 1998, Gaussian, Inc.),
 the Gaussian(R) 94 system (copyright 1995, Gaussian, Inc.),
 the Gaussian 92(TM) system (copyright 1992, Gaussian, Inc.),
 the Gaussian 90(TM) system (copyright 1990, Gaussian, Inc.),
 the Gaussian 88(TM) system (copyright 1988, Gaussian, Inc.),
 the Gaussian 86(TM) system (copyright 1986, Carnegie Mellon
 University), and the Gaussian 82(TM) system (copyright 1983,
 Carnegie Mellon University). Gaussian is a federally registered
 trademark of Gaussian, Inc.
  
 This software contains proprietary and confidential information,
 including trade secrets, belonging to Gaussian, Inc.
  
 This software is provided under written license and may be
 used, copied, transmitted, or stored only in accord with that
 written license.
  
 The following legend is applicable only to US Government
 contracts under FAR:
  
                    RESTRICTED RIGHTS LEGEND
  
 Use, reproduction and disclosure by the US Government is
 subject to restrictions as set forth in subparagraphs (a)
 and (c) of the Commercial Computer Software - Restricted
 Rights clause in FAR 52.227-19.
  
 Gaussian, Inc.
 340 Quinnipiac St., Bldg. 40, Wallingford CT 06492
  
  
 ---------------------------------------------------------------
 Warning -- This program may not be used in any manner that
 competes with the business of Gaussian, Inc. or will provide
 assistance to any competitor of Gaussian, Inc.  The licensee
 of this program is prohibited from giving any competitor of
 Gaussian, Inc. access to this program.  By using this program,
 the user acknowledges that Gaussian, Inc. is engaged in the
 business of creating and licensing software in the field of
 computational chemistry and represents and warrants to the
 licensee that it is not a competitor of Gaussian, Inc. and that
 it will not use this program in any manner prohibited above.
 ---------------------------------------------------------------
  

 Cite this work as:
 Gaussian 16, Revision C.01,
 M. J. Frisch, G. W. Trucks, H. B. Schlegel, G. E. Scuseria, 
 M. A. Robb, J. R. Cheeseman, G. Scalmani, V. Barone, 
 G. A. Petersson, H. Nakatsuji, X. Li, M. Caricato, A. V. Marenich, 
 J. Bloino, B. G. Janesko, R. Gomperts, B. Mennucci, H. P. Hratchian, 
 J. V. Ortiz, A. F. Izmaylov, J. L. Sonnenberg, D. Williams-Young, 
 F. Ding, F. Lipparini, F. Egidi, J. Goings, B. Peng, A. Petrone, 
 T. Henderson, D. Ranasinghe, V. G. Zakrzewski, J. Gao, N. Rega, 
 G. Zheng, W. Liang, M. Hada, M. Ehara, K. Toyota, R. Fukuda, 
 J. Hasegawa, M. Ishida, T. Nakajima, Y. Honda, O. Kitao, H. Nakai, 
 T. Vreven, K. Throssell, J. A. Montgomery, Jr., J. E. Peralta, 
 F. Ogliaro, M. J. Bearpark, J. J. Heyd, E. N. Brothers, K. N. Kudin, 
 V. N. Staroverov, T. A. Keith, R. Kobayashi, J. Normand, 
 K. Raghavachari, A. P. Rendell, J. C. Burant, S. S. Iyengar, 
 J. Tomasi, M. Cossi, J. M. Millam, M. Klene, C. Adamo, R. Cammi, 
 J. W. Ochterski, R. L. Martin, K. Morokuma, O. Farkas, 
 J. B. Foresman, and D. J. Fox, Gaussian, Inc., Wallingford CT, 2019.
 
 ******************************************
 Gaussian 16:  ES64L-G16RevC.01  3-Jul-2019
                 9-May-2022 
 ******************************************
 %nprocs=8
 Will use up to    8 processors via shared memory.
 %chk=qm.chk
 ----------------------------------------------------------------------
 #p opt=(calcall,tight,maxstep=7,maxcycles=100) freq=hinderedrotor b3ly
 p geom=connectivity def2tzvpp
 ----------------------------------------------------------------------
 1/6=100,7=10,8=7,10=4,18=20,19=15,26=3,38=1,57=2/1,3;
 2/9=110,12=2,17=6,18=5,40=1/2;
 3/5=44,7=202,11=2,25=1,30=1,71=2,74=-5,140=1/1,2,3;
 4//1;
 5/5=2,38=5/2;
 8/6=4,10=90,11=11/1;
 11/6=1,8=1,9=11,15=111,16=1/1,2,10;
 10/6=1/2;
 6/7=2,8=2,9=2,10=2,18=1,28=1/1;
 7/10=1,25=1/1,2,3,16;
 1/6=100,7=10,8=7,10=4,18=20,19=15,26=3/3(3);
 2/9=110/2;
 7/8=2001,9=1,25=1,44=-1/16;
 99//99;
 2/9=110/2;
 3/5=44,7=202,11=2,25=1,30=1,71=2,74=-5,140=1/1,2,3;
 4/5=5,16=3,69=1/1;
 5/5=2,38=5/2;
 8/6=4,10=90,11=11/1;
 11/6=1,8=1,9=11,15=111,16=1/1,2,10;
 10/6=1/2;
 7/10=1,25=1/1,2,3,16;
 1/6=100,7=10,8=7,10=4,18=20,19=15,26=3/3(-8);
 2/9=110/2;
 6/7=2,8=2,9=2,10=2,18=1,19=2,28=1/1;
 7/8=2001,9=1,25=1,44=-1/16;
 99//99;
 Leave Link    1 at Mon May  9 17:10:46 2022, MaxMem=           0 cpu:               0.4 elap:               0.1
 (Enter /home/emanuele/chemical_software//g16/l101.exe)
 -------------------
 Title Card Required
 -------------------
 Symbolic Z-matrix:
 Charge =  0 Multiplicity = 1
 O-OW                  5.10894   2.31094   0. 
 H-HW                  4.78885   3.216     0. 
 O-OW                  6.42894   2.31107   0. 
 H-HW                  6.74885   3.2162    0. 
 
 ITRead=  0  0  0  0
 MicOpt= -1 -1 -1 -1
 NAtoms=      4 NQM=        4 NQMF=       0 NMMI=      0 NMMIF=      0
                NMic=       0 NMicF=      0.
                    Isotopes and Nuclear Properties:
 (Nuclear quadrupole moments (NQMom) in fm**2, nuclear magnetic moments (NMagM)
  in nuclear magnetons)

  Atom         1           2           3           4
 IAtWgt=          16           1          16           1
 AtmWgt=  15.9949146   1.0078250  15.9949146   1.0078250
 NucSpn=           0           1           0           1
 AtZEff=  -0.0000000  -0.0000000  -0.0000000  -0.0000000
 NQMom=    0.0000000   0.0000000   0.0000000   0.0000000
 NMagM=    0.0000000   2.7928460   0.0000000   2.7928460
 AtZNuc=   8.0000000   1.0000000   8.0000000   1.0000000
 Leave Link  101 at Mon May  9 17:10:47 2022, MaxMem=   104857600 cpu:               1.2 elap:               0.2
 (Enter /home/emanuele/chemical_software//g16/l103.exe)

 GradGradGradGradGradGradGradGradGradGradGradGradGradGradGradGradGradGrad
 Berny optimization.
 Initialization pass.
                           ----------------------------
                           !    Initial Parameters    !
                           ! (Angstroms and Degrees)  !
 --------------------------                            --------------------------
 ! Name  Definition              Value          Derivative Info.                !
 --------------------------------------------------------------------------------
 ! R1    R(1,2)                  0.96           calculate D2E/DX2 analytically  !
 ! R2    R(1,3)                  1.32           calculate D2E/DX2 analytically  !
 ! R3    R(3,4)                  0.96           calculate D2E/DX2 analytically  !
 ! A1    A(2,1,3)              109.4712         calculate D2E/DX2 analytically  !
 ! A2    A(1,3,4)              109.4712         calculate D2E/DX2 analytically  !
 ! D1    D(2,1,3,4)              0.0            calculate D2E/DX2 analytically  !
 --------------------------------------------------------------------------------
 Trust Radius=7.00D-02 FncErr=1.00D-07 GrdErr=1.00D-06 EigMax=2.50D+02 EigMin=1.00D-04
 Number of steps in this run=    100 maximum allowed number of steps=    100.
 GradGradGradGradGradGradGradGradGradGradGradGradGradGradGradGradGradGrad

 Leave Link  103 at Mon May  9 17:10:47 2022, MaxMem=   104857600 cpu:               0.0 elap:               0.0
 (Enter /home/emanuele/chemical_software//g16/l202.exe)
                          Input orientation:                          
 ---------------------------------------------------------------------
 Center     Atomic      Atomic             Coordinates (Angstroms)
 Number     Number       Type             X           Y           Z
 ---------------------------------------------------------------------
      1          8    20001021        5.108943    2.310940    0.000000
      2          1    20001030        4.788852    3.216004    0.000000
      3          8    20001021        6.428943    2.311073    0.000000
      4          1    20001030        6.748852    3.216201    0.000000
 ---------------------------------------------------------------------
                    Distance matrix (angstroms):
                    1          2          3          4
     1  O    0.000000
     2  H    0.960000   0.000000
     3  O    1.320000   1.873179   0.000000
     4  H    1.873179   1.960000   0.960000   0.000000
 Stoichiometry    H2O2
 Framework group  C2V[SGV(H2O2)]
 Deg. of freedom     3
 Full point group                 C2V     NOp   4
 Largest Abelian subgroup         C2V     NOp   4
 Largest concise Abelian subgroup C2      NOp   2
                         Standard orientation:                         
 ---------------------------------------------------------------------
 Center     Atomic      Atomic             Coordinates (Angstroms)
 Number     Number       Type             X           Y           Z
 ---------------------------------------------------------------------
      1          8    20001021       -0.000000    0.660000   -0.100566
      2          1    20001030       -0.000000    0.980000    0.804530
      3          8    20001021       -0.000000   -0.660000   -0.100566
      4          1    20001030       -0.000000   -0.980000    0.804530
 ---------------------------------------------------------------------
 Rotational constants (GHZ):         325.3487158          31.8437240          29.0048544
 Leave Link  202 at Mon May  9 17:10:47 2022, MaxMem=   104857600 cpu:               0.0 elap:               0.0
 (Enter /home/emanuele/chemical_software//g16/l301.exe)
 Standard basis: def2TZVPP (5D, 7F)
 Ernie: Thresh=  0.10000D-02 Tol=  0.10000D-05 Strict=F.
 There are    36 symmetry adapted cartesian basis functions of A1  symmetry.
 There are    15 symmetry adapted cartesian basis functions of A2  symmetry.
 There are    15 symmetry adapted cartesian basis functions of B1  symmetry.
 There are    36 symmetry adapted cartesian basis functions of B2  symmetry.
 There are    31 symmetry adapted basis functions of A1  symmetry.
 There are    14 symmetry adapted basis functions of A2  symmetry.
 There are    14 symmetry adapted basis functions of B1  symmetry.
 There are    31 symmetry adapted basis functions of B2  symmetry.
    90 basis functions,   136 primitive gaussians,   102 cartesian basis functions
     9 alpha electrons        9 beta electrons
       nuclear repulsion energy        39.2667204412 Hartrees.
 IExCor=  402 DFT=T Ex+Corr=B3LYP ExCW=0 ScaHFX=  0.200000
 ScaDFX=  0.800000  0.720000  1.000000  0.810000 ScalE2=  1.000000  1.000000
 IRadAn=      5 IRanWt=     -1 IRanGd=            0 ICorTp=0 IEmpDi=  4
 NAtoms=    4 NActive=    4 NUniq=    2 SFac= 4.00D+00 NAtFMM=   60 NAOKFM=F Big=F
 Integral buffers will be    131072 words long.
 Raffenetti 2 integral format.
 Two-electron integral symmetry is turned on.
 Leave Link  301 at Mon May  9 17:10:47 2022, MaxMem=   104857600 cpu:               0.2 elap:               0.0
 (Enter /home/emanuele/chemical_software//g16/l302.exe)
 NPDir=0 NMtPBC=     1 NCelOv=     1 NCel=       1 NClECP=     1 NCelD=      1
         NCelK=      1 NCelE2=     1 NClLst=     1 CellRange=     0.0.
 One-electron integrals computed using PRISM.
 One-electron integral symmetry used in STVInt
   4 Symmetry operations used in ECPInt.
 ECPInt:  NShTT=     595 NPrTT=    1646 LenC2=     595 LenP2D=    1526.
 LDataN:  DoStor=T MaxTD1= 6 Len=  172
 NBasis=    90 RedAO= T EigKep=  1.67D-03  NBF=    31    14    14    31
 NBsUse=    90 1.00D-06 EigRej= -1.00D+00 NBFU=    31    14    14    31
 Precomputing XC quadrature grid using
 IXCGrd= 4 IRadAn=           5 IRanWt=          -1 IRanGd=           0 AccXCQ= 0.00D+00.
 Generated NRdTot=       0 NPtTot=           0 NUsed=           0 NTot=          32
 NSgBfM=   102   102   102   102   102 MxSgAt=     4 MxSgA2=     4.
 Leave Link  302 at Mon May  9 17:10:47 2022, MaxMem=   104857600 cpu:               0.9 elap:               0.1
 (Enter /home/emanuele/chemical_software//g16/l303.exe)
 DipDrv:  MaxL=1.
 Leave Link  303 at Mon May  9 17:10:47 2022, MaxMem=   104857600 cpu:               0.2 elap:               0.0
 (Enter /home/emanuele/chemical_software//g16/l401.exe)
 ExpMin= 1.03D-01 ExpMax= 2.70D+04 ExpMxC= 9.22D+02 IAcc=3 IRadAn=         5 AccDes= 0.00D+00
 Harris functional with IExCor=  402 and IRadAn=       5 diagonalized for initial guess.
 HarFok:  IExCor=  402 AccDes= 0.00D+00 IRadAn=         5 IDoV= 1 UseB2=F ITyADJ=14
 ICtDFT=  3500011 ScaDFX=  1.000000  1.000000  1.000000  1.000000
 FoFCou: FMM=F IPFlag=           0 FMFlag=      100000 FMFlg1=           0
         NFxFlg=           0 DoJE=T BraDBF=F KetDBF=T FulRan=T
         wScrn=  0.000000 ICntrl=       500 IOpCl=  0 I1Cent=   200000004 NGrid=           0
         NMat0=    1 NMatS0=      1 NMatT0=    0 NMatD0=    1 NMtDS0=    0 NMtDT0=    0
 Petite list used in FoFCou.
 Harris En= -151.624765974120    
 JPrj=0 DoOrth=F DoCkMO=F.
 Initial guess orbital symmetries:
       Occupied  (B2) (A1) (A1) (B2) (A1) (A1) (B1) (B2) (A2)
       Virtual   (A1) (B2) (B2) (A1) (A1) (B2) (B1) (A1) (B2) (A2)
                 (A1) (B2) (A1) (B1) (B2) (A2) (B2) (A1) (B1) (B2)
                 (A1) (B1) (A1) (A1) (A2) (B2) (A2) (B2) (A1) (B2)
                 (B1) (B2) (A1) (A2) (A1) (B2) (B1) (A1) (B2) (A1)
                 (B2) (A2) (B1) (A1) (A2) (B1) (A1) (A1) (B2) (A2)
                 (B2) (B2) (B1) (A1) (B2) (B2) (A1) (B1) (A1) (A2)
                 (B2) (A2) (B1) (A1) (B1) (B2) (A1) (A2) (B1) (A2)
                 (B2) (A1) (B2) (A2) (A1) (B2) (A1) (B2) (B2) (A1)
                 (B2)
 The electronic state of the initial guess is 1-A1.
 Leave Link  401 at Mon May  9 17:10:47 2022, MaxMem=   104857600 cpu:               1.3 elap:               0.2
 (Enter /home/emanuele/chemical_software//g16/l502.exe)
 Keep R1 ints in memory in symmetry-blocked form, NReq=15810514.
 FoFCou: FMM=F IPFlag=           0 FMFlag=           0 FMFlg1=           0
         NFxFlg=           0 DoJE=F BraDBF=F KetDBF=F FulRan=T
         wScrn=  0.000000 ICntrl=       600 IOpCl=  0 I1Cent=           0 NGrid=           0
         NMat0=    1 NMatS0=   4095 NMatT0=    0 NMatD0=    1 NMtDS0=    0 NMtDT0=    0
 Petite list used in FoFCou.
 Closed shell SCF:
 Using DIIS extrapolation, IDIIS=  1040.
 NGot=   104857600 LenX=   102677086 LenY=   102666241
 Requested convergence on RMS density matrix=1.00D-08 within 128 cycles.
 Requested convergence on MAX density matrix=1.00D-06.
 Requested convergence on             energy=1.00D-06.
 No special actions if energy rises.
 Integral accuracy reduced to 1.0D-05 until final iterations.

 Cycle   1  Pass 0  IDiag  1:
 E= -151.542959929904    
 DIIS: error= 3.41D-02 at cycle   1 NSaved=   1.
 NSaved= 1 IEnMin= 1 EnMin= -151.542959929904     IErMin= 1 ErrMin= 3.41D-02
 ErrMax= 3.41D-02  0.00D+00 EMaxC= 1.00D-01 BMatC= 8.22D-02 BMatP= 8.22D-02
 IDIUse=3 WtCom= 6.59D-01 WtEn= 3.41D-01
 Coeff-Com:  0.100D+01
 Coeff-En:   0.100D+01
 Coeff:      0.100D+01
 Gap=     0.139 Goal=   None    Shift=    0.000
 GapD=    0.139 DampG=1.000 DampE=0.500 DampFc=0.5000 IDamp=-1.
 Damping current iteration by 5.00D-01
 RMSDP=3.83D-03 MaxDP=6.81D-02              OVMax= 1.41D-01

 Cycle   2  Pass 0  IDiag  1:
 E= -151.564109686713     Delta-E=       -0.021149756808 Rises=F Damp=T
 DIIS: error= 8.92D-03 at cycle   2 NSaved=   2.
 NSaved= 2 IEnMin= 2 EnMin= -151.564109686713     IErMin= 2 ErrMin= 8.92D-03
 ErrMax= 8.92D-03  0.00D+00 EMaxC= 1.00D-01 BMatC= 6.01D-03 BMatP= 8.22D-02
 IDIUse=3 WtCom= 9.11D-01 WtEn= 8.92D-02
 Coeff-Com:  0.103D+00 0.897D+00
 Coeff-En:   0.213D+00 0.787D+00
 Coeff:      0.113D+00 0.887D+00
 Gap=     0.237 Goal=   None    Shift=    0.000
 RMSDP=6.37D-04 MaxDP=1.37D-02 DE=-2.11D-02 OVMax= 8.57D-02

 Cycle   3  Pass 0  IDiag  1:
 E= -151.596354380941     Delta-E=       -0.032244694229 Rises=F Damp=F
 DIIS: error= 4.64D-03 at cycle   3 NSaved=   3.
 NSaved= 3 IEnMin= 3 EnMin= -151.596354380941     IErMin= 3 ErrMin= 4.64D-03
 ErrMax= 4.64D-03  0.00D+00 EMaxC= 1.00D-01 BMatC= 1.61D-03 BMatP= 6.01D-03
 IDIUse=3 WtCom= 9.54D-01 WtEn= 4.64D-02
 Coeff-Com: -0.102D-01 0.327D+00 0.683D+00
 Coeff-En:   0.000D+00 0.000D+00 0.100D+01
 Coeff:     -0.975D-02 0.312D+00 0.698D+00
 Gap=     0.235 Goal=   None    Shift=    0.000
 RMSDP=2.45D-04 MaxDP=4.20D-03 DE=-3.22D-02 OVMax= 8.16D-03

 Cycle   4  Pass 0  IDiag  1:
 E= -151.597387832255     Delta-E=       -0.001033451313 Rises=F Damp=F
 DIIS: error= 6.20D-04 at cycle   4 NSaved=   4.
 NSaved= 4 IEnMin= 4 EnMin= -151.597387832255     IErMin= 4 ErrMin= 6.20D-04
 ErrMax= 6.20D-04  0.00D+00 EMaxC= 1.00D-01 BMatC= 2.52D-05 BMatP= 1.61D-03
 IDIUse=3 WtCom= 9.94D-01 WtEn= 6.20D-03
 Coeff-Com: -0.316D-02 0.663D-02 0.123D+00 0.873D+00
 Coeff-En:   0.000D+00 0.000D+00 0.000D+00 0.100D+01
 Coeff:     -0.314D-02 0.659D-02 0.122D+00 0.874D+00
 Gap=     0.235 Goal=   None    Shift=    0.000
 RMSDP=2.71D-05 MaxDP=3.68D-04 DE=-1.03D-03 OVMax= 1.02D-03

 Cycle   5  Pass 0  IDiag  1:
 E= -151.597403564103     Delta-E=       -0.000015731848 Rises=F Damp=F
 DIIS: error= 1.04D-05 at cycle   5 NSaved=   5.
 NSaved= 5 IEnMin= 5 EnMin= -151.597403564103     IErMin= 5 ErrMin= 1.04D-05
 ErrMax= 1.04D-05  0.00D+00 EMaxC= 1.00D-01 BMatC= 9.74D-09 BMatP= 2.52D-05
 IDIUse=1 WtCom= 1.00D+00 WtEn= 0.00D+00
 Coeff-Com:  0.209D-03-0.111D-02-0.201D-02 0.411D-02 0.999D+00
 Coeff:      0.209D-03-0.111D-02-0.201D-02 0.411D-02 0.999D+00
 Gap=     0.235 Goal=   None    Shift=    0.000
 RMSDP=8.54D-07 MaxDP=1.83D-05 DE=-1.57D-05 OVMax= 2.84D-05

 Initial convergence to 1.0D-05 achieved.  Increase integral accuracy.
 Cycle   6  Pass 1  IDiag  1:
 E= -151.597398694386     Delta-E=        0.000004869716 Rises=F Damp=F
 DIIS: error= 3.52D-06 at cycle   1 NSaved=   1.
 NSaved= 1 IEnMin= 1 EnMin= -151.597398694386     IErMin= 1 ErrMin= 3.52D-06
 ErrMax= 3.52D-06  0.00D+00 EMaxC= 1.00D-01 BMatC= 1.04D-09 BMatP= 1.04D-09
 IDIUse=1 WtCom= 1.00D+00 WtEn= 0.00D+00
 Coeff-Com:  0.100D+01
 Coeff:      0.100D+01
 Gap=     0.235 Goal=   None    Shift=    0.000
 RMSDP=8.54D-07 MaxDP=1.83D-05 DE= 4.87D-06 OVMax= 1.27D-05

 Cycle   7  Pass 1  IDiag  1:
 E= -151.597398695196     Delta-E=       -0.000000000810 Rises=F Damp=F
 DIIS: error= 1.80D-06 at cycle   2 NSaved=   2.
 NSaved= 2 IEnMin= 2 EnMin= -151.597398695196     IErMin= 2 ErrMin= 1.80D-06
 ErrMax= 1.80D-06  0.00D+00 EMaxC= 1.00D-01 BMatC= 1.88D-10 BMatP= 1.04D-09
 IDIUse=1 WtCom= 1.00D+00 WtEn= 0.00D+00
 Coeff-Com:  0.274D+00 0.726D+00
 Coeff:      0.274D+00 0.726D+00
 Gap=     0.235 Goal=   None    Shift=    0.000
 RMSDP=1.05D-07 MaxDP=1.38D-06 DE=-8.10D-10 OVMax= 3.69D-06

 Cycle   8  Pass 1  IDiag  1:
 E= -151.597398695321     Delta-E=       -0.000000000124 Rises=F Damp=F
 DIIS: error= 2.25D-07 at cycle   3 NSaved=   3.
 NSaved= 3 IEnMin= 3 EnMin= -151.597398695321     IErMin= 3 ErrMin= 2.25D-07
 ErrMax= 2.25D-07  0.00D+00 EMaxC= 1.00D-01 BMatC= 2.61D-12 BMatP= 1.88D-10
 IDIUse=1 WtCom= 1.00D+00 WtEn= 0.00D+00
 Coeff-Com: -0.154D-01 0.761D-01 0.939D+00
 Coeff:     -0.154D-01 0.761D-01 0.939D+00
 Gap=     0.235 Goal=   None    Shift=    0.000
 RMSDP=1.97D-08 MaxDP=3.02D-07 DE=-1.24D-10 OVMax= 4.62D-07

 Cycle   9  Pass 1  IDiag  1:
 E= -151.597398695323     Delta-E=       -0.000000000002 Rises=F Damp=F
 DIIS: error= 6.96D-08 at cycle   4 NSaved=   4.
 NSaved= 4 IEnMin= 4 EnMin= -151.597398695323     IErMin= 4 ErrMin= 6.96D-08
 ErrMax= 6.96D-08  0.00D+00 EMaxC= 1.00D-01 BMatC= 2.75D-13 BMatP= 2.61D-12
 IDIUse=1 WtCom= 1.00D+00 WtEn= 0.00D+00
 Coeff-Com: -0.905D-02 0.387D-01 0.503D+00 0.467D+00
 Coeff:     -0.905D-02 0.387D-01 0.503D+00 0.467D+00
 Gap=     0.235 Goal=   None    Shift=    0.000
 RMSDP=3.40D-09 MaxDP=6.34D-08 DE=-2.22D-12 OVMax= 1.33D-07

 SCF Done:  E(RB3LYP) =  -151.597398695     A.U. after    9 cycles
            NFock=  9  Conv=0.34D-08     -V/T= 2.0020
 KE= 1.512937946533D+02 PE=-4.374774255179D+02 EE= 9.531951172806D+01
 Leave Link  502 at Mon May  9 17:10:48 2022, MaxMem=   104857600 cpu:               4.9 elap:               0.6
 (Enter /home/emanuele/chemical_software//g16/l801.exe)
 DoSCS=F DFT=T ScalE2(SS,OS)=  1.000000  1.000000
 Range of M.O.s used for correlation:     1    90
 NBasis=    90 NAE=     9 NBE=     9 NFC=     0 NFV=     0
 NROrb=     90 NOA=     9 NOB=     9 NVA=    81 NVB=    81
 Leave Link  801 at Mon May  9 17:10:48 2022, MaxMem=   104857600 cpu:               0.2 elap:               0.0
 (Enter /home/emanuele/chemical_software//g16/l1101.exe)
 Using compressed storage, NAtomX=     4.
 Will process      5 centers per pass.
   4 Symmetry operations used in ECPInt.
 ECPInt:  NShTT=     595 NPrTT=    1646 LenC2=     595 LenP2D=    1526.
 LDataN:  DoStor=T MaxTD1= 7 Len=  274
 Leave Link 1101 at Mon May  9 17:10:48 2022, MaxMem=   104857600 cpu:               1.0 elap:               0.1
 (Enter /home/emanuele/chemical_software//g16/l1102.exe)
 Symmetrizing basis deriv contribution to polar:
 IMax=3 JMax=2 DiffMx= 0.00D+00
 Leave Link 1102 at Mon May  9 17:10:48 2022, MaxMem=   104857600 cpu:               0.2 elap:               0.0
 (Enter /home/emanuele/chemical_software//g16/l1110.exe)
 Forming Gx(P) for the SCF density, NAtomX=     4.
 Integral derivatives from FoFJK, PRISM(SPDF).
 Do as many integral derivatives as possible in FoFJK.
 G2DrvN: MDV=     104857068.
 G2DrvN: will do     5 centers at a time, making    1 passes.
 Calling FoFCou, ICntrl=  3107 FMM=F I1Cent=   0 AccDes= 0.00D+00.
 FoFJK:  IHMeth= 1 ICntrl=    3107 DoSepK=F KAlg= 0 I1Cent=           0 FoldK=F
 IRaf=         0 NMat=       1 IRICut=       1 DoRegI=T DoRafI=F ISym2E= 1 IDoP0=0 IntGTp=1.
 FoFCou: FMM=F IPFlag=           0 FMFlag=      100000 FMFlg1=           0
         NFxFlg=           0 DoJE=F BraDBF=F KetDBF=F FulRan=T
         wScrn=  0.000000 ICntrl=      3107 IOpCl=  0 I1Cent=           0 NGrid=           0
         NMat0=    1 NMatS0=      1 NMatT0=    0 NMatD0=    1 NMtDS0=    0 NMtDT0=    0
 Petite list used in FoFCou.
 End of G2Drv F.D. properties file   721 does not exist.
 End of G2Drv F.D. properties file   722 does not exist.
 End of G2Drv F.D. properties file   788 does not exist.
 Leave Link 1110 at Mon May  9 17:10:49 2022, MaxMem=   104857600 cpu:               9.0 elap:               1.1
 (Enter /home/emanuele/chemical_software//g16/l1002.exe)
 Minotr:  Closed shell wavefunction.
          IDoAtm=1111
          Direct CPHF calculation.
          Differentiating once with respect to electric field.
                with respect to dipole field.
          Differentiating once with respect to nuclear coordinates.
          Using symmetry in CPHF.
          Requested convergence is 1.0D-08 RMS, and 1.0D-07 maximum.
          Secondary convergence is 1.0D-12 RMS, and 1.0D-12 maximum.
          NewPWx=T KeepS1=F KeepF1=F KeepIn=T MapXYZ=F SortEE=F KeepMc=T.
         1193 words used for storage of precomputed grid.
 Keep R1 ints in memory in symmetry-blocked form, NReq=15786383.
 FoFCou: FMM=F IPFlag=           0 FMFlag=           0 FMFlg1=           0
         NFxFlg=           0 DoJE=F BraDBF=F KetDBF=F FulRan=T
         wScrn=  0.000000 ICntrl=       600 IOpCl=  0 I1Cent=           0 NGrid=           0
         NMat0=    1 NMatS0=   4095 NMatT0=    0 NMatD0=    1 NMtDS0=    0 NMtDT0=    0
 Petite list used in FoFCou.
          MDV=     104857600 using IRadAn=       1.
          Solving linear equations simultaneously, MaxMat=       0.
          There are     9 degrees of freedom in the 1st order CPHF.  IDoFFX=4 NUNeed=     9.
      9 vectors produced by pass  0 Test12= 8.10D-15 1.11D-08 XBig12= 6.83D+00 1.43D+00.
 AX will form     9 AO Fock derivatives at one time.
      9 vectors produced by pass  1 Test12= 8.10D-15 1.11D-08 XBig12= 1.31D+00 5.02D-01.
      9 vectors produced by pass  2 Test12= 8.10D-15 1.11D-08 XBig12= 1.35D-01 1.36D-01.
      9 vectors produced by pass  3 Test12= 8.10D-15 1.11D-08 XBig12= 2.07D-03 1.35D-02.
      9 vectors produced by pass  4 Test12= 8.10D-15 1.11D-08 XBig12= 1.18D-05 1.21D-03.
      9 vectors produced by pass  5 Test12= 8.10D-15 1.11D-08 XBig12= 1.91D-08 3.40D-05.
      3 vectors produced by pass  6 Test12= 8.10D-15 1.11D-08 XBig12= 2.23D-11 1.09D-06.
      2 vectors produced by pass  7 Test12= 8.10D-15 1.11D-08 XBig12= 2.87D-14 3.91D-08.
 InvSVY:  IOpt=1 It=  1 EMax= 2.22D-16
 Solved reduced A of dimension    59 with     9 vectors.
 FullF1:  Do perturbations      1 to       9.
 Isotropic polarizability for W=    0.000000       11.55 Bohr**3.
 End of Minotr F.D. properties file   721 does not exist.
 End of Minotr F.D. properties file   722 does not exist.
 End of Minotr F.D. properties file   788 does not exist.
 Leave Link 1002 at Mon May  9 17:10:52 2022, MaxMem=   104857600 cpu:              24.8 elap:               3.1
 (Enter /home/emanuele/chemical_software//g16/l601.exe)
 Copying SCF densities to generalized density rwf, IOpCl= 0 IROHF=0.

 **********************************************************************

            Population analysis using the SCF Density.

 **********************************************************************

 Orbital symmetries:
       Occupied  (A1) (B2) (A1) (B2) (A1) (A1) (B1) (B2) (A2)
       Virtual   (A1) (B2) (B2) (A1) (B2) (A1) (B1) (A1) (B2) (A2)
                 (A1) (B2) (A1) (B1) (B2) (A2) (B2) (A1) (B2) (B1)
                 (A1) (B1) (A1) (A1) (A2) (B2) (B2) (A2) (A1) (B2)
                 (B1) (B2) (A1) (A2) (A1) (B2) (B1) (A1) (B2) (A1)
                 (B2) (A2) (B1) (A1) (A2) (B1) (A1) (A1) (B2) (A2)
                 (B2) (B2) (A1) (B1) (B2) (B2) (A1) (B1) (A1) (A2)
                 (B2) (A2) (A1) (B1) (B1) (B2) (A1) (A2) (B1) (A2)
                 (B2) (A1) (B2) (A2) (A1) (B2) (A1) (B2) (B2) (A1)
                 (B2)
 The electronic state is 1-A1.
 Alpha  occ. eigenvalues --  -19.18178 -19.18171  -1.18501  -0.88853  -0.62360
 Alpha  occ. eigenvalues --   -0.45551  -0.44004  -0.36824  -0.24212
 Alpha virt. eigenvalues --   -0.00674   0.03926   0.15849   0.34310   0.38965
 Alpha virt. eigenvalues --    0.39251   0.39903   0.43319   0.47332   0.48952
 Alpha virt. eigenvalues --    0.52479   0.59595   0.63921   0.63973   0.75464
 Alpha virt. eigenvalues --    0.78949   1.02202   1.13495   1.25533   1.27927
 Alpha virt. eigenvalues --    1.49680   1.61108   1.72011   1.80067   1.90974
 Alpha virt. eigenvalues --    1.93238   2.04340   2.04901   2.13085   2.21135
 Alpha virt. eigenvalues --    2.43671   2.52573   2.58499   2.68626   2.71346
 Alpha virt. eigenvalues --    2.90768   3.13802   3.17446   3.20019   3.25505
 Alpha virt. eigenvalues --    3.32421   3.35298   3.44769   3.54915   3.62679
 Alpha virt. eigenvalues --    3.87136   3.94323   4.00896   4.00951   4.08635
 Alpha virt. eigenvalues --    4.11983   4.48241   4.68786   4.70773   4.74695
 Alpha virt. eigenvalues --    4.89212   4.92958   5.06731   5.13205   5.66773
 Alpha virt. eigenvalues --    5.94991   6.17810   6.20655   6.26216   6.34717
 Alpha virt. eigenvalues --    6.42513   6.44359   6.47792   6.54170   6.68386
 Alpha virt. eigenvalues --    6.82724   6.89514   7.02328   7.06592   7.08608
 Alpha virt. eigenvalues --    7.27352   7.47278   7.65990   8.58369  43.28767
 Alpha virt. eigenvalues --   43.89542
          Condensed to atoms (all electrons):
               1          2          3          4
     1  O    7.888616   0.325025  -0.015046  -0.023127
     2  H    0.325025   0.544533  -0.023127  -0.021898
     3  O   -0.015046  -0.023127   7.888616   0.325025
     4  H   -0.023127  -0.021898   0.325025   0.544533
 Mulliken charges:
               1
     1  O   -0.175468
     2  H    0.175468
     3  O   -0.175468
     4  H    0.175468
 Sum of Mulliken charges =   0.00000
 Mulliken charges with hydrogens summed into heavy atoms:
               1
     1  O    0.000000
     3  O    0.000000
 APT charges:
               1
     1  O   -0.225309
     2  H    0.225309
     3  O   -0.225309
     4  H    0.225309
 Sum of APT charges =   0.00000
 APT charges with hydrogens summed into heavy atoms:
               1
     1  O   -0.000000
     3  O    0.000000
 Electronic spatial extent (au):  <R**2>=             61.4505
 Charge=              0.0000 electrons
 Dipole moment (field-independent basis, Debye):
    X=             -0.0000    Y=              0.0000    Z=              3.1468  Tot=              3.1468
 Quadrupole moment (field-independent basis, Debye-Ang):
   XX=            -12.7427   YY=            -10.8219   ZZ=             -9.3908
   XY=             -0.0000   XZ=             -0.0000   YZ=              0.0000
 Traceless Quadrupole moment (field-independent basis, Debye-Ang):
   XX=             -1.7575   YY=              0.1632   ZZ=              1.5943
   XY=             -0.0000   XZ=             -0.0000   YZ=              0.0000
 Octapole moment (field-independent basis, Debye-Ang**2):
  XXX=              0.0000  YYY=              0.0000  ZZZ=              3.1018  XYY=              0.0000
  XXY=              0.0000  XXZ=              0.4170  XZZ=              0.0000  YZZ=              0.0000
  YYZ=              3.8986  XYZ=              0.0000
 Hexadecapole moment (field-independent basis, Debye-Ang**3):
 XXXX=            -10.1049 YYYY=            -39.3660 ZZZZ=            -10.8487 XXXY=             -0.0000
 XXXZ=              0.0000 YYYX=             -0.0000 YYYZ=              0.0000 ZZZX=             -0.0000
 ZZZY=              0.0000 XXYY=             -9.8383 XXZZ=             -3.8803 YYZZ=             -7.3287
 XXYZ=              0.0000 YYXZ=             -0.0000 ZZXY=             -0.0000
 N-N= 3.926672044120D+01 E-N=-4.374774204142D+02  KE= 1.512937946533D+02
 Symmetry A1   KE= 7.234795963543D+01
 Symmetry A2   KE= 5.529025704190D+00
 Symmetry B1   KE= 4.354149879183D+00
 Symmetry B2   KE= 6.906265943449D+01
  Exact polarizability:       8.270       0.000      14.333      -0.000      -0.000      12.037
 Approx polarizability:       9.834       0.000      18.181      -0.000       0.000      16.334
 No NMR shielding tensors so no spin-rotation constants.
 Leave Link  601 at Mon May  9 17:10:52 2022, MaxMem=   104857600 cpu:               0.8 elap:               0.1
 (Enter /home/emanuele/chemical_software//g16/l701.exe)
 ... and contract with generalized density number  0.
 Compute integral second derivatives.
   4 Symmetry operations used in ECPInt.
 ECPInt:  NShTT=     595 NPrTT=    1646 LenC2=     595 LenP2D=    1526.
 LDataN:  DoStor=T MaxTD1= 8 Len=  415
 Leave Link  701 at Mon May  9 17:10:52 2022, MaxMem=   104857600 cpu:               1.5 elap:               0.2
 (Enter /home/emanuele/chemical_software//g16/l702.exe)
 L702 exits ... SP integral derivatives will be done elsewhere.
 Leave Link  702 at Mon May  9 17:10:52 2022, MaxMem=   104857600 cpu:               0.2 elap:               0.0
 (Enter /home/emanuele/chemical_software//g16/l703.exe)
 Integral derivatives from FoFJK, PRISM(SPDF).
 Compute integral second derivatives, UseDBF=F ICtDFT=           0.
 Calling FoFJK, ICntrl=    100127 FMM=F ISym2X=1 I1Cent= 0 IOpClX= 0 NMat=1 NMatS=1 NMatT=0.
 FoFJK:  IHMeth= 1 ICntrl=  100127 DoSepK=F KAlg= 0 I1Cent=           0 FoldK=F
 IRaf=         0 NMat=       1 IRICut=       1 DoRegI=T DoRafI=F ISym2E= 1 IDoP0=0 IntGTp=1.
 FoFCou: FMM=F IPFlag=           0 FMFlag=      100000 FMFlg1=         800
         NFxFlg=           0 DoJE=F BraDBF=F KetDBF=F FulRan=T
         wScrn=  0.000000 ICntrl=    100127 IOpCl=  0 I1Cent=           0 NGrid=           0
         NMat0=    1 NMatS0=      1 NMatT0=    0 NMatD0=    1 NMtDS0=    0 NMtDT0=    0
 Petite list used in FoFCou.
 Leave Link  703 at Mon May  9 17:10:55 2022, MaxMem=   104857600 cpu:              22.1 elap:               2.8
 (Enter /home/emanuele/chemical_software//g16/l716.exe)
 Dipole        =-1.44871866D-15-8.01286392D-15 1.23805776D+00
 Polarizability= 8.27047563D+00 2.34221217D-11 1.43329640D+01
                -2.75011468D-12-5.97703442D-10 1.20369844D+01
 ***** Axes restored to original set *****
 -------------------------------------------------------------------
 Center     Atomic                   Forces (Hartrees/Bohr)
 Number     Number              X              Y              Z
 -------------------------------------------------------------------
      1        8          -0.104016224   -0.003854708   -0.000000000
      2        1          -0.001273414    0.003844121   -0.000000000
      3        8           0.104016997   -0.003833791    0.000000000
      4        1           0.001272641    0.003844377    0.000000000
 -------------------------------------------------------------------
 Cartesian Forces:  Max     0.104016997 RMS     0.042525742
 Force constants in Cartesian coordinates: 
                1             2             3             4             5 
      1  0.663146D+00
      2 -0.107293D+00  0.546570D+00
      3  0.000000D+00  0.000000D+00 -0.626918D-01
      4 -0.822516D-01  0.855940D-01  0.000000D+00  0.122912D+00
      5  0.159962D+00 -0.491647D+00  0.000000D+00 -0.138205D+00  0.474825D+00
      6  0.000000D+00  0.000000D+00  0.145070D-01  0.000000D+00  0.000000D+00
      7 -0.538847D+00  0.716396D-01  0.000000D+00 -0.420546D-01 -0.190761D-01
      8 -0.717353D-01 -0.625447D-01  0.000000D+00  0.499309D-01  0.762761D-02
      9  0.000000D+00  0.000000D+00  0.604430D-01  0.000000D+00  0.000000D+00
     10 -0.420484D-01 -0.499409D-01  0.000000D+00  0.139392D-02 -0.268123D-02
     11  0.190661D-01  0.762141D-02  0.000000D+00  0.267966D-02  0.919426D-02
     12  0.000000D+00  0.000000D+00 -0.122583D-01  0.000000D+00  0.000000D+00
                6             7             8             9            10 
      6 -0.104809D-01
      7  0.000000D+00  0.663103D+00
      8  0.000000D+00  0.107316D+00  0.546613D+00
      9 -0.122583D-01  0.000000D+00  0.000000D+00 -0.626918D-01
     10  0.000000D+00 -0.822022D-01 -0.855117D-01  0.000000D+00  0.122857D+00
     11  0.000000D+00 -0.159880D+00 -0.491696D+00  0.000000D+00  0.138134D+00
     12  0.823222D-02  0.000000D+00  0.000000D+00  0.145070D-01  0.000000D+00
               11            12 
     11  0.474880D+00
     12  0.000000D+00 -0.104809D-01
 FormGI is forming the generalized inverse of G from B-inverse, IUseBI=4.
 Force constants in internal coordinates: 
                1             2             3             4             5 
      1  0.522588D+00
      2 -0.695505D-02  0.621556D+00
      3  0.633498D-02 -0.695505D-02  0.522588D+00
      4 -0.563003D-02  0.826935D-01 -0.981838D-02  0.254669D+00
      5 -0.981838D-02  0.826935D-01 -0.563003D-02  0.482180D-02  0.254669D+00
      6  0.000000D+00  0.000000D+00  0.000000D+00  0.000000D+00  0.000000D+00
                6 
      6 -0.240821D-01
 Leave Link  716 at Mon May  9 17:10:55 2022, MaxMem=   104857600 cpu:               0.2 elap:               0.0
 (Enter /home/emanuele/chemical_software//g16/l103.exe)

 GradGradGradGradGradGradGradGradGradGradGradGradGradGradGradGradGradGrad
 Berny optimization.
 Red2BG is reusing G-inverse.
 Internal  Forces:  Max     0.105289639 RMS     0.043047911
 Search for a local minimum.
 Step number   1 out of a maximum of  100
 All quantities printed in internal units (Hartrees-Bohrs-Radians)
 RMS Force = .43048D-01 SwitMx=.10000D-02 MixMth= 1
 Mixed Optimization -- RFO/linear search
 Second derivative matrix not updated -- analytic derivatives used.
 The second derivative matrix:
                          R1        R2        R3        A1        A2
           R1           0.52259
           R2          -0.00696   0.62156
           R3           0.00633  -0.00696   0.52259
           A1          -0.00563   0.08269  -0.00982   0.25467
           A2          -0.00982   0.08269  -0.00563   0.00482   0.25467
           D1           0.00000   0.00000   0.00000   0.00000   0.00000
                          D1
           D1          -0.02408
 ITU=  0
     Eigenvalues ---   -0.02408   0.22453   0.24978   0.51632   0.52791
     Eigenvalues ---    0.65753
 Eigenvalue     1 is  -2.41D-02 should be greater than     0.000000 Eigenvector:
                          D1        R1        R3        A2        A1
   1                    1.00000  -0.00000  -0.00000  -0.00000  -0.00000
                          R2
   1                    0.00000
 RFO step:  Lambda=-2.40820909D-02 EMin=-2.40820879D-02
 I=     1 Eig=   -2.41D-02 Dot1=  6.24D-17
 I=     1 Stepn=  1.75D-01 RXN=   1.75D-01 EDone=F
 Mixed    1 eigenvectors in step.  Raw Step.Grad=  6.24D-17.
 RFO eigenvector is Hessian eigenvector with negative curvature.
 Taking step of  1.75D-01 in eigenvector direction(s).  Step.Grad= -1.74D-02.
 Linear search not attempted -- first point.
 Iteration  1 RMS(Cart)=  0.04826613 RMS(Int)=  0.00394156
 Iteration  2 RMS(Cart)=  0.00427639 RMS(Int)=  0.00001452
 Iteration  3 RMS(Cart)=  0.00001588 RMS(Int)=  0.00000000
 Iteration  4 RMS(Cart)=  0.00000000 RMS(Int)=  0.00000000
 ITry= 1 IFail=0 DXMaxC= 6.90D-02 DCOld= 1.00D+10 DXMaxT= 7.00D-02 DXLimC= 3.00D+00 Rises=F
 ClnCor:  largest displacement from symmetrization is 6.90D-02 for atom     3.
 Variable       Old X    -DE/DX   Delta X   Delta X   Delta X     New X
                                 (Linear)    (Quad)   (Total)
    R1        1.81414   0.00405   0.00000  -0.00000  -0.00370   1.81044
    R2        2.49444   0.10529   0.00000   0.00000  -0.00383   2.49061
    R3        1.81414   0.00405   0.00000  -0.00000  -0.00370   1.81044
    A1        1.91063  -0.00015   0.00000  -0.00000   0.00503   1.91566
    A2        1.91063  -0.00015   0.00000  -0.00000   0.00503   1.91566
    D1        0.00000  -0.00000   0.00000   0.17500  -0.00000   0.00000
         Item               Value     Threshold  Converged?
 Maximum Force            0.105290     0.000015     NO 
 RMS     Force            0.043048     0.000010     NO 
 Maximum Displacement     0.005435     0.000060     NO 
 RMS     Displacement     0.004266     0.000040     NO 
 Predicted change in Energy=-4.497624D-04
 Lowest energy point so far.  Saving SCF results.
 GradGradGradGradGradGradGradGradGradGradGradGradGradGradGradGradGradGrad

 Leave Link  103 at Mon May  9 17:10:55 2022, MaxMem=   104857600 cpu:               0.1 elap:               0.0
 (Enter /home/emanuele/chemical_software//g16/l202.exe)
                          Input orientation:                          
 ---------------------------------------------------------------------
 Center     Atomic      Atomic             Coordinates (Angstroms)
 Number     Number       Type             X           Y           Z
 ---------------------------------------------------------------------
      1          8    20001021        5.109956    2.312671   -0.000000
      2          1    20001030        4.785977    3.214273   -0.000000
      3          8    20001021        6.427931    2.312804    0.000000
      4          1    20001030        6.751729    3.214470    0.000000
 ---------------------------------------------------------------------
                    Distance matrix (angstroms):
                    1          2          3          4
     1  O    0.000000
     2  H    0.958044   0.000000
     3  O    1.317976   1.873142   0.000000
     4  H    1.873142   1.965752   0.958044   0.000000
 Stoichiometry    H2O2
 Framework group  C2V[SGV(H2O2)]
 Deg. of freedom     3
 Full point group                 C2V     NOp   4
 RotChk:  IX=0 Diff= 2.68D-18
 Largest Abelian subgroup         C2V     NOp   4
 Largest concise Abelian subgroup C2      NOp   2
                         Standard orientation:                         
 ---------------------------------------------------------------------
 Center     Atomic      Atomic             Coordinates (Angstroms)
 Number     Number       Type             X           Y           Z
 ---------------------------------------------------------------------
      1          8    20001021       -0.000000    0.658988   -0.100182
      2          1    20001030       -0.000000    0.982876    0.801453
      3          8    20001021       -0.000000   -0.658988   -0.100182
      4          1    20001030       -0.000000   -0.982876    0.801453
 ---------------------------------------------------------------------
 Rotational constants (GHZ):         327.8524365          31.9067141          29.0769365
 Leave Link  202 at Mon May  9 17:10:55 2022, MaxMem=   104857600 cpu:               0.0 elap:               0.0
 (Enter /home/emanuele/chemical_software//g16/l301.exe)
 Standard basis: def2TZVPP (5D, 7F)
 Ernie: Thresh=  0.10000D-02 Tol=  0.10000D-05 Strict=F.
 There are    36 symmetry adapted cartesian basis functions of A1  symmetry.
 There are    15 symmetry adapted cartesian basis functions of A2  symmetry.
 There are    15 symmetry adapted cartesian basis functions of B1  symmetry.
 There are    36 symmetry adapted cartesian basis functions of B2  symmetry.
 There are    31 symmetry adapted basis functions of A1  symmetry.
 There are    14 symmetry adapted basis functions of A2  symmetry.
 There are    14 symmetry adapted basis functions of B1  symmetry.
 There are    31 symmetry adapted basis functions of B2  symmetry.
    90 basis functions,   136 primitive gaussians,   102 cartesian basis functions
     9 alpha electrons        9 beta electrons
       nuclear repulsion energy        39.3234410761 Hartrees.
 IExCor=  402 DFT=T Ex+Corr=B3LYP ExCW=0 ScaHFX=  0.200000
 ScaDFX=  0.800000  0.720000  1.000000  0.810000 ScalE2=  1.000000  1.000000
 IRadAn=      5 IRanWt=     -1 IRanGd=            0 ICorTp=0 IEmpDi=  4
 NAtoms=    4 NActive=    4 NUniq=    2 SFac= 4.00D+00 NAtFMM=   60 NAOKFM=F Big=F
 Integral buffers will be    131072 words long.
 Raffenetti 2 integral format.
 Two-electron integral symmetry is turned on.
 Leave Link  301 at Mon May  9 17:10:55 2022, MaxMem=   104857600 cpu:               0.2 elap:               0.0
 (Enter /home/emanuele/chemical_software//g16/l302.exe)
 NPDir=0 NMtPBC=     1 NCelOv=     1 NCel=       1 NClECP=     1 NCelD=      1
         NCelK=      1 NCelE2=     1 NClLst=     1 CellRange=     0.0.
 One-electron integrals computed using PRISM.
 One-electron integral symmetry used in STVInt
   4 Symmetry operations used in ECPInt.
 ECPInt:  NShTT=     595 NPrTT=    1646 LenC2=     595 LenP2D=    1526.
 LDataN:  DoStor=T MaxTD1= 6 Len=  172
 NBasis=    90 RedAO= T EigKep=  1.66D-03  NBF=    31    14    14    31
 NBsUse=    90 1.00D-06 EigRej= -1.00D+00 NBFU=    31    14    14    31
 Precomputing XC quadrature grid using
 IXCGrd= 4 IRadAn=           5 IRanWt=          -1 IRanGd=           0 AccXCQ= 0.00D+00.
 Generated NRdTot=       0 NPtTot=           0 NUsed=           0 NTot=          32
 NSgBfM=   102   102   102   102   102 MxSgAt=     4 MxSgA2=     4.
 Leave Link  302 at Mon May  9 17:10:55 2022, MaxMem=   104857600 cpu:               0.9 elap:               0.1
 (Enter /home/emanuele/chemical_software//g16/l303.exe)
 DipDrv:  MaxL=1.
 Leave Link  303 at Mon May  9 17:10:55 2022, MaxMem=   104857600 cpu:               0.2 elap:               0.0
 (Enter /home/emanuele/chemical_software//g16/l401.exe)
 Initial guess from the checkpoint file:  "qm.chk"
 B after Tr=     0.000000    0.000000    0.000000
         Rot=    1.000000   -0.000000    0.000000    0.000000 Ang=   0.00 deg.
 Guess basis will be translated and rotated to current coordinates.
 JPrj=2 DoOrth=T DoCkMO=T.
 Initial guess orbital symmetries:
       Occupied  (A1) (B2) (A1) (B2) (A1) (A1) (B1) (B2) (A2)
       Virtual   (A1) (B2) (B2) (A1) (B2) (A1) (B1) (A1) (B2) (A2)
                 (A1) (B2) (A1) (B1) (B2) (A2) (B2) (A1) (B2) (B1)
                 (A1) (B1) (A1) (A1) (A2) (B2) (B2) (A2) (A1) (B2)
                 (B1) (B2) (A1) (A2) (A1) (B2) (B1) (A1) (B2) (A1)
                 (B2) (A2) (B1) (A1) (A2) (B1) (A1) (A1) (B2) (A2)
                 (B2) (B2) (A1) (B1) (B2) (B2) (A1) (B1) (A1) (A2)
                 (B2) (A2) (A1) (B1) (B1) (B2) (A1) (A2) (B1) (A2)
                 (B2) (A1) (B2) (A2) (A1) (B2) (A1) (B2) (B2) (A1)
                 (B2)
 The electronic state of the initial guess is 1-A1.
 Leave Link  401 at Mon May  9 17:10:55 2022, MaxMem=   104857600 cpu:               0.5 elap:               0.1
 (Enter /home/emanuele/chemical_software//g16/l502.exe)
 Keep R1 ints in memory in symmetry-blocked form, NReq=15810514.
 FoFCou: FMM=F IPFlag=           0 FMFlag=           0 FMFlg1=           0
         NFxFlg=           0 DoJE=F BraDBF=F KetDBF=F FulRan=T
         wScrn=  0.000000 ICntrl=       600 IOpCl=  0 I1Cent=           0 NGrid=           0
         NMat0=    1 NMatS0=   4095 NMatT0=    0 NMatD0=    1 NMtDS0=    0 NMtDT0=    0
 Petite list used in FoFCou.
 Closed shell SCF:
 Using DIIS extrapolation, IDIIS=  1040.
 NGot=   104857600 LenX=   102677086 LenY=   102666241
 Requested convergence on RMS density matrix=1.00D-08 within 128 cycles.
 Requested convergence on MAX density matrix=1.00D-06.
 Requested convergence on             energy=1.00D-06.
 No special actions if energy rises.

 Cycle   1  Pass 1  IDiag  1:
 E= -151.596938678886    
 DIIS: error= 3.52D-04 at cycle   1 NSaved=   1.
 NSaved= 1 IEnMin= 1 EnMin= -151.596938678886     IErMin= 1 ErrMin= 3.52D-04
 ErrMax= 3.52D-04  0.00D+00 EMaxC= 1.00D-01 BMatC= 1.16D-05 BMatP= 1.16D-05
 IDIUse=3 WtCom= 9.96D-01 WtEn= 3.52D-03
 Coeff-Com:  0.100D+01
 Coeff-En:   0.100D+01
 Coeff:      0.100D+01
 Gap=     0.236 Goal=   None    Shift=    0.000
 RMSDP=2.91D-05 MaxDP=3.68D-04              OVMax= 1.24D-03

 Cycle   2  Pass 1  IDiag  1:
 E= -151.596948617308     Delta-E=       -0.000009938422 Rises=F Damp=F
 DIIS: error= 7.62D-05 at cycle   2 NSaved=   2.
 NSaved= 2 IEnMin= 2 EnMin= -151.596948617308     IErMin= 2 ErrMin= 7.62D-05
 ErrMax= 7.62D-05  0.00D+00 EMaxC= 1.00D-01 BMatC= 3.62D-07 BMatP= 1.16D-05
 IDIUse=1 WtCom= 1.00D+00 WtEn= 0.00D+00
 Coeff-Com:  0.287D-01 0.971D+00
 Coeff:      0.287D-01 0.971D+00
 Gap=     0.236 Goal=   None    Shift=    0.000
 RMSDP=7.68D-06 MaxDP=1.72D-04 DE=-9.94D-06 OVMax= 2.40D-04

 Cycle   3  Pass 1  IDiag  1:
 E= -151.596948640947     Delta-E=       -0.000000023639 Rises=F Damp=F
 DIIS: error= 8.07D-05 at cycle   3 NSaved=   3.
 NSaved= 3 IEnMin= 3 EnMin= -151.596948640947     IErMin= 2 ErrMin= 7.62D-05
 ErrMax= 8.07D-05  0.00D+00 EMaxC= 1.00D-01 BMatC= 3.75D-07 BMatP= 3.62D-07
 IDIUse=1 WtCom= 1.00D+00 WtEn= 0.00D+00
 Coeff-Com: -0.154D-01 0.509D+00 0.507D+00
 Coeff:     -0.154D-01 0.509D+00 0.507D+00
 Gap=     0.236 Goal=   None    Shift=    0.000
 RMSDP=3.91D-06 MaxDP=8.44D-05 DE=-2.36D-08 OVMax= 1.41D-04

 Cycle   4  Pass 1  IDiag  1:
 E= -151.596948884074     Delta-E=       -0.000000243127 Rises=F Damp=F
 DIIS: error= 1.23D-05 at cycle   4 NSaved=   4.
 NSaved= 4 IEnMin= 4 EnMin= -151.596948884074     IErMin= 4 ErrMin= 1.23D-05
 ErrMax= 1.23D-05  0.00D+00 EMaxC= 1.00D-01 BMatC= 1.06D-08 BMatP= 3.62D-07
 IDIUse=1 WtCom= 1.00D+00 WtEn= 0.00D+00
 Coeff-Com: -0.792D-02 0.141D+00 0.208D+00 0.658D+00
 Coeff:     -0.792D-02 0.141D+00 0.208D+00 0.658D+00
 Gap=     0.236 Goal=   None    Shift=    0.000
 RMSDP=6.92D-07 MaxDP=1.25D-05 DE=-2.43D-07 OVMax= 2.69D-05

 Cycle   5  Pass 1  IDiag  1:
 E= -151.596948891654     Delta-E=       -0.000000007580 Rises=F Damp=F
 DIIS: error= 1.23D-06 at cycle   5 NSaved=   5.
 NSaved= 5 IEnMin= 5 EnMin= -151.596948891654     IErMin= 5 ErrMin= 1.23D-06
 ErrMax= 1.23D-06  0.00D+00 EMaxC= 1.00D-01 BMatC= 8.44D-11 BMatP= 1.06D-08
 IDIUse=1 WtCom= 1.00D+00 WtEn= 0.00D+00
 Coeff-Com: -0.195D-03-0.555D-02 0.251D-02 0.908D-01 0.912D+00
 Coeff:     -0.195D-03-0.555D-02 0.251D-02 0.908D-01 0.912D+00
 Gap=     0.236 Goal=   None    Shift=    0.000
 RMSDP=9.17D-08 MaxDP=1.18D-06 DE=-7.58D-09 OVMax= 3.23D-06

 Cycle   6  Pass 1  IDiag  1:
 E= -151.596948891723     Delta-E=       -0.000000000070 Rises=F Damp=F
 DIIS: error= 8.39D-08 at cycle   6 NSaved=   6.
 NSaved= 6 IEnMin= 6 EnMin= -151.596948891723     IErMin= 6 ErrMin= 8.39D-08
 ErrMax= 8.39D-08  0.00D+00 EMaxC= 1.00D-01 BMatC= 4.27D-13 BMatP= 8.44D-11
 IDIUse=1 WtCom= 1.00D+00 WtEn= 0.00D+00
 Coeff-Com:  0.433D-04-0.182D-02-0.140D-02 0.292D-02 0.925D-01 0.908D+00
 Coeff:      0.433D-04-0.182D-02-0.140D-02 0.292D-02 0.925D-01 0.908D+00
 Gap=     0.236 Goal=   None    Shift=    0.000
 RMSDP=5.60D-09 MaxDP=5.65D-08 DE=-6.97D-11 OVMax= 1.98D-07

 SCF Done:  E(RB3LYP) =  -151.596948892     A.U. after    6 cycles
            NFock=  6  Conv=0.56D-08     -V/T= 2.0019
 KE= 1.513038754143D+02 PE=-4.375944355335D+02 EE= 9.537017015147D+01
 Leave Link  502 at Mon May  9 17:10:56 2022, MaxMem=   104857600 cpu:               4.7 elap:               0.6
 (Enter /home/emanuele/chemical_software//g16/l801.exe)
 DoSCS=F DFT=T ScalE2(SS,OS)=  1.000000  1.000000
 Range of M.O.s used for correlation:     1    90
 NBasis=    90 NAE=     9 NBE=     9 NFC=     0 NFV=     0
 NROrb=     90 NOA=     9 NOB=     9 NVA=    81 NVB=    81
 Leave Link  801 at Mon May  9 17:10:56 2022, MaxMem=   104857600 cpu:               0.2 elap:               0.0
 (Enter /home/emanuele/chemical_software//g16/l1101.exe)
 Using compressed storage, NAtomX=     4.
 Will process      5 centers per pass.
   4 Symmetry operations used in ECPInt.
 ECPInt:  NShTT=     595 NPrTT=    1646 LenC2=     595 LenP2D=    1526.
 LDataN:  DoStor=T MaxTD1= 7 Len=  274
 Leave Link 1101 at Mon May  9 17:10:56 2022, MaxMem=   104857600 cpu:               1.0 elap:               0.1
 (Enter /home/emanuele/chemical_software//g16/l1102.exe)
 Symmetrizing basis deriv contribution to polar:
 IMax=3 JMax=2 DiffMx= 0.00D+00
 Leave Link 1102 at Mon May  9 17:10:56 2022, MaxMem=   104857600 cpu:               0.2 elap:               0.0
 (Enter /home/emanuele/chemical_software//g16/l1110.exe)
 Forming Gx(P) for the SCF density, NAtomX=     4.
 Integral derivatives from FoFJK, PRISM(SPDF).
 Do as many integral derivatives as possible in FoFJK.
 G2DrvN: MDV=     104857068.
 G2DrvN: will do     5 centers at a time, making    1 passes.
 Calling FoFCou, ICntrl=  3107 FMM=F I1Cent=   0 AccDes= 0.00D+00.
 FoFJK:  IHMeth= 1 ICntrl=    3107 DoSepK=F KAlg= 0 I1Cent=           0 FoldK=F
 IRaf=         0 NMat=       1 IRICut=       1 DoRegI=T DoRafI=F ISym2E= 1 IDoP0=0 IntGTp=1.
 FoFCou: FMM=F IPFlag=           0 FMFlag=      100000 FMFlg1=           0
         NFxFlg=           0 DoJE=F BraDBF=F KetDBF=F FulRan=T
         wScrn=  0.000000 ICntrl=      3107 IOpCl=  0 I1Cent=           0 NGrid=           0
         NMat0=    1 NMatS0=      1 NMatT0=    0 NMatD0=    1 NMtDS0=    0 NMtDT0=    0
 Petite list used in FoFCou.
 End of G2Drv F.D. properties file   721 does not exist.
 End of G2Drv F.D. properties file   722 does not exist.
 End of G2Drv F.D. properties file   788 does not exist.
 Leave Link 1110 at Mon May  9 17:10:57 2022, MaxMem=   104857600 cpu:               8.8 elap:               1.1
 (Enter /home/emanuele/chemical_software//g16/l1002.exe)
 Minotr:  Closed shell wavefunction.
          IDoAtm=1111
          Direct CPHF calculation.
          Differentiating once with respect to electric field.
                with respect to dipole field.
          Differentiating once with respect to nuclear coordinates.
          Using symmetry in CPHF.
          Requested convergence is 1.0D-08 RMS, and 1.0D-07 maximum.
          Secondary convergence is 1.0D-12 RMS, and 1.0D-12 maximum.
          NewPWx=T KeepS1=F KeepF1=F KeepIn=T MapXYZ=F SortEE=F KeepMc=T.
         1193 words used for storage of precomputed grid.
 Keep R1 ints in memory in symmetry-blocked form, NReq=15786383.
 FoFCou: FMM=F IPFlag=           0 FMFlag=           0 FMFlg1=           0
         NFxFlg=           0 DoJE=F BraDBF=F KetDBF=F FulRan=T
         wScrn=  0.000000 ICntrl=       600 IOpCl=  0 I1Cent=           0 NGrid=           0
         NMat0=    1 NMatS0=   4095 NMatT0=    0 NMatD0=    1 NMtDS0=    0 NMtDT0=    0
 Petite list used in FoFCou.
          MDV=     104857600 using IRadAn=       1.
          Solving linear equations simultaneously, MaxMat=       0.
          There are     9 degrees of freedom in the 1st order CPHF.  IDoFFX=4 NUNeed=     9.
      9 vectors produced by pass  0 Test12= 8.10D-15 1.11D-08 XBig12= 6.80D+00 1.42D+00.
 AX will form     9 AO Fock derivatives at one time.
      9 vectors produced by pass  1 Test12= 8.10D-15 1.11D-08 XBig12= 1.28D+00 4.96D-01.
      9 vectors produced by pass  2 Test12= 8.10D-15 1.11D-08 XBig12= 1.30D-01 1.33D-01.
      9 vectors produced by pass  3 Test12= 8.10D-15 1.11D-08 XBig12= 2.06D-03 1.32D-02.
      9 vectors produced by pass  4 Test12= 8.10D-15 1.11D-08 XBig12= 1.14D-05 1.20D-03.
      9 vectors produced by pass  5 Test12= 8.10D-15 1.11D-08 XBig12= 1.81D-08 3.35D-05.
      3 vectors produced by pass  6 Test12= 8.10D-15 1.11D-08 XBig12= 2.10D-11 1.05D-06.
      2 vectors produced by pass  7 Test12= 8.10D-15 1.11D-08 XBig12= 2.71D-14 3.79D-08.
 InvSVY:  IOpt=1 It=  1 EMax= 4.75D-16
 Solved reduced A of dimension    59 with     9 vectors.
 FullF1:  Do perturbations      1 to       9.
 Isotropic polarizability for W=    0.000000       11.52 Bohr**3.
 End of Minotr F.D. properties file   721 does not exist.
 End of Minotr F.D. properties file   722 does not exist.
 End of Minotr F.D. properties file   788 does not exist.
 Leave Link 1002 at Mon May  9 17:11:01 2022, MaxMem=   104857600 cpu:              24.9 elap:               3.1
 (Enter /home/emanuele/chemical_software//g16/l701.exe)
 ... and contract with generalized density number  0.
 Compute integral second derivatives.
   4 Symmetry operations used in ECPInt.
 ECPInt:  NShTT=     595 NPrTT=    1646 LenC2=     595 LenP2D=    1526.
 LDataN:  DoStor=T MaxTD1= 8 Len=  415
 Leave Link  701 at Mon May  9 17:11:01 2022, MaxMem=   104857600 cpu:               1.5 elap:               0.2
 (Enter /home/emanuele/chemical_software//g16/l702.exe)
 L702 exits ... SP integral derivatives will be done elsewhere.
 Leave Link  702 at Mon May  9 17:11:01 2022, MaxMem=   104857600 cpu:               0.2 elap:               0.0
 (Enter /home/emanuele/chemical_software//g16/l703.exe)
 Integral derivatives from FoFJK, PRISM(SPDF).
 Compute integral second derivatives, UseDBF=F ICtDFT=           0.
 Calling FoFJK, ICntrl=    100127 FMM=F ISym2X=1 I1Cent= 0 IOpClX= 0 NMat=1 NMatS=1 NMatT=0.
 FoFJK:  IHMeth= 1 ICntrl=  100127 DoSepK=F KAlg= 0 I1Cent=           0 FoldK=F
 IRaf=         0 NMat=       1 IRICut=       1 DoRegI=T DoRafI=F ISym2E= 1 IDoP0=0 IntGTp=1.
 FoFCou: FMM=F IPFlag=           0 FMFlag=      100000 FMFlg1=         800
         NFxFlg=           0 DoJE=F BraDBF=F KetDBF=F FulRan=T
         wScrn=  0.000000 ICntrl=    100127 IOpCl=  0 I1Cent=           0 NGrid=           0
         NMat0=    1 NMatS0=      1 NMatT0=    0 NMatD0=    1 NMtDS0=    0 NMtDT0=    0
 Petite list used in FoFCou.
 Leave Link  703 at Mon May  9 17:11:04 2022, MaxMem=   104857600 cpu:              21.9 elap:               2.8
 (Enter /home/emanuele/chemical_software//g16/l716.exe)
 Dipole        =-1.44751018D-15-4.68778526D-15 1.23666435D+00
 Polarizability= 8.26698530D+00 2.45710630D-11 1.43030762D+01
                -3.38614178D-12-4.85327223D-10 1.19897003D+01
 ***** Axes restored to original set *****
 -------------------------------------------------------------------
 Center     Atomic                   Forces (Hartrees/Bohr)
 Number     Number              X              Y              Z
 -------------------------------------------------------------------
      1        8          -0.105365326   -0.005943771   -0.000000000
      2        1          -0.001432847    0.005933033   -0.000000000
      3        8           0.105366519   -0.005922583    0.000000000
      4        1           0.001431654    0.005933321    0.000000000
 -------------------------------------------------------------------
 Cartesian Forces:  Max     0.105366519 RMS     0.043155599
 Force constants in Cartesian coordinates: 
                1             2             3             4             5 
      1  0.670646D+00
      2 -0.111551D+00  0.551418D+00
      3  0.000000D+00  0.000000D+00 -0.653688D-01
      4 -0.837904D-01  0.897778D-01  0.000000D+00  0.124088D+00
      5  0.164296D+00 -0.496834D+00  0.000000D+00 -0.142463D+00  0.479823D+00
      6  0.000000D+00  0.000000D+00  0.160390D-01  0.000000D+00  0.000000D+00
      7 -0.544981D+00  0.718342D-01  0.000000D+00 -0.418807D-01 -0.191963D-01
      8 -0.719313D-01 -0.624472D-01  0.000000D+00  0.500507D-01  0.786934D-02
      9  0.000000D+00  0.000000D+00  0.618868D-01  0.000000D+00  0.000000D+00
     10 -0.418745D-01 -0.500607D-01  0.000000D+00  0.158337D-02 -0.263657D-02
     11  0.191863D-01  0.786313D-02  0.000000D+00  0.263505D-02  0.914207D-02
     12  0.000000D+00  0.000000D+00 -0.125570D-01  0.000000D+00  0.000000D+00
                6             7             8             9            10 
      6 -0.117128D-01
      7  0.000000D+00  0.670601D+00
      8  0.000000D+00  0.111575D+00  0.551463D+00
      9 -0.125570D-01  0.000000D+00  0.000000D+00 -0.653688D-01
     10  0.000000D+00 -0.837394D-01 -0.896947D-01  0.000000D+00  0.124031D+00
     11  0.000000D+00 -0.164213D+00 -0.496885D+00  0.000000D+00  0.142392D+00
     12  0.823088D-02  0.000000D+00  0.000000D+00  0.160390D-01  0.000000D+00
               11            12 
     11  0.479880D+00
     12  0.000000D+00 -0.117128D-01
 FormGI is forming the generalized inverse of G from B-inverse, IUseBI=4.
 Force constants in internal coordinates: 
                1             2             3             4             5 
      1  0.529815D+00
      2 -0.691953D-02  0.627153D+00
      3  0.624218D-02 -0.691953D-02  0.529815D+00
      4 -0.537060D-02  0.820145D-01 -0.986044D-02  0.253843D+00
      5 -0.986044D-02  0.820145D-01 -0.537060D-02  0.431978D-02  0.253843D+00
      6  0.000000D+00  0.000000D+00  0.000000D+00  0.000000D+00  0.000000D+00
                6 
      6 -0.238929D-01
 Leave Link  716 at Mon May  9 17:11:04 2022, MaxMem=   104857600 cpu:               0.2 elap:               0.0
 (Enter /home/emanuele/chemical_software//g16/l103.exe)

 GradGradGradGradGradGradGradGradGradGradGradGradGradGradGradGradGradGrad
 Berny optimization.
 Using GEDIIS/GDIIS optimizer.
 Red2BG is reusing G-inverse.
 Internal  Forces:  Max     0.106798173 RMS     0.043746104
 Search for a local minimum.
 Step number   2 out of a maximum of  100
 All quantities printed in internal units (Hartrees-Bohrs-Radians)
 RMS Force = .43746D-01 SwitMx=.10000D-02 MixMth= 1
 Mixed Optimization -- RFO/linear search
 Second derivative matrix not updated -- analytic derivatives used.
 The second derivative matrix:
                          R1        R2        R3        A1        A2
           R1           0.52982
           R2          -0.00692   0.62715
           R3           0.00624  -0.00692   0.52982
           A1          -0.00537   0.08201  -0.00986   0.25384
           A2          -0.00986   0.08201  -0.00537   0.00432   0.25384
           D1           0.00000  -0.00000   0.00000   0.00000   0.00000
                          D1
           D1          -0.02389
 ITU=  0  0
 Use linear search instead of GDIIS.
     Eigenvalues ---   -0.02389   0.22428   0.24945   0.52365   0.53504
     Eigenvalues ---    0.66206
 Eigenvalue     1 is  -2.39D-02 should be greater than     0.000000 Eigenvector:
                          D1        R1        R3        A2        A1
   1                    1.00000  -0.00000  -0.00000  -0.00000  -0.00000
                          R2
   1                    0.00000
 RFO step:  Lambda=-2.38928969D-02 EMin=-2.38928939D-02
 I=     1 Eig=   -2.39D-02 Dot1=  1.20D-18
 I=     1 Stepn=  1.75D-01 RXN=   1.75D-01 EDone=F
 Mixed    1 eigenvectors in step.  Raw Step.Grad=  1.20D-18.
 RFO eigenvector is Hessian eigenvector with negative curvature.
 Taking step of  1.75D-01 in eigenvector direction(s).  Step.Grad=  1.76D-02.
 Skip linear search -- no minimum in search direction.
 Iteration  1 RMS(Cart)=  0.04793380 RMS(Int)=  0.00391274
 Iteration  2 RMS(Cart)=  0.00424590 RMS(Int)=  0.00001437
 Iteration  3 RMS(Cart)=  0.00001569 RMS(Int)=  0.00000000
 Iteration  4 RMS(Cart)=  0.00000000 RMS(Int)=  0.00000000
 ITry= 1 IFail=0 DXMaxC= 6.87D-02 DCOld= 1.00D+10 DXMaxT= 7.00D-02 DXLimC= 3.00D+00 Rises=F
 ClnCor:  largest displacement from symmetrization is 6.87D-02 for atom     3.
 Variable       Old X    -DE/DX   Delta X   Delta X   Delta X     New X
                                 (Linear)    (Quad)   (Total)
    R1        1.81044   0.00607   0.00000  -0.00000  -0.00365   1.80679
    R2        2.49061   0.10680   0.00000   0.00000  -0.00379   2.48682
    R3        1.81044   0.00607   0.00000  -0.00000  -0.00365   1.80679
    A1        1.91566  -0.00119   0.00000  -0.00000   0.00501   1.92068
    A2        1.91566  -0.00119   0.00000  -0.00000   0.00501   1.92068
    D1       -0.00000  -0.00000   0.00000   0.17500   0.00000   0.00000
         Item               Value     Threshold  Converged?
 Maximum Force            0.106798     0.000015     NO 
 RMS     Force            0.043746     0.000010     NO 
 Maximum Displacement     0.005385     0.000060     NO 
 RMS     Displacement     0.004236     0.000040     NO 
 Predicted change in Energy=-9.261668D-04
 GradGradGradGradGradGradGradGradGradGradGradGradGradGradGradGradGradGrad

 Leave Link  103 at Mon May  9 17:11:04 2022, MaxMem=   104857600 cpu:               0.0 elap:               0.0
 (Enter /home/emanuele/chemical_software//g16/l202.exe)
                          Input orientation:                          
 ---------------------------------------------------------------------
 Center     Atomic      Atomic             Coordinates (Angstroms)
 Number     Number       Type             X           Y           Z
 ---------------------------------------------------------------------
      1          8    20001021        5.110958    2.314396   -0.000000
      2          1    20001030        4.783128    3.212548   -0.000000
      3          8    20001021        6.426928    2.314528    0.000000
      4          1    20001030        6.754578    3.212746    0.000000
 ---------------------------------------------------------------------
                    Distance matrix (angstroms):
                    1          2          3          4
     1  O    0.000000
     2  H    0.956112   0.000000
     3  O    1.315970   1.873104   0.000000
     4  H    1.873104   1.971451   0.956112   0.000000
 Stoichiometry    H2O2
 Framework group  C2V[SGV(H2O2)]
 Deg. of freedom     3
 Full point group                 C2V     NOp   4
 RotChk:  IX=0 Diff= 7.61D-16
 Largest Abelian subgroup         C2V     NOp   4
 Largest concise Abelian subgroup C2      NOp   2
                         Standard orientation:                         
 ---------------------------------------------------------------------
 Center     Atomic      Atomic             Coordinates (Angstroms)
 Number     Number       Type             X           Y           Z
 ---------------------------------------------------------------------
      1          8    20001021       -0.000000    0.657985   -0.099798
      2          1    20001030        0.000000    0.985725    0.798386
      3          8    20001021       -0.000000   -0.657985   -0.099798
      4          1    20001030       -0.000000   -0.985725    0.798386
 ---------------------------------------------------------------------
 Rotational constants (GHZ):         330.3754246          31.9691571          29.1485630
 Leave Link  202 at Mon May  9 17:11:04 2022, MaxMem=   104857600 cpu:               0.0 elap:               0.0
 (Enter /home/emanuele/chemical_software//g16/l301.exe)
 Standard basis: def2TZVPP (5D, 7F)
 Ernie: Thresh=  0.10000D-02 Tol=  0.10000D-05 Strict=F.
 There are    36 symmetry adapted cartesian basis functions of A1  symmetry.
 There are    15 symmetry adapted cartesian basis functions of A2  symmetry.
 There are    15 symmetry adapted cartesian basis functions of B1  symmetry.
 There are    36 symmetry adapted cartesian basis functions of B2  symmetry.
 There are    31 symmetry adapted basis functions of A1  symmetry.
 There are    14 symmetry adapted basis functions of A2  symmetry.
 There are    14 symmetry adapted basis functions of B1  symmetry.
 There are    31 symmetry adapted basis functions of B2  symmetry.
    90 basis functions,   136 primitive gaussians,   102 cartesian basis functions
     9 alpha electrons        9 beta electrons
       nuclear repulsion energy        39.3797707241 Hartrees.
 IExCor=  402 DFT=T Ex+Corr=B3LYP ExCW=0 ScaHFX=  0.200000
 ScaDFX=  0.800000  0.720000  1.000000  0.810000 ScalE2=  1.000000  1.000000
 IRadAn=      5 IRanWt=     -1 IRanGd=            0 ICorTp=0 IEmpDi=  4
 NAtoms=    4 NActive=    4 NUniq=    2 SFac= 4.00D+00 NAtFMM=   60 NAOKFM=F Big=F
 Integral buffers will be    131072 words long.
 Raffenetti 2 integral format.
 Two-electron integral symmetry is turned on.
 Leave Link  301 at Mon May  9 17:11:04 2022, MaxMem=   104857600 cpu:               0.2 elap:               0.0
 (Enter /home/emanuele/chemical_software//g16/l302.exe)
 NPDir=0 NMtPBC=     1 NCelOv=     1 NCel=       1 NClECP=     1 NCelD=      1
         NCelK=      1 NCelE2=     1 NClLst=     1 CellRange=     0.0.
 One-electron integrals computed using PRISM.
 One-electron integral symmetry used in STVInt
   4 Symmetry operations used in ECPInt.
 ECPInt:  NShTT=     595 NPrTT=    1646 LenC2=     595 LenP2D=    1526.
 LDataN:  DoStor=T MaxTD1= 6 Len=  172
 NBasis=    90 RedAO= T EigKep=  1.65D-03  NBF=    31    14    14    31
 NBsUse=    90 1.00D-06 EigRej= -1.00D+00 NBFU=    31    14    14    31
 Precomputing XC quadrature grid using
 IXCGrd= 4 IRadAn=           5 IRanWt=          -1 IRanGd=           0 AccXCQ= 0.00D+00.
 Generated NRdTot=       0 NPtTot=           0 NUsed=           0 NTot=          32
 NSgBfM=   102   102   102   102   102 MxSgAt=     4 MxSgA2=     4.
 Leave Link  302 at Mon May  9 17:11:04 2022, MaxMem=   104857600 cpu:               0.9 elap:               0.1
 (Enter /home/emanuele/chemical_software//g16/l303.exe)
 DipDrv:  MaxL=1.
 Leave Link  303 at Mon May  9 17:11:04 2022, MaxMem=   104857600 cpu:               0.2 elap:               0.0
 (Enter /home/emanuele/chemical_software//g16/l401.exe)
 Lowest energy guess from the checkpoint file:  "qm.chk"
 B after Tr=     0.000000    0.000000    0.000000
         Rot=    1.000000   -0.000000    0.000000    0.000000 Ang=   0.00 deg.
 Guess basis will be translated and rotated to current coordinates.
 B after Tr=     0.000000    0.000000   -0.000000
         Rot=    1.000000   -0.000000    0.000000    0.000000 Ang=   0.00 deg.
 Guess basis will be translated and rotated to current coordinates.
 CkInt1:  FT=-1.67D+01
 Max alpha theta=  0.077 degrees.
 JPrj=2 DoOrth=T DoCkMO=T.
 Initial guess orbital symmetries:
       Occupied  (A1) (B2) (A1) (B2) (A2) (B1) (A1) (B2) (A1)
       Virtual   (A1) (B2) (A1) (B2) (A2) (B1) (A1) (B2) (A1) (B2)
                 (B2) (B2) (B2) (B2) (B2) (B2) (B2) (B2) (B2) (B2)
                 (B2) (B2) (B2) (B2) (B2) (B2) (B2) (B2) (B2) (B2)
                 (B2) (B2) (B2) (B2) (B2) (B2) (B2) (B2) (B2) (B2)
                 (B2) (B2) (B2) (B2) (B2) (B1) (B2) (B2) (B2) (B2)
                 (B2) (B2) (B2) (B2) (B2) (B2) (B2) (B2) (B2) (B2)
                 (B2) (B2) (B2) (B2) (B2) (B2) (B2) (B2) (B1) (B2)
                 (B2) (B2) (B2) (B2) (B2) (B2) (B2) (B2) (B2) (B2)
                 (B2)
 The electronic state of the initial guess is 1-A1.
 Leave Link  401 at Mon May  9 17:11:04 2022, MaxMem=   104857600 cpu:               0.6 elap:               0.1
 (Enter /home/emanuele/chemical_software//g16/l502.exe)
 Keep R1 ints in memory in symmetry-blocked form, NReq=15810514.
 FoFCou: FMM=F IPFlag=           0 FMFlag=           0 FMFlg1=           0
         NFxFlg=           0 DoJE=F BraDBF=F KetDBF=F FulRan=T
         wScrn=  0.000000 ICntrl=       600 IOpCl=  0 I1Cent=           0 NGrid=           0
         NMat0=    1 NMatS0=   4095 NMatT0=    0 NMatD0=    1 NMtDS0=    0 NMtDT0=    0
 Petite list used in FoFCou.
 Closed shell SCF:
 Using DIIS extrapolation, IDIIS=  1040.
 NGot=   104857600 LenX=   102677086 LenY=   102666241
 Requested convergence on RMS density matrix=1.00D-08 within 128 cycles.
 Requested convergence on MAX density matrix=1.00D-06.
 Requested convergence on             energy=1.00D-06.
 No special actions if energy rises.
 An orbital has undefined symmetry, so N**3 symmetry is turned off.

 Cycle   1  Pass 1  IDiag  1:
 E= -151.592912581865    
 DIIS: error= 6.58D-03 at cycle   1 NSaved=   1.
 NSaved= 1 IEnMin= 1 EnMin= -151.592912581865     IErMin= 1 ErrMin= 6.58D-03
 ErrMax= 6.58D-03  0.00D+00 EMaxC= 1.00D-01 BMatC= 4.04D-03 BMatP= 4.04D-03
 IDIUse=3 WtCom= 9.34D-01 WtEn= 6.58D-02
 Coeff-Com:  0.100D+01
 Coeff-En:   0.100D+01
 Coeff:      0.100D+01
 Gap=    19.693 Goal=   None    Shift=    0.000
 GapD=   19.693 DampG=2.000 DampE=1.000 DampFc=2.0000 IDamp=-1.
 RMSDP=5.46D-04 MaxDP=6.85D-03              OVMax= 2.31D-02

 Cycle   2  Pass 1  IDiag  1:
 E= -151.596373522712     Delta-E=       -0.003460940848 Rises=F Damp=F
 DIIS: error= 1.46D-03 at cycle   2 NSaved=   2.
 NSaved= 2 IEnMin= 2 EnMin= -151.596373522712     IErMin= 2 ErrMin= 1.46D-03
 ErrMax= 1.46D-03  0.00D+00 EMaxC= 1.00D-01 BMatC= 1.31D-04 BMatP= 4.04D-03
 IDIUse=3 WtCom= 9.85D-01 WtEn= 1.46D-02
 Coeff-Com:  0.301D-01 0.970D+00
 Coeff-En:   0.000D+00 0.100D+01
 Coeff:      0.297D-01 0.970D+00
 Gap=     0.233 Goal=   None    Shift=    0.000
 RMSDP=1.47D-04 MaxDP=3.32D-03 DE=-3.46D-03 OVMax= 4.62D-03

 Cycle   3  Pass 1  IDiag  1:
 E= -151.596377676271     Delta-E=       -0.000004153559 Rises=F Damp=F
 DIIS: error= 1.57D-03 at cycle   3 NSaved=   3.
 NSaved= 3 IEnMin= 3 EnMin= -151.596377676271     IErMin= 2 ErrMin= 1.46D-03
 ErrMax= 1.57D-03  0.00D+00 EMaxC= 1.00D-01 BMatC= 1.42D-04 BMatP= 1.31D-04
 IDIUse=3 WtCom= 9.84D-01 WtEn= 1.57D-02
 Coeff-Com: -0.156D-01 0.515D+00 0.501D+00
 Coeff-En:   0.000D+00 0.488D+00 0.512D+00
 Coeff:     -0.153D-01 0.514D+00 0.501D+00
 Gap=     0.237 Goal=   None    Shift=    0.000
 RMSDP=7.56D-05 MaxDP=1.63D-03 DE=-4.15D-06 OVMax= 2.73D-03

 Cycle   4  Pass 1  IDiag  1:
 E= -151.596470011292     Delta-E=       -0.000092335021 Rises=F Damp=F
 DIIS: error= 2.24D-04 at cycle   4 NSaved=   4.
 NSaved= 4 IEnMin= 4 EnMin= -151.596470011292     IErMin= 4 ErrMin= 2.24D-04
 ErrMax= 2.24D-04  0.00D+00 EMaxC= 1.00D-01 BMatC= 3.45D-06 BMatP= 1.31D-04
 IDIUse=3 WtCom= 9.98D-01 WtEn= 2.24D-03
 Coeff-Com: -0.790D-02 0.140D+00 0.199D+00 0.669D+00
 Coeff-En:   0.000D+00 0.000D+00 0.000D+00 0.100D+01
 Coeff:     -0.788D-02 0.139D+00 0.199D+00 0.670D+00
 Gap=     0.236 Goal=   None    Shift=    0.000
 RMSDP=1.26D-05 MaxDP=2.28D-04 DE=-9.23D-05 OVMax= 4.86D-04

 Cycle   5  Pass 1  IDiag  1:
 E= -151.596472462714     Delta-E=       -0.000002451422 Rises=F Damp=F
 DIIS: error= 2.38D-05 at cycle   5 NSaved=   5.
 NSaved= 5 IEnMin= 5 EnMin= -151.596472462714     IErMin= 5 ErrMin= 2.38D-05
 ErrMax= 2.38D-05  0.00D+00 EMaxC= 1.00D-01 BMatC= 3.10D-08 BMatP= 3.45D-06
 IDIUse=1 WtCom= 1.00D+00 WtEn= 0.00D+00
 Coeff-Com: -0.184D-03-0.567D-02 0.169D-02 0.951D-01 0.909D+00
 Coeff:     -0.184D-03-0.567D-02 0.169D-02 0.951D-01 0.909D+00
 Gap=     0.236 Goal=   None    Shift=    0.000
 RMSDP=1.74D-06 MaxDP=2.24D-05 DE=-2.45D-06 OVMax= 6.20D-05

 Cycle   6  Pass 1  IDiag  1:
 E= -151.596472488082     Delta-E=       -0.000000025368 Rises=F Damp=F
 DIIS: error= 1.62D-06 at cycle   6 NSaved=   6.
 NSaved= 6 IEnMin= 6 EnMin= -151.596472488082     IErMin= 6 ErrMin= 1.62D-06
 ErrMax= 1.62D-06  0.00D+00 EMaxC= 1.00D-01 BMatC= 1.50D-10 BMatP= 3.10D-08
 IDIUse=1 WtCom= 1.00D+00 WtEn= 0.00D+00
 Coeff-Com:  0.439D-04-0.180D-02-0.136D-02 0.289D-02 0.900D-01 0.910D+00
 Coeff:      0.439D-04-0.180D-02-0.136D-02 0.289D-02 0.900D-01 0.910D+00
 Gap=     0.236 Goal=   None    Shift=    0.000
 RMSDP=1.05D-07 MaxDP=1.08D-06 DE=-2.54D-08 OVMax= 3.59D-06

 Cycle   7  Pass 1  IDiag  1:
 E= -151.596472488183     Delta-E=       -0.000000000101 Rises=F Damp=F
 DIIS: error= 3.18D-07 at cycle   7 NSaved=   7.
 NSaved= 7 IEnMin= 7 EnMin= -151.596472488183     IErMin= 7 ErrMin= 3.18D-07
 ErrMax= 3.18D-07  0.00D+00 EMaxC= 1.00D-01 BMatC= 1.01D-11 BMatP= 1.50D-10
 IDIUse=1 WtCom= 1.00D+00 WtEn= 0.00D+00
 Coeff-Com:  0.168D-04-0.323D-03-0.375D-03-0.185D-02 0.231D-02 0.216D+00
 Coeff-Com:  0.784D+00
 Coeff:      0.168D-04-0.323D-03-0.375D-03-0.185D-02 0.231D-02 0.216D+00
 Coeff:      0.784D+00
 Gap=     0.236 Goal=   None    Shift=    0.000
 RMSDP=2.19D-08 MaxDP=2.87D-07 DE=-1.01D-10 OVMax= 1.03D-06

 Cycle   8  Pass 1  IDiag  1:
 E= -151.596472488190     Delta-E=       -0.000000000006 Rises=F Damp=F
 DIIS: error= 7.73D-08 at cycle   8 NSaved=   8.
 NSaved= 8 IEnMin= 8 EnMin= -151.596472488190     IErMin= 8 ErrMin= 7.73D-08
 ErrMax= 7.73D-08  0.00D+00 EMaxC= 1.00D-01 BMatC= 2.23D-13 BMatP= 1.01D-11
 IDIUse=1 WtCom= 1.00D+00 WtEn= 0.00D+00
 Coeff-Com:  0.337D-06 0.771D-05-0.104D-06-0.304D-03-0.145D-02-0.917D-02
 Coeff-Com:  0.898D-01 0.921D+00
 Coeff:      0.337D-06 0.771D-05-0.104D-06-0.304D-03-0.145D-02-0.917D-02
 Coeff:      0.898D-01 0.921D+00
 Gap=     0.236 Goal=   None    Shift=    0.000
 RMSDP=3.58D-09 MaxDP=6.20D-08 DE=-6.45D-12 OVMax= 1.17D-07

 SCF Done:  E(RB3LYP) =  -151.596472488     A.U. after    8 cycles
            NFock=  8  Conv=0.36D-08     -V/T= 2.0019
 KE= 1.513139149551D+02 PE=-4.377106108923D+02 EE= 9.542045272491D+01
 Leave Link  502 at Mon May  9 17:11:05 2022, MaxMem=   104857600 cpu:               5.5 elap:               0.7
 (Enter /home/emanuele/chemical_software//g16/l801.exe)
 DoSCS=F DFT=T ScalE2(SS,OS)=  1.000000  1.000000
 Range of M.O.s used for correlation:     1    90
 NBasis=    90 NAE=     9 NBE=     9 NFC=     0 NFV=     0
 NROrb=     90 NOA=     9 NOB=     9 NVA=    81 NVB=    81
 Leave Link  801 at Mon May  9 17:11:05 2022, MaxMem=   104857600 cpu:               0.2 elap:               0.0
 (Enter /home/emanuele/chemical_software//g16/l1101.exe)
 Using compressed storage, NAtomX=     4.
 Will process      5 centers per pass.
   4 Symmetry operations used in ECPInt.
 ECPInt:  NShTT=     595 NPrTT=    1646 LenC2=     595 LenP2D=    1526.
 LDataN:  DoStor=T MaxTD1= 7 Len=  274
 Leave Link 1101 at Mon May  9 17:11:05 2022, MaxMem=   104857600 cpu:               1.0 elap:               0.1
 (Enter /home/emanuele/chemical_software//g16/l1102.exe)
 Symmetrizing basis deriv contribution to polar:
 IMax=3 JMax=2 DiffMx= 0.00D+00
 Leave Link 1102 at Mon May  9 17:11:05 2022, MaxMem=   104857600 cpu:               0.2 elap:               0.0
 (Enter /home/emanuele/chemical_software//g16/l1110.exe)
 Forming Gx(P) for the SCF density, NAtomX=     4.
 Integral derivatives from FoFJK, PRISM(SPDF).
 Do as many integral derivatives as possible in FoFJK.
 G2DrvN: MDV=     104857068.
 G2DrvN: will do     5 centers at a time, making    1 passes.
 Calling FoFCou, ICntrl=  3107 FMM=F I1Cent=   0 AccDes= 0.00D+00.
 FoFJK:  IHMeth= 1 ICntrl=    3107 DoSepK=F KAlg= 0 I1Cent=           0 FoldK=F
 IRaf=         0 NMat=       1 IRICut=       1 DoRegI=T DoRafI=F ISym2E= 1 IDoP0=0 IntGTp=1.
 FoFCou: FMM=F IPFlag=           0 FMFlag=      100000 FMFlg1=           0
         NFxFlg=           0 DoJE=F BraDBF=F KetDBF=F FulRan=T
         wScrn=  0.000000 ICntrl=      3107 IOpCl=  0 I1Cent=           0 NGrid=           0
         NMat0=    1 NMatS0=      1 NMatT0=    0 NMatD0=    1 NMtDS0=    0 NMtDT0=    0
 Petite list used in FoFCou.
 End of G2Drv F.D. properties file   721 does not exist.
 End of G2Drv F.D. properties file   722 does not exist.
 End of G2Drv F.D. properties file   788 does not exist.
 Leave Link 1110 at Mon May  9 17:11:06 2022, MaxMem=   104857600 cpu:               8.9 elap:               1.1
 (Enter /home/emanuele/chemical_software//g16/l1002.exe)
 Minotr:  Closed shell wavefunction.
          IDoAtm=1111
          Direct CPHF calculation.
          Differentiating once with respect to electric field.
                with respect to dipole field.
          Differentiating once with respect to nuclear coordinates.
          Using symmetry in CPHF.
          Requested convergence is 1.0D-08 RMS, and 1.0D-07 maximum.
          Secondary convergence is 1.0D-12 RMS, and 1.0D-12 maximum.
          NewPWx=T KeepS1=F KeepF1=F KeepIn=T MapXYZ=F SortEE=F KeepMc=T.
         1193 words used for storage of precomputed grid.
 Keep R1 ints in memory in symmetry-blocked form, NReq=15786383.
 FoFCou: FMM=F IPFlag=           0 FMFlag=           0 FMFlg1=           0
         NFxFlg=           0 DoJE=F BraDBF=F KetDBF=F FulRan=T
         wScrn=  0.000000 ICntrl=       600 IOpCl=  0 I1Cent=           0 NGrid=           0
         NMat0=    1 NMatS0=   4095 NMatT0=    0 NMatD0=    1 NMtDS0=    0 NMtDT0=    0
 Petite list used in FoFCou.
          MDV=     104857600 using IRadAn=       1.
          Solving linear equations simultaneously, MaxMat=       0.
          There are     9 degrees of freedom in the 1st order CPHF.  IDoFFX=4 NUNeed=     9.
      9 vectors produced by pass  0 Test12= 8.10D-15 1.11D-08 XBig12= 6.76D+00 1.41D+00.
 AX will form     9 AO Fock derivatives at one time.
      9 vectors produced by pass  1 Test12= 8.10D-15 1.11D-08 XBig12= 1.25D+00 4.90D-01.
      9 vectors produced by pass  2 Test12= 8.10D-15 1.11D-08 XBig12= 1.25D-01 1.30D-01.
      9 vectors produced by pass  3 Test12= 8.10D-15 1.11D-08 XBig12= 2.04D-03 1.29D-02.
      9 vectors produced by pass  4 Test12= 8.10D-15 1.11D-08 XBig12= 1.10D-05 1.20D-03.
      9 vectors produced by pass  5 Test12= 8.10D-15 1.11D-08 XBig12= 1.72D-08 3.30D-05.
      3 vectors produced by pass  6 Test12= 8.10D-15 1.11D-08 XBig12= 1.97D-11 1.02D-06.
      2 vectors produced by pass  7 Test12= 8.10D-15 1.11D-08 XBig12= 2.55D-14 3.67D-08.
 InvSVY:  IOpt=1 It=  1 EMax= 4.44D-16
 Solved reduced A of dimension    59 with     9 vectors.
 FullF1:  Do perturbations      1 to       9.
 Isotropic polarizability for W=    0.000000       11.49 Bohr**3.
 End of Minotr F.D. properties file   721 does not exist.
 End of Minotr F.D. properties file   722 does not exist.
 End of Minotr F.D. properties file   788 does not exist.
 Leave Link 1002 at Mon May  9 17:11:09 2022, MaxMem=   104857600 cpu:              24.8 elap:               3.1
 (Enter /home/emanuele/chemical_software//g16/l701.exe)
 ... and contract with generalized density number  0.
 Compute integral second derivatives.
   4 Symmetry operations used in ECPInt.
 ECPInt:  NShTT=     595 NPrTT=    1646 LenC2=     595 LenP2D=    1526.
 LDataN:  DoStor=T MaxTD1= 8 Len=  415
 Leave Link  701 at Mon May  9 17:11:09 2022, MaxMem=   104857600 cpu:               1.5 elap:               0.2
 (Enter /home/emanuele/chemical_software//g16/l702.exe)
 L702 exits ... SP integral derivatives will be done elsewhere.
 Leave Link  702 at Mon May  9 17:11:09 2022, MaxMem=   104857600 cpu:               0.2 elap:               0.0
 (Enter /home/emanuele/chemical_software//g16/l703.exe)
 Integral derivatives from FoFJK, PRISM(SPDF).
 Compute integral second derivatives, UseDBF=F ICtDFT=           0.
 Calling FoFJK, ICntrl=    100127 FMM=F ISym2X=1 I1Cent= 0 IOpClX= 0 NMat=1 NMatS=1 NMatT=0.
 FoFJK:  IHMeth= 1 ICntrl=  100127 DoSepK=F KAlg= 0 I1Cent=           0 FoldK=F
 IRaf=         0 NMat=       1 IRICut=       1 DoRegI=T DoRafI=F ISym2E= 1 IDoP0=0 IntGTp=1.
 FoFCou: FMM=F IPFlag=           0 FMFlag=      100000 FMFlg1=         800
         NFxFlg=           0 DoJE=F BraDBF=F KetDBF=F FulRan=T
         wScrn=  0.000000 ICntrl=    100127 IOpCl=  0 I1Cent=           0 NGrid=           0
         NMat0=    1 NMatS0=      1 NMatT0=    0 NMatD0=    1 NMtDS0=    0 NMtDT0=    0
 Petite list used in FoFCou.
[...]
 Traceless Quadrupole moment (field-independent basis, Debye-Ang):
   XX=             -1.9076   YY=              0.2507   ZZ=              1.6569
   XY=              0.0000   XZ=             -0.0000   YZ=             -0.0000
 Octapole moment (field-independent basis, Debye-Ang**2):
  XXX=              0.0000  YYY=              0.0000  ZZZ=              3.2267  XYY=              0.0000
  XXY=              0.0000  XXZ=              0.4188  XZZ=              0.0000  YZZ=              0.0000
  YYZ=              3.9856  XYZ=              0.0000
 Hexadecapole moment (field-independent basis, Debye-Ang**3):
 XXXX=            -10.3685 YYYY=            -44.8979 ZZZZ=            -10.9210 XXXY=             -0.0000
 XXXZ=             -0.0000 YYYX=             -0.0000 YYYZ=             -0.0000 ZZZX=             -0.0000
 ZZZY=             -0.0000 XXYY=            -10.9088 XXZZ=             -3.9744 YYZZ=             -8.1318
 XXYZ=             -0.0000 YYXZ=             -0.0000 ZZXY=             -0.0000
 N-N= 3.672375742296D+01 E-N=-4.322864567820D+02  KE= 1.510446991630D+02
 Symmetry A1   KE= 7.213429326153D+01
 Symmetry A2   KE= 5.445435423020D+00
 Symmetry B1   KE= 4.356395262455D+00
 Symmetry B2   KE= 6.910857521602D+01
  Exact polarizability:       8.394       0.000      16.802       0.000       0.000      12.439
 Approx polarizability:       9.930       0.000      23.580      -0.000       0.000      16.999
 No NMR shielding tensors so no spin-rotation constants.
 Leave Link  601 at Mon May  9 17:24:43 2022, MaxMem=   104857600 cpu:               0.7 elap:               0.1
 (Enter /home/emanuele/chemical_software//g16/l716.exe)
 Rotating derivatives to standard orientation.
 Dipole        =-1.57379999D-15-2.95716143D-16 1.24060520D+00
 Polarizability= 8.39430577D+00 3.07400388D-12 1.68023279D+01
                 7.44126480D-12 5.15422858D-08 1.24389472D+01
 Full mass-weighted force constant matrix:
 Low frequencies --- -634.5055 -228.1085  -77.7959  -44.4054   -0.0007    0.0009
 Low frequencies ---    0.0017  953.6089 1318.3489
 ******    1 imaginary frequencies (negative Signs) ****** 
 Diagonal vibrational polarizability:
        0.0000000       0.6890547       0.0550850

 rotorrotorrotorrotorrotorrotorrotorrotorrotorrotorrotor

           Hindered Internal Rotation Analysis

 rotorrotorrotorrotorrotorrotorrotorrotorrotorrotorrotor

 Internal coordinate list sorted
 Checking for planar centers
 Checking for ring deformation
 Checking reduced barrier height
 Cut-off : V/RT =     33.756
 Number of internal rotation degrees of freedom =             1
 Checking correspondance between vibrational and internal rotation modes
 Frequencies in cm**-1
                             1
       Frequencies ---  -634.4590
         -634.4590         1.0000
          953.6089         0.0000
 ----------------------------------------------------------------------------
 Identification of rotating group for bond      1 -      3
 Iteration  1 RMS(Cart)=  0.05962596 RMS(Int)=  0.02620513
 Iteration  2 RMS(Cart)=  0.02025824 RMS(Int)=  0.00057394
 Iteration  3 RMS(Cart)=  0.00055667 RMS(Int)=  0.00000026
 Iteration  4 RMS(Cart)=  0.00000029 RMS(Int)=  0.00000000
 Iteration  1 RMS(Cart)=  0.00000000 RMS(Int)=  0.00000000
 Composition of rotating group : 
       4
 Geometrical symmetry number =   1
 Checking constant moment of inertia assumption for bond       1 -       3
  Free rotor partition function: Estimated error   =  -29.406 %
  External rot. free rotor partition function: Estimated error   = -288.781 %

    Rotor          Bond     Periodicity   Symmetry Number  Multiplicity
       1)        1       3       2               1                1
 Normal Mode Analysis for Internal Rotation 
 frequencies (cm**-1), reduced moment of inertia (amu*Bohr**2)
                           1
       Frequencies ---  -634.4590
   Reduced Moments ---     0.3446
     Bond
         1 -       3       1.0000

 --------------------------------------------------
 - Thermochemistry For Hindered Internal Rotation -
 --------------------------------------------------
 Temperature    298.150 Kelvin. Pressure    1.00000 Atm.

                           Q                Freq               V/RT
                      (Free Rot.)         (cm**-1)

 Corrections for hindered rotation 
 To obtain partition function for hindered rotation :
                     Multiply with harmonic oscillator partition function
 To obtain thermodynamic function for hindered rotation :
                     Add to harmonic oscillator partition function

                          Q(harm. osc.) =       1.000
 Q(hin.)/Q(harm. osc.)   Truhlar        Pitzer & Gwinn       McClurg 
 Multiplicity             1.000             1.000             1.000
 Total                    1.000             1.000             1.000

                          E(harm. osc.) =       0.000 Kcal/mol
 E(hin.)-E(harm. osc.)   Truhlar        Pitzer & Gwinn       McClurg 
                        Kcal/mol          Kcal/mol          Kcal/mol
 Total                    0.000             0.000             0.000

                          S(harm. osc.) =       0.000 cal/mol-Kelvin
 S(hin.)-S(harm. osc.)   Truhlar        Pitzer & Gwinn       McClurg 
                       cal/mol-Kelvin    cal/mol-Kelvin    cal/mol-Kelvin
 Multiplicity             0.000             0.000             0.000
 Total                    0.000             0.000             0.000

                          Cv(harm. osc.) =       0.000 cal/mol-Kelvin
 Cv(hin.)-Cv(harm. osc)  Truhlar        Pitzer & Gwinn       McClurg 
                       cal/mol-Kelvin    cal/mol-Kelvin    cal/mol-Kelvin
 Total                    0.000             0.000             0.000
 Harmonic frequencies (cm**-1), IR intensities (KM/Mole), Raman scattering
 activities (A**4/AMU), depolarization ratios for plane and unpolarized
 incident light, reduced masses (AMU), force constants (mDyne/A),
 and normal coordinates:
                      1                      2                      3
                     ?A                     ?B                     A1
 Frequencies --   -634.4590               953.6089              1318.3489
 Red. masses --      1.1180                14.7404                 1.0113
 Frc consts  --      0.2652                 7.8977                 1.0356
 IR Inten    --      0.0000                 0.0000                 0.2192
  Atom  AN      X      Y      Z        X      Y      Z        X      Y      Z
     1   8    -0.06  -0.00  -0.00    -0.00   2.60  -0.05    -0.00   0.00   0.01
     2   1     0.74  -0.00   0.00     0.00   0.17   0.77     0.00   0.69  -0.17
     3   8     0.06   0.00  -0.00     0.00  -2.60  -0.05     0.00  -0.00   0.01
     4   1    -0.74   0.00   0.00    -0.00  -0.17   0.77    -0.00  -0.69  -0.17
                      4                      5                      6
                     ?C                     ?D                     ?E
 Frequencies --   1444.9055              3794.0770              3835.9078
 Red. masses --      1.1976                 1.0696                 1.0693
 Frc consts  --      1.4731                 9.0715                 9.2702
 IR Inten    --     50.4960                20.4117                28.2632
  Atom  AN      X      Y      Z        X      Y      Z        X      Y      Z
     1   8    -0.00  -0.05   0.07    -0.00  -0.01  -0.05     0.00  -0.01  -0.04
     2   1     0.00   0.76  -0.14     0.00   0.19   0.70    -0.00   0.19   0.71
     3   8     0.00  -0.05  -0.07     0.00  -0.01   0.05    -0.00   0.01  -0.04
     4   1    -0.00   0.76   0.14    -0.00   0.19  -0.70     0.00  -0.19   0.71

 -------------------
 - Thermochemistry -
 -------------------
 Temperature   298.150 Kelvin.  Pressure   1.00000 Atm.
 Atom     1 has atomic number  8 and mass  15.99491
 Atom     2 has atomic number  1 and mass   1.00783
 Atom     3 has atomic number  8 and mass  15.99491
 Atom     4 has atomic number  1 and mass   1.00783
 Molecular mass:    34.00548 amu.
 Principal axes and moments of inertia in atomic units:
                           1         2         3
     Eigenvalues --     5.79623  67.30638  73.10261
           X            0.00000  -0.00000   1.00000
           Y            1.00000   0.00000  -0.00000
           Z           -0.00000   1.00000   0.00000
 This molecule is an asymmetric top.
 Rotational symmetry number  2.
 Rotational temperatures (Kelvin)     14.94315     1.28686     1.18483
 Rotational constants (GHZ):         311.36476    26.81382    24.68778
    1 imaginary frequencies ignored.
 Zero-point vibrational energy      67869.2 (Joules/Mol)
                                   16.22113 (Kcal/Mol)
 Identified internal rotation modes:
   12
 Vibrational temperatures:   1372.03  1896.81  2078.90  5458.83  5519.02
          (Kelvin)
 
 Zero-point correction=                           0.025850 (Hartree/Particle)
 Thermal correction to Energy=                    0.028743
 Thermal correction to Enthalpy=                  0.029687
 Thermal correction to Gibbs Free Energy=         0.004375
 Sum of electronic and zero-point Energies=           -151.583689
 Sum of electronic and thermal Energies=              -151.580796
 Sum of electronic and thermal Enthalpies=            -151.579852
 Sum of electronic and thermal Free Energies=         -151.605164
 
                     E (Thermal)             CV                S
                      KCal/Mol        Cal/Mol-Kelvin    Cal/Mol-Kelvin
 Total                   18.037              6.622             53.274
 Corrected for 
 internal rot.           18.037              6.622             53.274
 Electronic               0.000              0.000              0.000
 Translational            0.889              2.981             36.503
 Rotational               0.889              2.981             16.618
 Vibrational             16.259              0.661              0.153
                       Q            Log10(Q)             Ln(Q)
 Total Bot       0.971679D-02         -2.012477         -4.633900
 Corrected for 
 Internal rot.   0.971679D-02         -2.012477         -4.633900
 Total V=0       0.754566D+10          9.877697         22.744238
 Corrected for 
 Internal rot.   0.754566D+10          9.877697         22.744238
 Vib (Bot)       0.130426D-11        -11.884637        -27.365388
 Vib (V=0)       0.101283D+01          0.005537          0.012749
 Electronic      0.100000D+01          0.000000          0.000000
 Translational   0.779430D+07          6.891777         15.868904
 Rotational      0.955835D+03          2.980383          6.862585
 
                                                         Title Card Required
                                                             IR Spectrum
 
     3 3                                                                             1   1                                           
     8 7                                                                             4   3           9                               
     3 9                                                                             4   1           5                               
     6 4                                                                             5   8           4                               
 
     X X                                                                             X   X                                           
     X X                                                                             X                                               
     X X                                                                             X                                               
     X X                                                                             X                                               
     X X                                                                             X                                               
     X X                                                                             X                                               
     X X                                                                             X                                               
     X X                                                                             X                                               
     X                                                                               X                                               
     X                                                                               X                                               
     X                                                                               X                                               
                                                                                     X                                               
                                                                                     X                                               
                                                                                     X                                               
                                                                                     X                                               
                                                                                     X                                               
                                                                                     X                                               
                                                                                     X                                               
                                                                                     X                                               
                                                                                     X                                               
 
 ***** Axes restored to original set *****
 -------------------------------------------------------------------
 Center     Atomic                   Forces (Hartrees/Bohr)
 Number     Number              X              Y              Z
 -------------------------------------------------------------------
      1        8          -0.003073415   -0.003249338   -0.000000000
      2        1           0.000866828    0.003249116   -0.000000000
      3        8           0.003074068   -0.003248720    0.000000000
      4        1          -0.000867481    0.003248942    0.000000000
 -------------------------------------------------------------------
 Cartesian Forces:  Max     0.003249338 RMS     0.002284448
 Force constants in Cartesian coordinates: 
                1             2             3             4             5 
      1  0.349817D+00
      2 -0.928871D-01  0.573883D+00
      3  0.000000D+00  0.000000D+00 -0.152031D-01
      4 -0.692244D-01  0.735545D-01  0.000000D+00  0.974849D-01
      5  0.135352D+00 -0.502708D+00  0.000000D+00 -0.115994D+00  0.489606D+00
      6  0.000000D+00  0.000000D+00  0.105605D-01  0.000000D+00  0.000000D+00
      7 -0.251264D+00  0.601567D-01  0.000000D+00 -0.293327D-01 -0.177338D-01
      8 -0.601916D-01 -0.772898D-01  0.000000D+00  0.408169D-01  0.611881D-02
      9  0.000000D+00  0.000000D+00  0.133362D-01  0.000000D+00  0.000000D+00
     10 -0.293280D-01 -0.408240D-01  0.000000D+00  0.107213D-02 -0.162406D-02
     11  0.177266D-01  0.611417D-02  0.000000D+00  0.162287D-02  0.698339D-02
     12  0.000000D+00  0.000000D+00 -0.869356D-02  0.000000D+00  0.000000D+00
                6             7             8             9            10 
      6 -0.774939D-02
      7  0.000000D+00  0.349779D+00
      8  0.000000D+00  0.928420D-01  0.573921D+00
      9 -0.869356D-02  0.000000D+00  0.000000D+00 -0.152031D-01
     10  0.000000D+00 -0.691824D-01 -0.734673D-01  0.000000D+00  0.974383D-01
     11  0.000000D+00 -0.135265D+00 -0.502750D+00  0.000000D+00  0.115915D+00
     12  0.588249D-02  0.000000D+00  0.000000D+00  0.105605D-01  0.000000D+00
               11            12 
     11  0.489652D+00
     12  0.000000D+00 -0.774939D-02
 Red2BG is reusing G-inverse.
 Force constants in internal coordinates: 
                1             2             3             4             5 
      1  0.521275D+00
      2 -0.108000D-01  0.308853D+00
      3  0.550813D-02 -0.108000D-01  0.521275D+00
      4 -0.878742D-02  0.591254D-01 -0.639167D-02  0.223029D+00
      5 -0.639167D-02  0.591254D-01 -0.878742D-02  0.133527D-02  0.223029D+00
      6  0.000000D+00  0.000000D+00  0.000000D+00  0.000000D+00  0.000000D+00
                6 
      6 -0.179947D-01
 Leave Link  716 at Mon May  9 17:24:43 2022, MaxMem=   104857600 cpu:               0.5 elap:               0.1
 (Enter /home/emanuele/chemical_software//g16/l9999.exe)

 ----------------------------------------------------------------------

 Electric dipole moment (input orientation):
 (Debye = 10**-18 statcoulomb cm , SI units = C m)
                  (au)            (Debye)         (10**-30 SI)
   Tot        0.124061D+01      0.315330D+01      0.105183D+02
   x         -0.124737D-03     -0.317050D-03     -0.105756D-02
   y          0.124061D+01      0.315330D+01      0.105183D+02
   z          0.000000D+00      0.000000D+00      0.000000D+00

 Dipole polarizability, Alpha (input orientation).
 (esu units = cm**3 , SI units = C**2 m**2 J**-1)
 Alpha(0;0):
               (au)            (10**-24 esu)      (10**-40 SI)
   iso        0.125452D+02      0.185901D+01      0.206842D+01
   aniso      0.728330D+01      0.107927D+01      0.120085D+01
   xx         0.168023D+02      0.248985D+01      0.277033D+01
   yx         0.438666D-03      0.650035D-04      0.723262D-04
   yy         0.124389D+02      0.184326D+01      0.205091D+01
   zx         0.000000D+00      0.000000D+00      0.000000D+00
   zy         0.000000D+00      0.000000D+00      0.000000D+00
   zz         0.839431D+01      0.124391D+01      0.138403D+01

 ----------------------------------------------------------------------

 Dipole orientation:
     8          9.53006812          0.00095820          4.34707954
     1          9.02786253          0.00090771          6.09545079
     8         12.27425623          0.00123412          4.34707954
     1         12.77646181          0.00128461          6.09545079

 Electric dipole moment (dipole orientation):
 (Debye = 10**-18 statcoulomb cm , SI units = C m)
                  (au)            (Debye)         (10**-30 SI)
   Tot        0.124061D+01      0.315330D+01      0.105183D+02
   x          0.000000D+00      0.000000D+00      0.000000D+00
   y          0.000000D+00      0.000000D+00      0.000000D+00
   z          0.124061D+01      0.315330D+01      0.105183D+02

 Dipole polarizability, Alpha (dipole orientation).
 (esu units = cm**3 , SI units = C**2 m**2 J**-1)
 Alpha(0;0):
               (au)            (10**-24 esu)      (10**-40 SI)
   iso        0.125452D+02      0.185901D+01      0.206842D+01
   aniso      0.728330D+01      0.107927D+01      0.120085D+01
   xx         0.168023D+02      0.248985D+01      0.277033D+01
   yx         0.845386D-03      0.125273D-03      0.139385D-03
   yy         0.839431D+01      0.124391D+01      0.138403D+01
   zx         0.000000D+00      0.000000D+00      0.000000D+00
   zy         0.000000D+00      0.000000D+00      0.000000D+00
   zz         0.124389D+02      0.184326D+01      0.205091D+01

 ----------------------------------------------------------------------


 BREAD HAS TO MOLD IN ORDER TO GET PENICILLIN.
          -- JERRY BOATZ
 Error termination request processed by link 9999.
 Error termination via Lnk1e in /home/emanuele/chemical_software//g16/l9999.exe at Mon May  9 17:24:43 2022.
 Job cpu time:       0 days  1 hours 49 minutes  0.8 seconds.
 Elapsed time:       0 days  0 hours 13 minutes 43.3 seconds.
 File lengths (MBytes):  RWF=     10 Int=      0 D2E=      0 Chk=      2 Scr=      1
