Title                                                                   
Freq      RAMBER                                                      ZDO                 
Number of atoms                            I               16
Info1-9                                    I   N=           9
          45          45           0           0           0         100
           6           8        1101
Full Title                                 C   N=           1
Title       
Route                                      C   N=           4
#p Amber=(SoftOnly,Print) nosymm Freq=intmodes  
Charge                                     I                0
Multiplicity                               I                1
Number of electrons                        I               24
Number of alpha electrons                  I               12
Number of beta electrons                   I               12
Number of basis functions                  I                0
Number of independent functions            I                0
Number of point charges in /Mol/           I                0
Number of translation vectors              I                0
Atomic numbers                             I   N=          16
           1           1           1           1           1           6
           6           6           7           6           6           6
           6           6           1           1
Nuclear charges                            R   N=          16
  1.00000000E+00  1.00000000E+00  1.00000000E+00  1.00000000E+00  1.00000000E+00
  2.00000000E+00  2.00000000E+00  2.00000000E+00  1.00000000E+00  2.00000000E+00
  2.00000000E+00  2.00000000E+00  2.00000000E+00  2.00000000E+00  1.00000000E+00
  1.00000000E+00
Current cartesian coordinates              R   N=          48
 -1.90801300E+00  4.73549682E+00  0.00000000E+00 -1.73371412E+00 -4.71647106E+00
  0.00000000E+00 -5.78617132E+00 -2.38593797E+00  0.00000000E+00  6.52541706E+00
 -1.55666190E-01  1.88972612E-06  3.76662101E+00  4.10682840E+00  0.00000000E+00
  3.06220859E+00  2.19800849E+00  0.00000000E+00  4.50188888E+00  5.75516091E-02
  0.00000000E+00  4.68918530E-01  1.41423891E+00  0.00000000E+00  2.95167473E+00
 -2.03619691E+00  0.00000000E+00  4.66828493E-01 -1.26638107E+00  0.00000000E+00
 -1.85137224E+00  2.69073190E+00  0.00000000E+00 -1.76166694E+00 -2.67092757E+00
  0.00000000E+00 -4.06582702E+00  1.30265058E+00  0.00000000E+00 -4.02173026E+00
 -1.35324611E+00  0.00000000E+00 -5.86735773E+00  2.26944958E+00  1.88972612E-06
  3.54600115E+00 -3.83607978E+00  0.00000000E+00
Number of symbols in /Mol/                 I                0
Redundant internal dimensions              I   N=           4
          84          17          27          40
Redundant internal coordinate indices      I   N=         336
           1          11           0           0           2          12
           0           0           3          14           0           0
           4           7           0           0           5           6
           0           0           6           7           0           0
           6           8           0           0           7           9
           0           0           8          10           0           0
           8          11           0           0           9          10
           0           0           9          16           0           0
          10          12           0           0          11          13
           0           0          12          14           0           0
          13          14           0           0          13          15
           0           0           5           6           7           0
           5           6           8           0           7           6
           8           0           4           7           6           0
           4           7           9           0           6           7
           9           0           6           8          10           0
           6           8          11           0          10           8
          11           0           7           9          10           0
           7           9          16           0          10           9
          16           0           8          10           9           0
           8          10          12           0           9          10
          12           0           1          11           8           0
           1          11          13           0           8          11
          13           0           2          12          10           0
           2          12          14           0          10          12
          14           0          11          13          14           0
          11          13          15           0          14          13
          15           0           3          14          12           0
           3          14          13           0          12          14
          13           0           5           6           7           4
           5           6           7           9           8           6
           7           4           8           6           7           9
           5           6           8          10           5           6
           8          11           7           6           8          10
           7           6           8          11           4           7
           9          10           4           7           9          16
           6           7           9          10           6           7
           9          16           6           8          10           9
           6           8          10          12          11           8
          10           9          11           8          10          12
           6           8          11           1           6           8
          11          13          10           8          11           1
          10           8          11          13           7           9
          10           8           7           9          10          12
          16           9          10           8          16           9
          10          12           8          10          12           2
           8          10          12          14           9          10
          12           2           9          10          12          14
           1          11          13          14           1          11
          13          15           8          11          13          14
           8          11          13          15           2          12
          14           3           2          12          14          13
          10          12          14           3          10          12
          14          13          11          13          14           3
          11          13          14          12          15          13
          14           3          15          13          14          12
Redundant internal coordinates             R   N=          84
  2.04554926E+00  2.04573447E+00  2.04443262E+00  2.03473048E+00  2.03464747E+00
  2.57958039E+00  2.70914158E+00  2.60517691E+00  2.68062079E+00  2.64824161E+00
  2.60136065E+00  1.89546888E+00  2.63418731E+00  2.61353777E+00  2.61613658E+00
  2.65626274E+00  2.04455698E+00  2.19596397E+00  2.21782430E+00  1.86939703E+00
  2.26788022E+00  2.10314398E+00  1.91216111E+00  1.86507725E+00  2.34513800E+00
  2.07297005E+00  1.90769888E+00  2.18533260E+00  2.19015383E+00  1.87044368E+00
  2.13395367E+00  2.27878796E+00  2.10144303E+00  2.10301548E+00  2.07872679E+00
  2.11950960E+00  2.11230773E+00  2.05136798E+00  2.11410696E+00  2.08914101E+00
  2.07993734E+00  2.08422006E+00  2.08372008E+00  2.11524517E+00  1.21130952E-06
  3.14159265E+00 -3.14159144E+00  0.00000000E+00  3.14159265E+00  0.00000000E+00
  0.00000000E+00  3.14159265E+00  3.14159158E+00 -1.07783921E-06  0.00000000E+00
  3.14159265E+00  0.00000000E+00  3.14159265E+00  3.14159265E+00  0.00000000E+00
  0.00000000E+00  3.14159265E+00  3.14159265E+00  0.00000000E+00  0.00000000E+00
  3.14159265E+00  3.14159265E+00  0.00000000E+00  3.14159265E+00  0.00000000E+00
  0.00000000E+00  3.14159265E+00  3.14159265E+00 -1.06394708E-06  0.00000000E+00
  3.14159159E+00  0.00000000E+00  3.14159265E+00  3.14159265E+00  0.00000000E+00
  3.14159265E+00  0.00000000E+00  1.05861188E-06 -3.14159159E+00
ZRed-IntVec                                I   N=          84
           0           0           0           0           0           0
           0           0           0           0           0           0
           0           0           0           0           0           0
           0           0           0           0           0           0
           0           0           0           0           0           0
           0           0           0           0           0           0
           0           0           0           0           0           0
           0           0           0           0           0           0
           0           0           0           0           0           0
           0           0           0           0           0           0
           0           0           0           0           0           0
           0           0           0           0           0           0
           0           0           0           0           0           0
           0           0           0           0           0           0
ZRed-FPVec                                 R   N=          84
  0.00000000E+00  0.00000000E+00  0.00000000E+00  0.00000000E+00  0.00000000E+00
  0.00000000E+00  0.00000000E+00  0.00000000E+00  0.00000000E+00  0.00000000E+00
  0.00000000E+00  0.00000000E+00  0.00000000E+00  0.00000000E+00  0.00000000E+00
  0.00000000E+00  0.00000000E+00  0.00000000E+00  0.00000000E+00  0.00000000E+00
  0.00000000E+00  0.00000000E+00  0.00000000E+00  0.00000000E+00  0.00000000E+00
  0.00000000E+00  0.00000000E+00  0.00000000E+00  0.00000000E+00  0.00000000E+00
  0.00000000E+00  0.00000000E+00  0.00000000E+00  0.00000000E+00  0.00000000E+00
  0.00000000E+00  0.00000000E+00  0.00000000E+00  0.00000000E+00  0.00000000E+00
  0.00000000E+00  0.00000000E+00  0.00000000E+00  0.00000000E+00  0.00000000E+00
  0.00000000E+00  0.00000000E+00  0.00000000E+00  0.00000000E+00  0.00000000E+00
  0.00000000E+00  0.00000000E+00  0.00000000E+00  0.00000000E+00  0.00000000E+00
  0.00000000E+00  0.00000000E+00  0.00000000E+00  0.00000000E+00  0.00000000E+00
  0.00000000E+00  0.00000000E+00  0.00000000E+00  0.00000000E+00  0.00000000E+00
  0.00000000E+00  0.00000000E+00  0.00000000E+00  0.00000000E+00  0.00000000E+00
  0.00000000E+00  0.00000000E+00  0.00000000E+00  0.00000000E+00  0.00000000E+00
  0.00000000E+00  0.00000000E+00  0.00000000E+00  0.00000000E+00  0.00000000E+00
  0.00000000E+00  0.00000000E+00  0.00000000E+00  0.00000000E+00
ZRed-Constraint1                           R   N=          84
  2.04554926E+00  2.04573447E+00  2.04443262E+00  2.03473048E+00  2.03464747E+00
  2.57958039E+00  2.70914158E+00  2.60517691E+00  2.68062079E+00  2.64824161E+00
  2.60136065E+00  1.89546888E+00  2.63418731E+00  2.61353777E+00  2.61613658E+00
  2.65626274E+00  2.04455698E+00  2.19596397E+00  2.21782430E+00  1.86939703E+00
  2.26788022E+00  2.10314398E+00  1.91216111E+00  1.86507725E+00  2.34513800E+00
  2.07297005E+00  1.90769888E+00  2.18533260E+00  2.19015383E+00  1.87044368E+00
  2.13395367E+00  2.27878796E+00  2.10144303E+00  2.10301548E+00  2.07872679E+00
  2.11950960E+00  2.11230773E+00  2.05136798E+00  2.11410696E+00  2.08914101E+00
  2.07993734E+00  2.08422006E+00  2.08372008E+00  2.11524517E+00  1.21130952E-06
  3.14159265E+00 -3.14159144E+00  0.00000000E+00  3.14159265E+00  0.00000000E+00
  0.00000000E+00  3.14159265E+00  3.14159158E+00 -1.07783921E-06  0.00000000E+00
  3.14159265E+00  0.00000000E+00  3.14159265E+00  3.14159265E+00  0.00000000E+00
  0.00000000E+00  3.14159265E+00  3.14159265E+00  0.00000000E+00  0.00000000E+00
  3.14159265E+00  3.14159265E+00  0.00000000E+00  3.14159265E+00  0.00000000E+00
  0.00000000E+00  3.14159265E+00  3.14159265E+00 -1.06394708E-06  0.00000000E+00
  3.14159159E+00  0.00000000E+00  3.14159265E+00  3.14159265E+00  0.00000000E+00
  3.14159265E+00  0.00000000E+00  1.05861188E-06 -3.14159159E+00
ZRed-Constraint2                           R   N=          84
  0.00000000E+00  0.00000000E+00  0.00000000E+00  0.00000000E+00  0.00000000E+00
  0.00000000E+00  0.00000000E+00  0.00000000E+00  0.00000000E+00  0.00000000E+00
  0.00000000E+00  0.00000000E+00  0.00000000E+00  0.00000000E+00  0.00000000E+00
  0.00000000E+00  0.00000000E+00  0.00000000E+00  0.00000000E+00  0.00000000E+00
  0.00000000E+00  0.00000000E+00  0.00000000E+00  0.00000000E+00  0.00000000E+00
  0.00000000E+00  0.00000000E+00  0.00000000E+00  0.00000000E+00  0.00000000E+00
  0.00000000E+00  0.00000000E+00  0.00000000E+00  0.00000000E+00  0.00000000E+00
  0.00000000E+00  0.00000000E+00  0.00000000E+00  0.00000000E+00  0.00000000E+00
  0.00000000E+00  0.00000000E+00  0.00000000E+00  0.00000000E+00  0.00000000E+00
  0.00000000E+00  0.00000000E+00  0.00000000E+00  0.00000000E+00  0.00000000E+00
  0.00000000E+00  0.00000000E+00  0.00000000E+00  0.00000000E+00  0.00000000E+00
  0.00000000E+00  0.00000000E+00  0.00000000E+00  0.00000000E+00  0.00000000E+00
  0.00000000E+00  0.00000000E+00  0.00000000E+00  0.00000000E+00  0.00000000E+00
  0.00000000E+00  0.00000000E+00  0.00000000E+00  0.00000000E+00  0.00000000E+00
  0.00000000E+00  0.00000000E+00  0.00000000E+00  0.00000000E+00  0.00000000E+00
  0.00000000E+00  0.00000000E+00  0.00000000E+00  0.00000000E+00  0.00000000E+00
  0.00000000E+00  0.00000000E+00  0.00000000E+00  0.00000000E+00
Force Field                                I                2
Atom Types                                 C   N=          16
#200HA      #200HA      #200HA      #200HA      #200HA      
#200CA      #200CA      #200CA      #200NA      #200CA      
#200CA      #200CA      #200CA      #200CA      #200HA      
#200HA      
Int Atom Types                             I   N=          16
    20001033    20001033    20001033    20001033    20001033    20001003
    20001003    20001003    20001015    20001003    20001003    20001003
    20001003    20001003    20001033    20001033
MM charges                                 R   N=          16
  4.94065646-324  4.94065646-324  4.94065646-324  4.94065646-324  4.94065646-324
  5.92878775-323  5.92878775-323  5.92878775-323  6.91691904-323  5.92878775-323
  5.92878775-323  5.92878775-323  5.92878775-323  5.92878775-323  4.94065646-324
  4.94065646-324
Integer atomic weights                     I   N=          16
           0           0           0           0           0           0
           0           0           0           0           0           0
           0           0           0           0
Real atomic weights                        R   N=          16
  0.00000000E+00  0.00000000E+00  0.00000000E+00  0.00000000E+00  0.00000000E+00
  0.00000000E+00  0.00000000E+00  0.00000000E+00  0.00000000E+00  0.00000000E+00
  0.00000000E+00  0.00000000E+00  0.00000000E+00  0.00000000E+00  0.00000000E+00
  0.00000000E+00
Atom fragment info                         I   N=          16
           0           0           0           0           0           0
           0           0           0           0           0           0
           0           0           0           0
Atom residue num                           I   N=          16
           0           0           0           0           0           0
           0           0           0           0           0           0
           0           0           0           0
Nuclear spins                              I   N=          16
           0           0           0           0           0           0
           0           0           0           0           0           0
           0           0           0           0
Nuclear ZEff                               R   N=          16
  0.00000000E+00  0.00000000E+00  0.00000000E+00  0.00000000E+00  0.00000000E+00
  0.00000000E+00  0.00000000E+00  0.00000000E+00  0.00000000E+00  0.00000000E+00
  0.00000000E+00  0.00000000E+00  0.00000000E+00  0.00000000E+00  0.00000000E+00
  0.00000000E+00
Nuclear ZNuc                               R   N=          16
  0.00000000E+00  0.00000000E+00  0.00000000E+00  0.00000000E+00  0.00000000E+00
  0.00000000E+00  0.00000000E+00  0.00000000E+00  0.00000000E+00  0.00000000E+00
  0.00000000E+00  0.00000000E+00  0.00000000E+00  0.00000000E+00  0.00000000E+00
  0.00000000E+00
Nuclear QMom                               R   N=          16
  0.00000000E+00  0.00000000E+00  0.00000000E+00  0.00000000E+00  0.00000000E+00
  0.00000000E+00  0.00000000E+00  0.00000000E+00  0.00000000E+00  0.00000000E+00
  0.00000000E+00  0.00000000E+00  0.00000000E+00  0.00000000E+00  0.00000000E+00
  0.00000000E+00
Nuclear GFac                               R   N=          16
  0.00000000E+00  0.00000000E+00  0.00000000E+00  0.00000000E+00  0.00000000E+00
  0.00000000E+00  0.00000000E+00  0.00000000E+00  0.00000000E+00  0.00000000E+00
  0.00000000E+00  0.00000000E+00  0.00000000E+00  0.00000000E+00  0.00000000E+00
  0.00000000E+00
MicOpt                                     I   N=          16
           0           0           0           0           0           0
           0           0           0           0           0           0
           0           0           0           0
PDB Atom names                             H   N=          16
                                                                  
                                                      
Number of residues                         I                0
Number of secondary structures             I                0
Number of contracted shells                I               16
Number of primitive shells                 I               16
Pure/Cartesian d shells                    I                0
Pure/Cartesian f shells                    I                0
Highest angular momentum                   I                0
Largest degree of contraction              I                1
Shell types                                I   N=          16
           0           0           0           0           0           0
           0           0           0           0           0           0
           0           0           0           0
Number of primitives per shell             I   N=          16
           1           1           1           1           1           1
           1           1           1           1           1           1
           1           1           1           1
Shell to atom map                          I   N=          16
           1           2           3           4           5           6
           7           8           9          10          11          12
          13          14          15          16
Primitive exponents                        R   N=          16
  1.00000000E+00  1.00000000E+00  1.00000000E+00  1.00000000E+00  1.00000000E+00
  1.00000000E+00  1.00000000E+00  1.00000000E+00  1.00000000E+00  1.00000000E+00
  1.00000000E+00  1.00000000E+00  1.00000000E+00  1.00000000E+00  1.00000000E+00
  1.00000000E+00
Contraction coefficients                   R   N=          16
  1.00000000E+00  1.00000000E+00  1.00000000E+00  1.00000000E+00  1.00000000E+00
  1.00000000E+00  1.00000000E+00  1.00000000E+00  1.00000000E+00  1.00000000E+00
  1.00000000E+00  1.00000000E+00  1.00000000E+00  1.00000000E+00  1.00000000E+00
  1.00000000E+00
Coordinates of each shell                  R   N=          48
 -1.90801300E+00  4.73549682E+00  0.00000000E+00 -1.73371412E+00 -4.71647106E+00
  0.00000000E+00 -5.78617132E+00 -2.38593797E+00  0.00000000E+00  6.52541706E+00
 -1.55666190E-01  1.88972612E-06  3.76662101E+00  4.10682840E+00  0.00000000E+00
  3.06220859E+00  2.19800849E+00  0.00000000E+00  4.50188888E+00  5.75516091E-02
  0.00000000E+00  4.68918530E-01  1.41423891E+00  0.00000000E+00  2.95167473E+00
 -2.03619691E+00  0.00000000E+00  4.66828493E-01 -1.26638107E+00  0.00000000E+00
 -1.85137224E+00  2.69073190E+00  0.00000000E+00 -1.76166694E+00 -2.67092757E+00
  0.00000000E+00 -4.06582702E+00  1.30265058E+00  0.00000000E+00 -4.02173026E+00
 -1.35324611E+00  0.00000000E+00 -5.86735773E+00  2.26944958E+00  1.88972612E-06
  3.54600115E+00 -3.83607978E+00  0.00000000E+00
Constraint Structure                       R   N=          48
 -1.90801300E+00  4.73549682E+00  0.00000000E+00 -1.73371412E+00 -4.71647106E+00
  0.00000000E+00 -5.78617132E+00 -2.38593797E+00  0.00000000E+00  6.52541706E+00
 -1.55666190E-01  1.88972612E-06  3.76662101E+00  4.10682840E+00  0.00000000E+00
  3.06220859E+00  2.19800849E+00  0.00000000E+00  4.50188888E+00  5.75516091E-02
  0.00000000E+00  4.68918530E-01  1.41423891E+00  0.00000000E+00  2.95167473E+00
 -2.03619691E+00  0.00000000E+00  4.66828493E-01 -1.26638107E+00  0.00000000E+00
 -1.85137224E+00  2.69073190E+00  0.00000000E+00 -1.76166694E+00 -2.67092757E+00
  0.00000000E+00 -4.06582702E+00  1.30265058E+00  0.00000000E+00 -4.02173026E+00
 -1.35324611E+00  0.00000000E+00 -5.86735773E+00  2.26944958E+00  1.88972612E-06
  3.54600115E+00 -3.83607978E+00  0.00000000E+00
Num ILSW                                   I              100
ILSW                                       I   N=         100
           0           0           0           0           0           0
           0           0           0           0           0          -1
           5           0           0           0           2           0
           0           0           0           0           1           0
           1           1           0           0           0           0
           0           0      100000           0          -1           0
           0           0           0           0           0           0
           0           0           0         101           0           0
           0 -2000000000           1           0           0           0
           0           0           4          41           0           0
           0           0           0           0           0           0
           0           0           0          16           0           1
           0           0           0           0           0           0
           0           0           0           0           0           0
           0           0           0           0           0           0
           0           0           0           0           0           0
           0           0           0           0
Num RLSW                                   I               41
RLSW                                       R   N=          41
  1.00000000E+00  1.00000000E+00  1.00000000E+00  1.00000000E+00  1.00000000E+00
  0.00000000E+00  0.00000000E+00  1.00000000E+00  0.00000000E+00  0.00000000E+00
  0.00000000E+00  0.00000000E+00  1.00000000E+00  0.00000000E+00  0.00000000E+00
  0.00000000E+00  0.00000000E+00  1.00000000E+00  0.00000000E+00  0.00000000E+00
  0.00000000E+00  0.00000000E+00  1.00000000E+00  0.00000000E+00  0.00000000E+00
  0.00000000E+00  0.00000000E+00  1.00000000E+00  0.00000000E+00  0.00000000E+00
  0.00000000E+00  0.00000000E+00  1.00000000E+00  0.00000000E+00  0.00000000E+00
  0.00000000E+00  0.00000000E+00  0.00000000E+00  1.00000000E+00  1.00000000E+00
  0.00000000E+00
MxBond                                     I                3
NBond                                      I   N=          16
           1           1           1           1           1           3
           3           3           3           3           3           3
           3           3           1           1
IBond                                      I   N=          48
          11           0           0          12           0           0
          14           0           0           7           0           0
           6           0           0           5           7           8
           4           6           9           6          10          11
           7          10          16           8           9          12
           1           8          13           2          10          14
          11          14          15           3          12          13
          13           0           0           9           0           0
RBond                                      R   N=          48
  1.00000000E+00  0.00000000E+00  0.00000000E+00  1.00000000E+00  0.00000000E+00
  0.00000000E+00  1.00000000E+00  0.00000000E+00  0.00000000E+00  1.00000000E+00
  0.00000000E+00  0.00000000E+00  1.00000000E+00  0.00000000E+00  0.00000000E+00
  1.00000000E+00  2.00000000E+00  1.00000000E+00  1.00000000E+00  2.00000000E+00
  1.00000000E+00  1.00000000E+00  1.50000000E+00  1.50000000E+00  1.00000000E+00
  1.00000000E+00  1.00000000E+00  1.50000000E+00  1.00000000E+00  1.50000000E+00
  1.00000000E+00  1.50000000E+00  1.50000000E+00  1.00000000E+00  1.50000000E+00
  1.50000000E+00  1.50000000E+00  1.50000000E+00  1.00000000E+00  1.00000000E+00
  1.50000000E+00  1.50000000E+00  1.00000000E+00  0.00000000E+00  0.00000000E+00
  1.00000000E+00  0.00000000E+00  0.00000000E+00
Virial Ratio                               R      0.000000000000000E+00
SCF Energy                                 R      6.290633428302344E-04
Total Energy                               R      6.290633428302344E-04
RMS Force                                  R      1.821790999148180E-04
External E-field                           R   N=         105
  0.00000000E+00  0.00000000E+00  0.00000000E+00  0.00000000E+00  0.00000000E+00
  0.00000000E+00  0.00000000E+00  0.00000000E+00  0.00000000E+00  0.00000000E+00
  0.00000000E+00  0.00000000E+00  0.00000000E+00  0.00000000E+00  0.00000000E+00
  0.00000000E+00  0.00000000E+00  0.00000000E+00  0.00000000E+00  0.00000000E+00
  0.00000000E+00  0.00000000E+00  0.00000000E+00  0.00000000E+00  0.00000000E+00
  0.00000000E+00  0.00000000E+00  0.00000000E+00  0.00000000E+00  0.00000000E+00
  0.00000000E+00  0.00000000E+00  0.00000000E+00  0.00000000E+00  0.00000000E+00
  0.00000000E+00  0.00000000E+00  0.00000000E+00  0.00000000E+00  0.00000000E+00
  0.00000000E+00  0.00000000E+00  0.00000000E+00  0.00000000E+00  0.00000000E+00
  0.00000000E+00  0.00000000E+00  0.00000000E+00  0.00000000E+00  0.00000000E+00
  0.00000000E+00  0.00000000E+00  0.00000000E+00  0.00000000E+00  0.00000000E+00
  0.00000000E+00  0.00000000E+00  0.00000000E+00  0.00000000E+00  0.00000000E+00
  0.00000000E+00  0.00000000E+00  0.00000000E+00  0.00000000E+00  0.00000000E+00
  0.00000000E+00  0.00000000E+00  0.00000000E+00  0.00000000E+00  0.00000000E+00
  0.00000000E+00  0.00000000E+00  0.00000000E+00  0.00000000E+00  0.00000000E+00
  0.00000000E+00  0.00000000E+00  0.00000000E+00  0.00000000E+00  0.00000000E+00
  0.00000000E+00  0.00000000E+00  0.00000000E+00  0.00000000E+00  0.00000000E+00
  0.00000000E+00  0.00000000E+00  0.00000000E+00  0.00000000E+00  0.00000000E+00
  0.00000000E+00  0.00000000E+00  0.00000000E+00  0.00000000E+00  0.00000000E+00
  0.00000000E+00  0.00000000E+00  0.00000000E+00  0.00000000E+00  0.00000000E+00
  0.00000000E+00  0.00000000E+00  0.00000000E+00  0.00000000E+00  0.00000000E+00
IOpCl                                      I                0
IROHF                                      I                0
Grdnt Energy                               R      6.290633428302344E-04
Grdnt NVar                                 I               84
Grdnt IGetFC                               I                4
Internal Forces                            R   N=          84
 -7.72548457E-07 -9.37853731E-07  2.24059420E-07  8.88329369E-06  8.95738127E-06
  1.19639566E-04 -2.64815798E-04  2.42573922E-04 -3.70911051E-04 -6.65415386E-05
  1.00977202E-04  1.29802159E-04 -8.66568385E-05  1.18442541E-04  8.72419481E-05
  1.39290669E-04  1.13070918E-07 -7.80529757E-07 -7.04538239E-05  7.12343537E-05
 -3.01413822E-04  4.09595666E-04 -1.08181844E-04  6.77547570E-05 -1.81779889E-04
  1.14025132E-04 -1.85271057E-04  1.00318655E-04  8.49524023E-05  1.54463790E-04
  1.36157657E-04 -2.90621447E-04  5.76085123E-05  5.25968120E-05 -1.10205324E-04
  3.03807867E-05  5.33345966E-05 -8.37153833E-05 -1.12985155E-05 -9.01771094E-06
  2.03162265E-05  2.16850088E-05  2.32785568E-05 -4.49635656E-05 -1.73458933E-09
 -1.25058814E-10 -1.76750086E-09 -1.57970352E-10  3.08978600E-11  3.86663761E-11
  6.43450583E-11  7.21135743E-11  1.09587782E-09  7.01626642E-10  1.95740042E-10
 -1.98511141E-10  5.19232962E-11  4.32833910E-11  4.55874997E-11  3.69475947E-11
 -1.41379405E-11 -3.24969288E-11 -5.65621808E-12 -2.40152063E-11 -1.49711240E-10
 -1.40094325E-10  2.45890495E-10  2.55507410E-10 -6.61302008E-12 -2.53172739E-11
 -1.74794782E-11 -3.61837319E-11 -1.70099418E-11  1.69274167E-09  1.36602455E-12
  1.71111764E-09 -7.11865100E-12 -1.70792952E-11  1.15040951E-11  1.54345090E-12
  4.13418918E-13  1.03712570E-11 -1.68303216E-09 -1.67307432E-09
Internal Force Constants                   R   N=        3570
  8.92507706E-04 -3.79471447E-19  8.92507706E-04  5.21384570E-19  1.21555487E-18
  8.92507706E-04  1.05372673E-18 -9.40939467E-19 -7.08855850E-19  8.92507706E-04
 -1.53143620E-18  6.77614881E-21  9.89334212E-19  2.14129973E-18  8.92507706E-04
 -7.90309701E-19 -8.41663825E-19  4.67641505E-19  1.44050346E-18  2.54108464E-19
  9.70068411E-04  4.10441415E-18  4.02849936E-19  1.37482838E-18  2.29114707E-18
 -8.31194026E-19  1.24774942E-05  9.73081893E-04  2.60898714E-18 -1.74245616E-18
 -1.44033158E-18  2.22252842E-18 -1.68394787E-20  4.78646627E-05 -5.63383821E-05
  9.70183228E-04  2.23827407E-18  4.34905745E-18  9.62189187E-19 -2.04183832E-18
  1.14878254E-18 -8.00948629E-05 -9.47066062E-06 -4.16451642E-05  1.00673611E-03
 -3.98501470E-18 -1.26973558E-18 -6.58709083E-20  5.78299153E-18  3.48412837E-18
  3.52537768E-06  7.35846821E-06 -3.11837649E-06  1.77699872E-05  9.51292926E-04
  3.59964624E-18  1.40561859E-18  1.17969633E-18  9.16040881E-19  1.18659300E-18