Title                                                                   
Freq      RAMBER                                                      ZDO                 
Number of atoms                            I               16
Info1-9                                    I   N=           9
          37          37           0           0           0         100
           6           8        1101
Full Title                                 C   N=           1
Title       
Route                                      C   N=           4
#p Amber=(SoftOnly,Print) nosymm Freq=intmodes  
Charge                                     I                0
Multiplicity                               I                1
Number of electrons                        I               24
Number of alpha electrons                  I               12
Number of beta electrons                   I               12
Number of basis functions                  I                0
Number of independent functions            I                0
Number of point charges in /Mol/           I                0
Number of translation vectors              I                0
Atomic numbers                             I   N=          16
           1           1           1           1           1           6
           6           6           7           6           6           6
           6           6           1           1
Nuclear charges                            R   N=          16
  1.00000000E+00  1.00000000E+00  1.00000000E+00  1.00000000E+00  1.00000000E+00
  2.00000000E+00  2.00000000E+00  2.00000000E+00  1.00000000E+00  2.00000000E+00
  2.00000000E+00  2.00000000E+00  2.00000000E+00  2.00000000E+00  1.00000000E+00
  1.00000000E+00
Current cartesian coordinates              R   N=          48
 -1.90801300E+00  4.73549682E+00  0.00000000E+00 -1.73371412E+00 -4.71647106E+00
  0.00000000E+00 -5.78617132E+00 -2.38593797E+00  0.00000000E+00  6.52541706E+00
 -1.55666190E-01  1.88972612E-06  3.76662101E+00  4.10682840E+00  0.00000000E+00
  3.06220859E+00  2.19800849E+00  0.00000000E+00  4.50188888E+00  5.75516091E-02
  0.00000000E+00  4.68918530E-01  1.41423891E+00  0.00000000E+00  2.95167473E+00
 -2.03619691E+00  0.00000000E+00  4.66828493E-01 -1.26638107E+00  0.00000000E+00
 -1.85137224E+00  2.69073190E+00  0.00000000E+00 -1.76166694E+00 -2.67092757E+00
  0.00000000E+00 -4.06582702E+00  1.30265058E+00  0.00000000E+00 -4.02173026E+00
 -1.35324611E+00  0.00000000E+00 -5.86735773E+00  2.26944958E+00  1.88972612E-06
  3.54600115E+00 -3.83607978E+00  0.00000000E+00
Number of symbols in /Mol/                 I                0
Redundant internal dimensions              I   N=           4
          84          17          27          40
Redundant internal coordinate indices      I   N=         336
           1          11           0           0           2          12
           0           0           3          14           0           0
           4           7           0           0           5           6
           0           0           6           7           0           0
           6           8           0           0           7           9
           0           0           8          10           0           0
           8          11           0           0           9          10
           0           0           9          16           0           0
          10          12           0           0          11          13
           0           0          12          14           0           0
          13          14           0           0          13          15
           0           0           5           6           7           0
           5           6           8           0           7           6
           8           0           4           7           6           0
           4           7           9           0           6           7
           9           0           6           8          10           0
           6           8          11           0          10           8
          11           0           7           9          10           0
           7           9          16           0          10           9
          16           0           8          10           9           0
           8          10          12           0           9          10
          12           0           1          11           8           0
           1          11          13           0           8          11
          13           0           2          12          10           0
           2          12          14           0          10          12
          14           0          11          13          14           0
          11          13          15           0          14          13
          15           0           3          14          12           0
           3          14          13           0          12          14
          13           0           5           6           7           4
           5           6           7           9           8           6
           7           4           8           6           7           9
           5           6           8          10           5           6
           8          11           7           6           8          10
           7           6           8          11           4           7
           9          10           4           7           9          16
           6           7           9          10           6           7
           9          16           6           8          10           9
           6           8          10          12          11           8
          10           9          11           8          10          12
           6           8          11           1           6           8
          11          13          10           8          11           1
          10           8          11          13           7           9
          10           8           7           9          10          12
          16           9          10           8          16           9
          10          12           8          10          12           2
           8          10          12          14           9          10
          12           2           9          10          12          14
           1          11          13          14           1          11
          13          15           8          11          13          14
           8          11          13          15           2          12
          14           3           2          12          14          13
          10          12          14           3          10          12
          14          13          11          13          14           3
          11          13          14          12          15          13
          14           3          15          13          14          12
Redundant internal coordinates             R   N=          84
  2.04554926E+00  2.04573447E+00  2.04443262E+00  2.03473048E+00  2.03464747E+00
  2.57958039E+00  2.70914158E+00  2.60517691E+00  2.68062079E+00  2.64824161E+00
  2.60136065E+00  1.89546888E+00  2.63418731E+00  2.61353777E+00  2.61613658E+00
  2.65626274E+00  2.04455698E+00  2.19596397E+00  2.21782430E+00  1.86939703E+00
  2.26788022E+00  2.10314398E+00  1.91216111E+00  1.86507725E+00  2.34513800E+00
  2.07297005E+00  1.90769888E+00  2.18533260E+00  2.19015383E+00  1.87044368E+00
  2.13395367E+00  2.27878796E+00  2.10144303E+00  2.10301548E+00  2.07872679E+00
  2.11950960E+00  2.11230773E+00  2.05136798E+00  2.11410696E+00  2.08914101E+00
  2.07993734E+00  2.08422006E+00  2.08372008E+00  2.11524517E+00  1.21130952E-06
  3.14159265E+00 -3.14159144E+00  0.00000000E+00  3.14159265E+00  0.00000000E+00
  0.00000000E+00  3.14159265E+00  3.14159158E+00 -1.07783921E-06  0.00000000E+00
  3.14159265E+00  0.00000000E+00  3.14159265E+00  3.14159265E+00  0.00000000E+00
  0.00000000E+00  3.14159265E+00  3.14159265E+00  0.00000000E+00  0.00000000E+00
  3.14159265E+00  3.14159265E+00  0.00000000E+00  3.14159265E+00  0.00000000E+00
  0.00000000E+00  3.14159265E+00  3.14159265E+00 -1.06394708E-06  0.00000000E+00
  3.14159159E+00  0.00000000E+00  3.14159265E+00  3.14159265E+00  0.00000000E+00
  3.14159265E+00  0.00000000E+00  1.05861188E-06 -3.14159159E+00
ZRed-IntVec                                I   N=          84
           0           0           0           0           0           0
           0           0           0           0           0           0
           0           0           0           0           0           0
           0           0           0           0           0           0
           0           0           0           0           0           0
           0           0           0           0           0           0
           0           0           0           0           0           0
           0           0           0           0           0           0
           0           0           0           0           0           0
           0           0           0           0           0           0
           0           0           0           0           0           0
           0           0           0           0           0           0
           0           0           0           0           0           0
           0           0           0           0           0           0
ZRed-FPVec                                 R   N=          84
  0.00000000E+00  0.00000000E+00  0.00000000E+00  0.00000000E+00  0.00000000E+00
  0.00000000E+00  0.00000000E+00  0.00000000E+00  0.00000000E+00  0.00000000E+00
  0.00000000E+00  0.00000000E+00  0.00000000E+00  0.00000000E+00  0.00000000E+00
  0.00000000E+00  0.00000000E+00  0.00000000E+00  0.00000000E+00  0.00000000E+00
  0.00000000E+00  0.00000000E+00  0.00000000E+00  0.00000000E+00  0.00000000E+00
  0.00000000E+00  0.00000000E+00  0.00000000E+00  0.00000000E+00  0.00000000E+00
  0.00000000E+00  0.00000000E+00  0.00000000E+00  0.00000000E+00  0.00000000E+00
  0.00000000E+00  0.00000000E+00  0.00000000E+00  0.00000000E+00  0.00000000E+00
  0.00000000E+00  0.00000000E+00  0.00000000E+00  0.00000000E+00  0.00000000E+00
  0.00000000E+00  0.00000000E+00  0.00000000E+00  0.00000000E+00  0.00000000E+00
  0.00000000E+00  0.00000000E+00  0.00000000E+00  0.00000000E+00  0.00000000E+00
  0.00000000E+00  0.00000000E+00  0.00000000E+00  0.00000000E+00  0.00000000E+00
  0.00000000E+00  0.00000000E+00  0.00000000E+00  0.00000000E+00  0.00000000E+00
  0.00000000E+00  0.00000000E+00  0.00000000E+00  0.00000000E+00  0.00000000E+00
  0.00000000E+00  0.00000000E+00  0.00000000E+00  0.00000000E+00  0.00000000E+00
  0.00000000E+00  0.00000000E+00  0.00000000E+00  0.00000000E+00  0.00000000E+00
  0.00000000E+00  0.00000000E+00  0.00000000E+00  0.00000000E+00
ZRed-Constraint1                           R   N=          84
  2.04554926E+00  2.04573447E+00  2.04443262E+00  2.03473048E+00  2.03464747E+00
  2.57958039E+00  2.70914158E+00  2.60517691E+00  2.68062079E+00  2.64824161E+00
  2.60136065E+00  1.89546888E+00  2.63418731E+00  2.61353777E+00  2.61613658E+00
  2.65626274E+00  2.04455698E+00  2.19596397E+00  2.21782430E+00  1.86939703E+00
  2.26788022E+00  2.10314398E+00  1.91216111E+00  1.86507725E+00  2.34513800E+00
  2.07297005E+00  1.90769888E+00  2.18533260E+00  2.19015383E+00  1.87044368E+00
  2.13395367E+00  2.27878796E+00  2.10144303E+00  2.10301548E+00  2.07872679E+00
  2.11950960E+00  2.11230773E+00  2.05136798E+00  2.11410696E+00  2.08914101E+00
  2.07993734E+00  2.08422006E+00  2.08372008E+00  2.11524517E+00  1.21130952E-06
  3.14159265E+00 -3.14159144E+00  0.00000000E+00  3.14159265E+00  0.00000000E+00
  0.00000000E+00  3.14159265E+00  3.14159158E+00 -1.07783921E-06  0.00000000E+00
  3.14159265E+00  0.00000000E+00  3.14159265E+00  3.14159265E+00  0.00000000E+00
  0.00000000E+00  3.14159265E+00  3.14159265E+00  0.00000000E+00  0.00000000E+00
  3.14159265E+00  3.14159265E+00  0.00000000E+00  3.14159265E+00  0.00000000E+00
  0.00000000E+00  3.14159265E+00  3.14159265E+00 -1.06394708E-06  0.00000000E+00
  3.14159159E+00  0.00000000E+00  3.14159265E+00  3.14159265E+00  0.00000000E+00
  3.14159265E+00  0.00000000E+00  1.05861188E-06 -3.14159159E+00
ZRed-Constraint2                           R   N=          84
  0.00000000E+00  0.00000000E+00  0.00000000E+00  0.00000000E+00  0.00000000E+00
  0.00000000E+00  0.00000000E+00  0.00000000E+00  0.00000000E+00  0.00000000E+00
  0.00000000E+00  0.00000000E+00  0.00000000E+00  0.00000000E+00  0.00000000E+00
  0.00000000E+00  0.00000000E+00  0.00000000E+00  0.00000000E+00  0.00000000E+00
  0.00000000E+00  0.00000000E+00  0.00000000E+00  0.00000000E+00  0.00000000E+00
  0.00000000E+00  0.00000000E+00  0.00000000E+00  0.00000000E+00  0.00000000E+00
  0.00000000E+00  0.00000000E+00  0.00000000E+00  0.00000000E+00  0.00000000E+00
  0.00000000E+00  0.00000000E+00  0.00000000E+00  0.00000000E+00  0.00000000E+00
  0.00000000E+00  0.00000000E+00  0.00000000E+00  0.00000000E+00  0.00000000E+00
  0.00000000E+00  0.00000000E+00  0.00000000E+00  0.00000000E+00  0.00000000E+00
  0.00000000E+00  0.00000000E+00  0.00000000E+00  0.00000000E+00  0.00000000E+00
  0.00000000E+00  0.00000000E+00  0.00000000E+00  0.00000000E+00  0.00000000E+00
  0.00000000E+00  0.00000000E+00  0.00000000E+00  0.00000000E+00  0.00000000E+00
  0.00000000E+00  0.00000000E+00  0.00000000E+00  0.00000000E+00  0.00000000E+00
  0.00000000E+00  0.00000000E+00  0.00000000E+00  0.00000000E+00  0.00000000E+00
  0.00000000E+00  0.00000000E+00  0.00000000E+00  0.00000000E+00  0.00000000E+00
  0.00000000E+00  0.00000000E+00  0.00000000E+00  0.00000000E+00
Force Field                                I                2
Atom Types                                 C   N=          16
#200HA      #200HA      #200HA      #200HA      #200HA      
#200CA      #200CA      #200CA      #200NA      #200CA      
#200CA      #200CA      #200CA      #200CA      #200HA      
#200HA      
Int Atom Types                             I   N=          16
    20001033    20001033    20001033    20001033    20001033    20001003
    20001003    20001003    20001015    20001003    20001003    20001003
    20001003    20001003    20001033    20001033
MM charges                                 R   N=          16
  4.94065646-324  4.94065646-324  4.94065646-324  4.94065646-324  4.94065646-324
  5.92878775-323  5.92878775-323  5.92878775-323  6.91691904-323  5.92878775-323
  5.92878775-323  5.92878775-323  5.92878775-323  5.92878775-323  4.94065646-324
  4.94065646-324
Integer atomic weights                     I   N=          16
           0           0           0           0           0           0
           0           0           0           0           0           0
           0           0           0           0
Real atomic weights                        R   N=          16
  0.00000000E+00  0.00000000E+00  0.00000000E+00  0.00000000E+00  0.00000000E+00
  0.00000000E+00  0.00000000E+00  0.00000000E+00  0.00000000E+00  0.00000000E+00
  0.00000000E+00  0.00000000E+00  0.00000000E+00  0.00000000E+00  0.00000000E+00
  0.00000000E+00
Atom fragment info                         I   N=          16
           0           0           0           0           0           0
           0           0           0           0           0           0
           0           0           0           0
Atom residue num                           I   N=          16
           0           0           0           0           0           0
           0           0           0           0           0           0
           0           0           0           0
Nuclear spins                              I   N=          16
           0           0           0           0           0           0
           0           0           0           0           0           0
           0           0           0           0
Nuclear ZEff                               R   N=          16
  0.00000000E+00  0.00000000E+00  0.00000000E+00  0.00000000E+00  0.00000000E+00
  0.00000000E+00  0.00000000E+00  0.00000000E+00  0.00000000E+00  0.00000000E+00
  0.00000000E+00  0.00000000E+00  0.00000000E+00  0.00000000E+00  0.00000000E+00
  0.00000000E+00
Nuclear ZNuc                               R   N=          16
  0.00000000E+00  0.00000000E+00  0.00000000E+00  0.00000000E+00  0.00000000E+00
  0.00000000E+00  0.00000000E+00  0.00000000E+00  0.00000000E+00  0.00000000E+00
  0.00000000E+00  0.00000000E+00  0.00000000E+00  0.00000000E+00  0.00000000E+00
  0.00000000E+00
Nuclear QMom                               R   N=          16
  0.00000000E+00  0.00000000E+00  0.00000000E+00  0.00000000E+00  0.00000000E+00
  0.00000000E+00  0.00000000E+00  0.00000000E+00  0.00000000E+00  0.00000000E+00
  0.00000000E+00  0.00000000E+00  0.00000000E+00  0.00000000E+00  0.00000000E+00
  0.00000000E+00
Nuclear GFac                               R   N=          16
  0.00000000E+00  0.00000000E+00  0.00000000E+00  0.00000000E+00  0.00000000E+00
  0.00000000E+00  0.00000000E+00  0.00000000E+00  0.00000000E+00  0.00000000E+00
  0.00000000E+00  0.00000000E+00  0.00000000E+00  0.00000000E+00  0.00000000E+00
  0.00000000E+00
MicOpt                                     I   N=          16
           0           0           0           0           0           0
           0           0           0           0           0           0
           0           0           0           0
PDB Atom names                             H   N=          16
                                                                  
                                                      
Number of residues                         I                0
Number of secondary structures             I                0
Number of contracted shells                I               16
Number of primitive shells                 I               16
Pure/Cartesian d shells                    I                0
Pure/Cartesian f shells                    I                0
Highest angular momentum                   I                0
Largest degree of contraction              I                1
Shell types                                I   N=          16
           0           0           0           0           0           0
           0           0           0           0           0           0
           0           0           0           0
Number of primitives per shell             I   N=          16
           1           1           1           1           1           1
           1           1           1           1           1           1
           1           1           1           1
Shell to atom map                          I   N=          16
           1           2           3           4           5           6
           7           8           9          10          11          12
          13          14          15          16
Primitive exponents                        R   N=          16
  1.00000000E+00  1.00000000E+00  1.00000000E+00  1.00000000E+00  1.00000000E+00
  1.00000000E+00  1.00000000E+00  1.00000000E+00  1.00000000E+00  1.00000000E+00
  1.00000000E+00  1.00000000E+00  1.00000000E+00  1.00000000E+00  1.00000000E+00
  1.00000000E+00
Contraction coefficients                   R   N=          16
  1.00000000E+00  1.00000000E+00  1.00000000E+00  1.00000000E+00  1.00000000E+00
  1.00000000E+00  1.00000000E+00  1.00000000E+00  1.00000000E+00  1.00000000E+00
  1.00000000E+00  1.00000000E+00  1.00000000E+00  1.00000000E+00  1.00000000E+00
  1.00000000E+00
Coordinates of each shell                  R   N=          48
 -1.90801300E+00  4.73549682E+00  0.00000000E+00 -1.73371412E+00 -4.71647106E+00
  0.00000000E+00 -5.78617132E+00 -2.38593797E+00  0.00000000E+00  6.52541706E+00
 -1.55666190E-01  1.88972612E-06  3.76662101E+00  4.10682840E+00  0.00000000E+00
  3.06220859E+00  2.19800849E+00  0.00000000E+00  4.50188888E+00  5.75516091E-02
  0.00000000E+00  4.68918530E-01  1.41423891E+00  0.00000000E+00  2.95167473E+00
 -2.03619691E+00  0.00000000E+00  4.66828493E-01 -1.26638107E+00  0.00000000E+00
 -1.85137224E+00  2.69073190E+00  0.00000000E+00 -1.76166694E+00 -2.67092757E+00
  0.00000000E+00 -4.06582702E+00  1.30265058E+00  0.00000000E+00 -4.02173026E+00
 -1.35324611E+00  0.00000000E+00 -5.86735773E+00  2.26944958E+00  1.88972612E-06
  3.54600115E+00 -3.83607978E+00  0.00000000E+00
Constraint Structure                       R   N=          48
 -1.90801300E+00  4.73549682E+00  0.00000000E+00 -1.73371412E+00 -4.71647106E+00
  0.00000000E+00 -5.78617132E+00 -2.38593797E+00  0.00000000E+00  6.52541706E+00
 -1.55666190E-01  1.88972612E-06  3.76662101E+00  4.10682840E+00  0.00000000E+00
  3.06220859E+00  2.19800849E+00  0.00000000E+00  4.50188888E+00  5.75516091E-02
  0.00000000E+00  4.68918530E-01  1.41423891E+00  0.00000000E+00  2.95167473E+00
 -2.03619691E+00  0.00000000E+00  4.66828493E-01 -1.26638107E+00  0.00000000E+00
 -1.85137224E+00  2.69073190E+00  0.00000000E+00 -1.76166694E+00 -2.67092757E+00
  0.00000000E+00 -4.06582702E+00  1.30265058E+00  0.00000000E+00 -4.02173026E+00
 -1.35324611E+00  0.00000000E+00 -5.86735773E+00  2.26944958E+00  1.88972612E-06
  3.54600115E+00 -3.83607978E+00  0.00000000E+00
Num ILSW                                   I              100
ILSW                                       I   N=         100
           0           0           0           0           0           0
           0           0           0           0           0          -1
           5           0           0           0           2           0
           0           0           0           0           1           0
           1           1           0           0           0           0
           0           0      100000           0          -1           0
           0           0           0           0           0           0
           0           0           0         101           0           0
           0 -2000000000           1           0           0           0
           0           0           4          41           0           0
           0           0           0           0           0           0
           0           0           0          16           0           1
           0           0           0           0           0           0
           0           0           0           0           0           0
           0           0           0           0           0           0
           0           0           0           0           0           0
           0           0           0           0
Num RLSW                                   I               41
RLSW                                       R   N=          41
  1.00000000E+00  1.00000000E+00  1.00000000E+00  1.00000000E+00  1.00000000E+00
  0.00000000E+00  0.00000000E+00  1.00000000E+00  0.00000000E+00  0.00000000E+00
  0.00000000E+00  0.00000000E+00  1.00000000E+00  0.00000000E+00  0.00000000E+00
  0.00000000E+00  0.00000000E+00  1.00000000E+00  0.00000000E+00  0.00000000E+00
  0.00000000E+00  0.00000000E+00  1.00000000E+00  0.00000000E+00  0.00000000E+00
  0.00000000E+00  0.00000000E+00  1.00000000E+00  0.00000000E+00  0.00000000E+00
  0.00000000E+00  0.00000000E+00  1.00000000E+00  0.00000000E+00  0.00000000E+00
  0.00000000E+00  0.00000000E+00  0.00000000E+00  1.00000000E+00  1.00000000E+00
  0.00000000E+00
MxBond                                     I                3
NBond                                      I   N=          16
           1           1           1           1           1           3
           3           3           3           3           3           3
           3           3           1           1
IBond                                      I   N=          48
          11           0           0          12           0           0
          14           0           0           7           0           0
           6           0           0           5           7           8
           4           6           9           6          10          11
           7          10          16           8           9          12
           1           8          13           2          10          14
          11          14          15           3          12          13
          13           0           0           9           0           0
RBond                                      R   N=          48
  1.00000000E+00  0.00000000E+00  0.00000000E+00  1.00000000E+00  0.00000000E+00
  0.00000000E+00  1.00000000E+00  0.00000000E+00  0.00000000E+00  1.00000000E+00
  0.00000000E+00  0.00000000E+00  1.00000000E+00  0.00000000E+00  0.00000000E+00
  1.00000000E+00  2.00000000E+00  1.00000000E+00  1.00000000E+00  2.00000000E+00
  1.00000000E+00  1.00000000E+00  1.50000000E+00  1.50000000E+00  1.00000000E+00
  1.00000000E+00  1.00000000E+00  1.50000000E+00  1.00000000E+00  1.50000000E+00
  1.00000000E+00  1.50000000E+00  1.50000000E+00  1.00000000E+00  1.50000000E+00
  1.50000000E+00  1.50000000E+00  1.50000000E+00  1.00000000E+00  1.00000000E+00
  1.50000000E+00  1.50000000E+00  1.00000000E+00  0.00000000E+00  0.00000000E+00
  1.00000000E+00  0.00000000E+00  0.00000000E+00
Virial Ratio                               R      0.000000000000000E+00
SCF Energy                                 R      6.290633428233807E-04
Total Energy                               R      6.290633428233807E-04
RMS Force                                  R      1.821790999099317E-04
External E-field                           R   N=         105
  0.00000000E+00  0.00000000E+00  0.00000000E+00  0.00000000E+00  0.00000000E+00
  0.00000000E+00  0.00000000E+00  0.00000000E+00  0.00000000E+00  0.00000000E+00
  0.00000000E+00  0.00000000E+00  0.00000000E+00  0.00000000E+00  0.00000000E+00
  0.00000000E+00  0.00000000E+00  0.00000000E+00  0.00000000E+00  0.00000000E+00
  0.00000000E+00  0.00000000E+00  0.00000000E+00  0.00000000E+00  0.00000000E+00
  0.00000000E+00  0.00000000E+00  0.00000000E+00  0.00000000E+00  0.00000000E+00
  0.00000000E+00  0.00000000E+00  0.00000000E+00  0.00000000E+00  0.00000000E+00
  0.00000000E+00  0.00000000E+00  0.00000000E+00  0.00000000E+00  0.00000000E+00
  0.00000000E+00  0.00000000E+00  0.00000000E+00  0.00000000E+00  0.00000000E+00
  0.00000000E+00  0.00000000E+00  0.00000000E+00  0.00000000E+00  0.00000000E+00
  0.00000000E+00  0.00000000E+00  0.00000000E+00  0.00000000E+00  0.00000000E+00
  0.00000000E+00  0.00000000E+00  0.00000000E+00  0.00000000E+00  0.00000000E+00
  0.00000000E+00  0.00000000E+00  0.00000000E+00  0.00000000E+00  0.00000000E+00
  0.00000000E+00  0.00000000E+00  0.00000000E+00  0.00000000E+00  0.00000000E+00
  0.00000000E+00  0.00000000E+00  0.00000000E+00  0.00000000E+00  0.00000000E+00
  0.00000000E+00  0.00000000E+00  0.00000000E+00  0.00000000E+00  0.00000000E+00
  0.00000000E+00  0.00000000E+00  0.00000000E+00  0.00000000E+00  0.00000000E+00
  0.00000000E+00  0.00000000E+00  0.00000000E+00  0.00000000E+00  0.00000000E+00
  0.00000000E+00  0.00000000E+00  0.00000000E+00  0.00000000E+00  0.00000000E+00
  0.00000000E+00  0.00000000E+00  0.00000000E+00  0.00000000E+00  0.00000000E+00
  0.00000000E+00  0.00000000E+00  0.00000000E+00  0.00000000E+00  0.00000000E+00
IOpCl                                      I                0
IROHF                                      I                0
Grdnt Energy                               R      6.290633428233807E-04
Grdnt NVar                                 I               84
Grdnt IGetFC                               I                4
Internal Forces                            R   N=          84
 -7.72548457E-07 -9.37853731E-07  2.24059420E-07  8.88329369E-06  8.95738127E-06
  1.19639566E-04 -2.64815798E-04  2.42573922E-04 -3.70911051E-04 -6.65415386E-05
  1.00977202E-04  1.29802159E-04 -8.66568385E-05  1.18442541E-04  8.72419481E-05
  1.39290669E-04  1.13070918E-07 -7.80529757E-07 -7.04538239E-05  7.12343537E-05
 -3.01413822E-04  4.09595666E-04 -1.08181844E-04  6.77547570E-05 -1.81779889E-04
  1.14025132E-04 -1.85271057E-04  1.00318655E-04  8.49524023E-05  1.54463790E-04
  1.36157657E-04 -2.90621447E-04  5.76085123E-05  5.25968120E-05 -1.10205324E-04
  3.03807867E-05  5.33345966E-05 -8.37153833E-05 -1.12985155E-05 -9.01771094E-06
  2.03162265E-05  2.16850088E-05  2.32785568E-05 -4.49635656E-05 -1.08991923E-10
  1.41532786E-11 -1.80473217E-10 -5.73280159E-11 -5.21831666E-11 -4.11366244E-11
  2.04615423E-11  3.15080844E-11 -3.48479984E-10 -2.99775674E-10  7.40540601E-11
  1.22758370E-10  2.35180471E-11 -1.20015894E-11  1.45087791E-11 -2.10108573E-11
 -2.11833794E-12 -2.27086607E-12  9.94235727E-12  9.78982923E-12 -5.91034570E-11
 -1.95672197E-11 -1.07974609E-10 -6.84383719E-11  1.87378201E-11  1.85162352E-11
 -2.59354301E-11 -2.61570150E-11  2.67266261E-12  5.14412793E-12  2.82533181E-12
  5.29679740E-12 -1.69567795E-12 -5.53343456E-12 -1.47505849E-12 -5.31281507E-12
 -9.08119808E-12 -5.24452265E-12  5.90956853E-12  9.74624395E-12
Internal Force Constants                   R   N=        3570
  8.92507706E-04 -4.74338449E-19  8.92507706E-04 -1.15583178E-19  8.08978945E-19
  8.92507706E-04  1.10793649E-18 -1.22554316E-18 -5.77989833E-19  8.92507706E-04
 -6.09863722E-19  1.62630331E-19  9.08019327E-19  2.90024079E-18  8.92507706E-04
 -5.54546464E-21 -1.08546163E-18 -5.47357990E-19  1.65705332E-18 -3.09854036E-18
  9.70068411E-04  5.51183359E-18  1.03994118E-18  2.35336959E-18  7.72627138E-18
  6.76270637E-18  1.24774942E-05  9.73081893E-04  2.53938315E-18 -4.02977595E-19
 -6.78714659E-20  1.78550746E-18  1.86180601E-18  4.78646627E-05 -5.63383821E-05
  9.70183228E-04  5.27605646E-18  3.87709659E-18 -1.59473827E-19 -1.65772221E-19
  9.59247504E-19 -8.00948629E-05 -9.47066062E-06 -4.16451642E-05  1.00673611E-03
 -1.46898836E-18 -4.21130304E-18 -2.16559925E-18  3.67493089E-18 -1.54450489E-18
  3.52537768E-06  7.35846821E-06 -3.11837649E-06  1.77699872E-05  9.51292926E-04
  4.90707821E-18 -7.63599191E-19 -3.42690505E-19 -1.53105482E-18 -4.49659306E-19