 Entering Gaussian System, Link 0=g09
 Input=GauHarm.gjf
 Output=GauHarm.log
 Initial command:
 /home/emanuele/chem_software/gaussian//gdv/l1.exe "/home/emanuele/chem_software/gaussian/scratch/Gau-14787.inp" -scrdir="/home/emanuele/chem_software/gaussian/scratch/"
 Entering Link 1 = /home/emanuele/chem_software/gaussian//gdv/l1.exe PID=     14789.
  
 Copyright (c) 1988-2020, Gaussian, Inc.  All Rights Reserved.
  
 This is the private, development version of
 the Gaussian(R) DV system of programs. It is based on
 the Gaussian(R) 16 system (copyright 2016, Gaussian, Inc.),
 the Gaussian(R) 09 system (copyright 2009, Gaussian, Inc.),
 the Gaussian(R) 03 system (copyright 2003, Gaussian, Inc.),
 the Gaussian(R) 98 system (copyright 1998, Gaussian, Inc.),
 the Gaussian(R) 94 system (copyright 1995, Gaussian, Inc.),
 the Gaussian 92(TM) system (copyright 1992, Gaussian, Inc.),
 the Gaussian 90(TM) system (copyright 1990, Gaussian, Inc.),
 the Gaussian 88(TM) system (copyright 1988, Gaussian, Inc.),
 the Gaussian 86(TM) system (copyright 1986, Carnegie Mellon
 University), and the Gaussian 82(TM) system (copyright 1983,
 Carnegie Mellon University). Gaussian is a federally registered
 trademark of Gaussian, Inc.
  
 This software contains proprietary and confidential information,
 including trade secrets, belonging to Gaussian, Inc.
  
 This software is provided under written license and may be
 used, copied, transmitted, or stored only in accord with that
 written license.
  
 The following legend is applicable only to US Government
 contracts under FAR:
  
                    RESTRICTED RIGHTS LEGEND
  
 Use, reproduction and disclosure by the US Government is
 subject to restrictions as set forth in subparagraphs (a)
 and (c) of the Commercial Computer Software - Restricted
 Rights clause in FAR 52.227-19.
  
 Gaussian, Inc.
 340 Quinnipiac St., Bldg. 40, Wallingford CT 06492
  
  
 ---------------------------------------------------------------
 Warning -- This program may not be used in any manner that
 competes with the business of Gaussian, Inc. or will provide
 assistance to any competitor of Gaussian, Inc.  The licensee
 of this program is prohibited from giving any competitor of
 Gaussian, Inc. access to this program.  By using this program,
 the user acknowledges that Gaussian, Inc. is engaged in the
 business of creating and licensing software in the field of
 computational chemistry and represents and warrants to the
 licensee that it is not a competitor of Gaussian, Inc. and that
 it will not use this program in any manner prohibited above.
 ---------------------------------------------------------------
  

 Cite this work as:
 Gaussian Development Version, Revision J.14,
 M. J. Frisch, G. W. Trucks, H. B. Schlegel, G. E. Scuseria, 
 M. A. Robb, J. R. Cheeseman, G. Scalmani, V. Barone, 
 G. A. Petersson, H. Nakatsuji, X. Li, A. V. Marenich, M. Caricato, 
 J. Bloino, B. G. Janesko, J. Zheng, R. Gomperts, B. Mennucci, 
 H. P. Hratchian, J. V. Ortiz, A. F. Izmaylov, J. L. Sonnenberg, 
 D. Williams-Young, F. Ding, F. Lipparini, F. Egidi, J. Goings, 
 B. Peng, A. Petrone, T. Henderson, D. Ranasinghe, V. G. Zakrzewski, 
 J. Gao, N. Rega, G. Zheng, W. Liang, M. Hada, M. Ehara, K. Toyota, 
 R. Fukuda, J. Hasegawa, M. Ishida, T. Nakajima, Y. Honda, O. Kitao, 
 H. Nakai, T. Vreven, K. Throssell, J. A. Montgomery, Jr., 
 J. E. Peralta, F. Ogliaro, M. J. Bearpark, J. J. Heyd, 
 E. N. Brothers, K. N. Kudin, V. N. Staroverov, T. A. Keith, 
 R. Kobayashi, J. Normand, K. Raghavachari, A. P. Rendell, 
 J. C. Burant, S. S. Iyengar, J. Tomasi, M. Cossi, J. M. Millam, 
 M. Klene, C. Adamo, R. Cammi, J. W. Ochterski, R. L. Martin, 
 K. Morokuma, O. Farkas, J. B. Foresman, and D. J. Fox, 
 Gaussian, Inc., Wallingford CT, 2020.
 
 ******************************************
 Gaussian DV:  ES64L-GDVRevJ.14 29-Dec-2020
                21-Oct-2022 
 ******************************************
 %mem=1GB
 %nprocshared=1
 Will use up to    1 processors via shared memory.
 %chk=GauHarm.chk
 ----------------------------------------------
 #p Amber=(SoftOnly,Print) nosymm Freq=intmodes
 ----------------------------------------------
 1/10=4,18=20,30=1,37=210000000,38=1,56=2,64=303/1,3;
 2/9=110,12=2,15=1,40=1/2;
 3/5=30,11=9,25=1,30=1,41=10030000,43=2,71=2,140=1/1;
 4/20=11,22=2,24=3,119=11/2;
 7/8=21,25=1,30=1,44=-1/16;
 1/10=4,18=20,30=1,64=303/3;
 99//99;
 Leave Link    1 at Fri Oct 21 13:15:31 2022, MaxMem=   134217728 cpu:               0.0 elap:               0.0
 (Enter /home/emanuele/chem_software/gaussian//gdv/l101.exe)
 -----
 Title
 -----
 Symbolic Z-matrix:
 Charge =  0 Multiplicity = 1
 H-HA-0.00            -1.00968   2.50592   0. 
 H-HA-0.00            -0.91744  -2.49585   0. 
 H-HA-0.00            -3.06191  -1.26258   0. 
 H-HA-0.00             3.4531   -0.08238   0. 
 H-HA-0.00             1.99321   2.17324   0. 
 C-CA-0.00             1.62045   1.16314   0. 
 C-CA-0.00             2.3823    0.03046   0. 
 C-CA-0.00             0.24814   0.74838   0. 
 N-NA-0.00             1.56196  -1.07751   0. 
 C-CA-0.00             0.24704  -0.67014   0. 
 C-CA-0.00            -0.9797    1.42387   0. 
 C-CA-0.00            -0.93223  -1.41339   0. 
 C-CA-0.00            -2.15154   0.68933   0. 
 C-CA-0.00            -2.12821  -0.71611   0. 
 H-HA-0.00            -3.10487   1.20094   0. 
 H-HA-0.00             1.87646  -2.02997   0. 
 
 ITRead=  0  0  0  0  0  0  0  0  0  0  0  0  0  0  0  0
 MicOpt= -1 -1 -1 -1 -1 -1 -1 -1 -1 -1 -1 -1 -1 -1 -1 -1
 NAtoms=     16 NQM=       16 NQMF=       0 NMMI=      0 NMMIF=      0
                NMic=       0 NMicF=      0.
                    Isotopes and Nuclear Properties:
 (Nuclear quadrupole moments (NQMom) in fm**2, nuclear magnetic moments (NMagM)
  in nuclear magnetons)

  Atom         1           2           3           4           5           6           7           8           9          10
 IAtWgt=           1           1           1           1           1          12          12          12          14          12
 AtmWgt=   1.0078250   1.0078250   1.0078250   1.0078250   1.0078250  12.0000000  12.0000000  12.0000000  14.0030740  12.0000000
 NucSpn=           1           1           1           1           1           0           0           0           2           0
 AtZEff=  -0.0000000  -0.0000000  -0.0000000  -0.0000000  -0.0000000  -0.0000000  -0.0000000  -0.0000000  -0.0000000  -0.0000000
 NQMom=    0.0000000   0.0000000   0.0000000   0.0000000   0.0000000   0.0000000   0.0000000   0.0000000   2.0440000   0.0000000
 NMagM=    2.7928460   2.7928460   2.7928460   2.7928460   2.7928460   0.0000000   0.0000000   0.0000000   0.4037610   0.0000000
 AtZNuc=   1.0000000   1.0000000   1.0000000   1.0000000   1.0000000   6.0000000   6.0000000   6.0000000   7.0000000   6.0000000

  Atom        11          12          13          14          15          16
 IAtWgt=          12          12          12          12           1           1
 AtmWgt=  12.0000000  12.0000000  12.0000000  12.0000000   1.0078250   1.0078250
 NucSpn=           0           0           0           0           1           1
 AtZEff=  -0.0000000  -0.0000000  -0.0000000  -0.0000000  -0.0000000  -0.0000000
 NQMom=    0.0000000   0.0000000   0.0000000   0.0000000   0.0000000   0.0000000
 NMagM=    0.0000000   0.0000000   0.0000000   0.0000000   2.7928460   2.7928460
 AtZNuc=   6.0000000   6.0000000   6.0000000   6.0000000   1.0000000   1.0000000
 Generating MM parameters.
 Read MM parameter file:
 Include all MM classes

 MM sanity checks:
 All charges sum to:                0.00000000
 Charges of atoms sum to:           0.00000000
 WARNING -- There are centers with partial charges, but
 there is no Vanderwaals repulsion. Centers can collapse
 onto each other.
 MMInit generated parameter data with length LenPar=        2617.
 Leave Link  101 at Fri Oct 21 13:15:31 2022, MaxMem=   134217728 cpu:               0.3 elap:               0.3
 (Enter /home/emanuele/chem_software/gaussian//gdv/l103.exe)

 GradGradGradGradGradGradGradGradGradGradGradGradGradGradGradGradGradGrad
 Berny optimization.
 Initialization pass.
                           ----------------------------
                           !    Initial Parameters    !
                           ! (Angstroms and Degrees)  !
 --------------------------                            --------------------------
 ! Name  Definition              Value          Derivative Info.                !
 --------------------------------------------------------------------------------
 ! R1    R(1,11)                 1.0825         calculate D2E/DX2 analytically  !
 ! R2    R(2,12)                 1.0826         calculate D2E/DX2 analytically  !
 ! R3    R(3,14)                 1.0819         calculate D2E/DX2 analytically  !
 ! R4    R(4,7)                  1.0767         calculate D2E/DX2 analytically  !
 ! R5    R(5,6)                  1.0767         calculate D2E/DX2 analytically  !
 ! R6    R(6,7)                  1.3651         calculate D2E/DX2 analytically  !
 ! R7    R(6,8)                  1.4336         calculate D2E/DX2 analytically  !
 ! R8    R(7,9)                  1.3786         calculate D2E/DX2 analytically  !
 ! R9    R(8,10)                 1.4185         calculate D2E/DX2 analytically  !
 ! R10   R(8,11)                 1.4014         calculate D2E/DX2 analytically  !
 ! R11   R(9,10)                 1.3766         calculate D2E/DX2 analytically  !
 ! R12   R(9,16)                 1.003          calculate D2E/DX2 analytically  !
 ! R13   R(10,12)                1.394          calculate D2E/DX2 analytically  !
 ! R14   R(11,13)                1.383          calculate D2E/DX2 analytically  !
 ! R15   R(12,14)                1.3844         calculate D2E/DX2 analytically  !
 ! R16   R(13,14)                1.4056         calculate D2E/DX2 analytically  !
 ! R17   R(13,15)                1.0819         calculate D2E/DX2 analytically  !
 ! A1    A(5,6,7)              125.8195         calculate D2E/DX2 analytically  !
 ! A2    A(5,6,8)              127.072          calculate D2E/DX2 analytically  !
 ! A3    A(7,6,8)              107.1086         calculate D2E/DX2 analytically  !
 ! A4    A(4,7,6)              129.94           calculate D2E/DX2 analytically  !
 ! A5    A(4,7,9)              120.5013         calculate D2E/DX2 analytically  !
 ! A6    A(6,7,9)              109.5588         calculate D2E/DX2 analytically  !
 ! A7    A(6,8,10)             106.8611         calculate D2E/DX2 analytically  !
 ! A8    A(6,8,11)             134.3665         calculate D2E/DX2 analytically  !
 ! A9    A(10,8,11)            118.7724         calculate D2E/DX2 analytically  !
 ! A10   A(7,9,10)             109.3031         calculate D2E/DX2 analytically  !
 ! A11   A(7,9,16)             125.2103         calculate D2E/DX2 analytically  !
 ! A12   A(10,9,16)            125.4866         calculate D2E/DX2 analytically  !
 ! A13   A(8,10,9)             107.1685         calculate D2E/DX2 analytically  !
 ! A14   A(8,10,12)            122.2665         calculate D2E/DX2 analytically  !
 ! A15   A(9,10,12)            130.5649         calculate D2E/DX2 analytically  !
 ! A16   A(1,11,8)             120.4038         calculate D2E/DX2 analytically  !
 ! A17   A(1,11,13)            120.4939         calculate D2E/DX2 analytically  !
 ! A18   A(8,11,13)            119.1023         calculate D2E/DX2 analytically  !
 ! A19   A(2,12,10)            121.439          calculate D2E/DX2 analytically  !
 ! A20   A(2,12,14)            121.0263         calculate D2E/DX2 analytically  !
 ! A21   A(10,12,14)           117.5347         calculate D2E/DX2 analytically  !
 ! A22   A(11,13,14)           121.1294         calculate D2E/DX2 analytically  !
 ! A23   A(11,13,15)           119.699          calculate D2E/DX2 analytically  !
 ! A24   A(14,13,15)           119.1716         calculate D2E/DX2 analytically  !
 ! A25   A(3,14,12)            119.417          calculate D2E/DX2 analytically  !
 ! A26   A(3,14,13)            119.3884         calculate D2E/DX2 analytically  !
 ! A27   A(12,14,13)           121.1946         calculate D2E/DX2 analytically  !
 ! D1    D(5,6,7,4)              0.0001         calculate D2E/DX2 analytically  !
 ! D2    D(5,6,7,9)            180.0            calculate D2E/DX2 analytically  !
 ! D3    D(8,6,7,4)           -179.9999         calculate D2E/DX2 analytically  !
 ! D4    D(8,6,7,9)              0.0            calculate D2E/DX2 analytically  !
 ! D5    D(5,6,8,10)           180.0            calculate D2E/DX2 analytically  !
 ! D6    D(5,6,8,11)             0.0            calculate D2E/DX2 analytically  !
 ! D7    D(7,6,8,10)             0.0            calculate D2E/DX2 analytically  !
 ! D8    D(7,6,8,11)           180.0            calculate D2E/DX2 analytically  !
 ! D9    D(4,7,9,10)           179.9999         calculate D2E/DX2 analytically  !
 ! D10   D(4,7,9,16)            -0.0001         calculate D2E/DX2 analytically  !
 ! D11   D(6,7,9,10)             0.0            calculate D2E/DX2 analytically  !
 ! D12   D(6,7,9,16)           180.0            calculate D2E/DX2 analytically  !
 ! D13   D(6,8,10,9)             0.0            calculate D2E/DX2 analytically  !
 ! D14   D(6,8,10,12)          180.0            calculate D2E/DX2 analytically  !
 ! D15   D(11,8,10,9)          180.0            calculate D2E/DX2 analytically  !
 ! D16   D(11,8,10,12)           0.0            calculate D2E/DX2 analytically  !
 ! D17   D(6,8,11,1)             0.0            calculate D2E/DX2 analytically  !
 ! D18   D(6,8,11,13)          180.0            calculate D2E/DX2 analytically  !
 ! D19   D(10,8,11,1)          180.0            calculate D2E/DX2 analytically  !
 ! D20   D(10,8,11,13)           0.0            calculate D2E/DX2 analytically  !
 ! D21   D(7,9,10,8)             0.0            calculate D2E/DX2 analytically  !
 ! D22   D(7,9,10,12)          180.0            calculate D2E/DX2 analytically  !
 ! D23   D(16,9,10,8)          180.0            calculate D2E/DX2 analytically  !
 ! D24   D(16,9,10,12)           0.0            calculate D2E/DX2 analytically  !
 ! D25   D(8,10,12,2)          180.0            calculate D2E/DX2 analytically  !
 ! D26   D(8,10,12,14)           0.0            calculate D2E/DX2 analytically  !
 ! D27   D(9,10,12,2)            0.0            calculate D2E/DX2 analytically  !
 ! D28   D(9,10,12,14)         180.0            calculate D2E/DX2 analytically  !
 ! D29   D(1,11,13,14)         180.0            calculate D2E/DX2 analytically  !
 ! D30   D(1,11,13,15)          -0.0001         calculate D2E/DX2 analytically  !
 ! D31   D(8,11,13,14)           0.0            calculate D2E/DX2 analytically  !
 ! D32   D(8,11,13,15)         179.9999         calculate D2E/DX2 analytically  !
 ! D33   D(2,12,14,3)            0.0            calculate D2E/DX2 analytically  !
 ! D34   D(2,12,14,13)         180.0            calculate D2E/DX2 analytically  !
 ! D35   D(10,12,14,3)         180.0            calculate D2E/DX2 analytically  !
 ! D36   D(10,12,14,13)          0.0            calculate D2E/DX2 analytically  !
 ! D37   D(11,13,14,3)         180.0            calculate D2E/DX2 analytically  !
 ! D38   D(11,13,14,12)          0.0            calculate D2E/DX2 analytically  !
 ! D39   D(15,13,14,3)           0.0001         calculate D2E/DX2 analytically  !
 ! D40   D(15,13,14,12)       -179.9999         calculate D2E/DX2 analytically  !
 --------------------------------------------------------------------------------
 Trust Radius=3.00D-01 FncErr=1.00D-07 GrdErr=1.00D-07 EigMax=2.50D+02 EigMin=1.00D-04
 Number of steps in this run=      2 maximum allowed number of steps=      2.
 GradGradGradGradGradGradGradGradGradGradGradGradGradGradGradGradGradGrad

 Leave Link  103 at Fri Oct 21 13:15:31 2022, MaxMem=   134217728 cpu:               0.0 elap:               0.0
 (Enter /home/emanuele/chem_software/gaussian//gdv/l202.exe)
                          Input orientation:                          
 ---------------------------------------------------------------------
 Center     Atomic      Atomic             Coordinates (Angstroms)
 Number     Number       Type             X           Y           Z
 ---------------------------------------------------------------------
      1          1    20001033       -1.009677    2.505917    0.000000
      2          1    20001033       -0.917442   -2.495849    0.000000
      3          1    20001033       -3.061910   -1.262584    0.000000
      4          1    20001033        3.453102   -0.082375    0.000001
      5          1    20001033        1.993210    2.173240    0.000000
      6          6    20001003        1.620451    1.163136    0.000000
      7          6    20001003        2.382297    0.030455    0.000000
      8          6    20001003        0.248141    0.748383    0.000000
      9          7    20001015        1.561959   -1.077509    0.000000
     10          6    20001003        0.247035   -0.670140    0.000000
     11          6    20001003       -0.979704    1.423874    0.000000
     12          6    20001003       -0.932234   -1.413394    0.000000
     13          6    20001003       -2.151543    0.689333    0.000000
     14          6    20001003       -2.128208   -0.716107    0.000000
     15          1    20001033       -3.104872    1.200941    0.000001
     16          1    20001033        1.876463   -2.029966    0.000000
 ---------------------------------------------------------------------
                    Distance matrix (angstroms):
                    1          2          3          4          5
     1  H    0.000000
     2  H    5.002616   0.000000
     3  H    4.291067   2.473800   0.000000
     4  H    5.159036   4.992646   6.621048   0.000000
     5  H    3.021259   5.502026   6.112211   2.686835   0.000000
     6  C    2.953072   4.452985   5.273388   2.215831   1.076689
     7  C    4.199214   4.155778   5.595654   1.076733   2.177824
     8  C    2.161257   3.447263   3.873038   3.310881   2.252883
     9  N    4.410698   2.856417   4.627571   2.136987   3.279230
    10  C    3.415650   2.165461   3.361563   3.259499   3.336755
    11  C    1.082458   3.920217   3.398917   4.681726   3.065904
    12  C    3.920076   1.082556   2.135009   4.582879   4.628409
    13  C    2.145655   3.415902   2.153775   5.657524   4.402381
    14  C    3.410652   2.152542   1.081867   5.617173   5.033330
    15  H    2.468361   4.295475   2.463900   6.682359   5.189972
    16  H    5.376248   2.832482   4.997640   2.505774   4.204827
                    6          7          8          9         10
     6  C    0.000000
     7  C    1.365055   0.000000
     8  C    1.433616   2.251675   0.000000
     9  N    2.241408   1.378600   2.249444   0.000000
    10  C    2.290671   2.247260   1.418523   1.376581   0.000000
    11  C    2.613195   3.639322   1.401389   3.566086   2.426888
    12  C    3.626942   3.615358   2.463040   2.516708   1.393952
    13  C    3.801635   4.581465   2.400410   4.112399   2.757053
    14  C    4.193328   4.571872   2.791373   3.707822   2.375688
    15  H    4.725474   5.610620   3.383416   5.193327   3.838779
    16  H    3.203349   2.121604   3.220350   1.003039   2.122301
                   11         12         13         14         15
    11  C    0.000000
    12  C    2.837665   0.000000
    13  C    1.383025   2.430674   0.000000
    14  C    2.428699   1.384400   1.405634   0.000000
    15  H    2.136829   3.399280   1.081933   2.151498   0.000000
    16  H    4.481819   2.875576   4.859981   4.214690   5.937378
                   16
    16  H    0.000000
 Symmetry turned off by external request.
 Stoichiometry    C8H7N
 Framework group  C1[X(C8H7N)]
 Deg. of freedom    42
 Full point group                 C1      NOp   1
 Rotational constants (GHZ):           3.9068458           1.6424327           1.1563181
 Leave Link  202 at Fri Oct 21 13:15:31 2022, MaxMem=   134217728 cpu:               0.0 elap:               0.0
 (Enter /home/emanuele/chem_software/gaussian//gdv/l301.exe)
 Standard basis: Dummy (5D, 7F)
    16 basis functions,    16 primitive gaussians,    16 cartesian basis functions
    12 alpha electrons       12 beta electrons
       nuclear repulsion energy        57.2986836425 Hartrees.
 IExCor=       0 DFT=F Ex=HF Corr=None N6=None ScaHFX=  1.000000
 ScaDFX=  1.000000  1.000000  1.000000  1.000000  1.000000  0.000000
 ScaDFX=  0.000000  0.000000  0.000000  0.000000  0.000000  0.000000
 IRadAn=      5 IRanWt=     -1 IRanGd=            0 ICorTp=0 IEmpDi=  4
 NAtoms=   16 NActive=   16 NUniq=   16 SFac= 1.00D+00 NAtFMM=   60 NAOKFM=F Big=F
 Integral buffers will be    131072 words long.
 Raffenetti 1 integral format.
 Two-electron integral symmetry is turned off.
 Leave Link  301 at Fri Oct 21 13:15:31 2022, MaxMem=   134217728 cpu:               0.0 elap:               0.1
 (Enter /home/emanuele/chem_software/gaussian//gdv/l402.exe)
 AMBER calculation of energy, first and second derivatives.
 ****************************
 MOLECULAR MECHANICS FUNCTION
 ****************************
 Molecular mechanics terms:
 NBDir 3 1      0      0
 HrmStr1 11- 1    1.00 1.0820
 HrmStr1 12- 2    1.00 1.0820
 HrmStr1 14- 3    1.00 1.0820
 HrmStr1  7- 4    1.00 1.0820
 HrmStr1  6- 5    1.00 1.0820
 HrmStr1  6- 7    1.00 1.3790
 HrmStr1  6- 8    1.00 1.3790
 HrmStr1  7- 9    1.00 1.3980
 HrmStr1  8-10    1.00 1.3790
 HrmStr1  8-11    1.00 1.3790
 HrmStr1 10- 9    1.00 1.3980
 HrmStr1 16- 9    1.00 1.0800
 HrmStr1 10-12    1.00 1.3790
 HrmStr1 11-13    1.00 1.3790
 HrmStr1 12-14    1.00 1.3790
 HrmStr1 13-14    1.00 1.3790
 HrmStr1 13-15    1.00 1.0820
 HrmBnd1  8-11- 1   1.00 119.44
 HrmBnd1 13-11- 1   1.00 119.44
 HrmBnd1 10-12- 2   1.00 119.44
 HrmBnd1 14-12- 2   1.00 119.44
 HrmBnd1 12-14- 3   1.00 119.44
 HrmBnd1 13-14- 3   1.00 119.44
 HrmBnd1  6- 7- 4   1.00 119.44
 HrmBnd1  4- 7- 9   1.00 122.78
 HrmBnd1  7- 6- 5   1.00 119.44
 HrmBnd1  8- 6- 5   1.00 119.44
 HrmBnd1  6- 7- 9   1.00 108.36
 HrmBnd1  6- 8-10   1.00 118.70
 HrmBnd1  6- 8-11   1.00 118.70
 HrmBnd1  7- 6- 8   1.00 118.70
 HrmBnd1  7- 9-10   1.00 109.30
 HrmBnd1  7- 9-16   1.00 125.35
 HrmBnd1  8-10- 9   1.00 108.36
 HrmBnd1  8-10-12   1.00 118.70
 HrmBnd1  8-11-13   1.00 118.70
 HrmBnd1 12-10- 9   1.00 108.36
 HrmBnd1 10- 8-11   1.00 118.70
 HrmBnd1 10- 9-16   1.00 125.35
 HrmBnd1 10-12-14   1.00 118.70
 HrmBnd1 11-13-14   1.00 118.70
 HrmBnd1 11-13-15   1.00 119.44
 HrmBnd1 12-14-13   1.00 118.70
 HrmBnd1 14-13-15   1.00 119.44
 NBPair 11- 1 3 1      0      0 -1.000 -1.000
 NBPair 12- 2 3 1      0      0 -1.000 -1.000
 NBPair 14- 3 3 1      0      0 -1.000 -1.000
 NBPair  7- 4 3 1      0      0 -1.000 -1.000
 NBPair  6- 5 3 1      0      0 -1.000 -1.000
 NBPair  7- 5 3 1      0      0 -1.000 -1.000
 NBPair  8- 5 3 1      0      0 -1.000 -1.000
 NBPair  7- 6 3 1      0      0 -1.000 -1.000
 NBPair  5- 4 3 1      0      0 -0.500 -0.167
 NBPair  9- 5 3 1      0      0 -0.500 -0.167
 NBPair  8- 7 3 1      0      0 -1.000 -1.000
 NBPair  8- 4 3 1      0      0 -0.500 -0.167
 NBPair  8- 6 3 1      0      0 -1.000 -1.000
 NBPair 10- 5 3 1      0      0 -0.500 -0.167
 NBPair 11- 5 3 1      0      0 -0.500 -0.167
 NBPair 11- 7 3 1      0      0 -0.500 -0.167
 NBPair  6- 4 3 1      0      0 -1.000 -1.000
 NBPair  9- 4 3 1      0      0 -1.000 -1.000
 NBPair  9- 6 3 1      0      0 -1.000 -1.000
 NBPair  9- 7 3 1      0      0 -1.000 -1.000
 NBPair 10- 4 3 1      0      0 -0.500 -0.167
 NBPair 16- 4 3 1      0      0 -0.500 -0.167
 NBPair 16- 6 3 1      0      0 -0.500 -0.167
 NBPair 10- 6 3 1      0      0 -1.000 -1.000
 NBPair 11- 6 3 1      0      0 -1.000 -1.000
 NBPair 10- 8 3 1      0      0 -1.000 -1.000
 NBPair 12- 6 3 1      0      0 -0.500 -0.167
 NBPair 11-10 3 1      0      0 -1.000 -1.000
 NBPair 11- 9 3 1      0      0 -0.500 -0.167
 NBPair 12-11 3 1      0      0 -0.500 -0.167
 NBPair 11- 8 3 1      0      0 -1.000 -1.000
 NBPair  6- 1 3 1      0      0 -0.500 -0.167
 NBPair 13- 6 3 1      0      0 -0.500 -0.167
 NBPair 10- 1 3 1      0      0 -0.500 -0.167
 NBPair 13-10 3 1      0      0 -0.500 -0.167
 NBPair 10- 7 3 1      0      0 -1.000 -1.000
 NBPair 16- 7 3 1      0      0 -1.000 -1.000
 NBPair 10- 9 3 1      0      0 -1.000 -1.000
 NBPair 12- 7 3 1      0      0 -0.500 -0.167
 NBPair 16-10 3 1      0      0 -1.000 -1.000
 NBPair 16- 8 3 1      0      0 -0.500 -0.167
 NBPair 16-12 3 1      0      0 -0.500 -0.167
 NBPair 16- 9 3 1      0      0 -1.000 -1.000
 NBPair  9- 8 3 1      0      0 -1.000 -1.000
 NBPair 12- 8 3 1      0      0 -1.000 -1.000
 NBPair 12- 9 3 1      0      0 -1.000 -1.000
 NBPair 12-10 3 1      0      0 -1.000 -1.000
 NBPair  8- 2 3 1      0      0 -0.500 -0.167
 NBPair 14- 8 3 1      0      0 -0.500 -0.167
 NBPair  9- 2 3 1      0      0 -0.500 -0.167
 NBPair 14- 9 3 1      0      0 -0.500 -0.167
 NBPair  8- 1 3 1      0      0 -1.000 -1.000
 NBPair 13- 1 3 1      0      0 -1.000 -1.000
 NBPair 13- 8 3 1      0      0 -1.000 -1.000
 NBPair 13-11 3 1      0      0 -1.000 -1.000
 NBPair 14- 1 3 1      0      0 -0.500 -0.167
 NBPair 15- 1 3 1      0      0 -0.500 -0.167
 NBPair 15- 8 3 1      0      0 -0.500 -0.167
 NBPair 10- 2 3 1      0      0 -1.000 -1.000
 NBPair 14- 2 3 1      0      0 -1.000 -1.000
 NBPair 14-10 3 1      0      0 -1.000 -1.000
 NBPair 14-12 3 1      0      0 -1.000 -1.000
 NBPair  3- 2 3 1      0      0 -0.500 -0.167
 NBPair 13- 2 3 1      0      0 -0.500 -0.167
 NBPair 10- 3 3 1      0      0 -0.500 -0.167
 NBPair 14-11 3 1      0      0 -1.000 -1.000
 NBPair 15-11 3 1      0      0 -1.000 -1.000
 NBPair 14-13 3 1      0      0 -1.000 -1.000
 NBPair 11- 3 3 1      0      0 -0.500 -0.167
 NBPair 15-14 3 1      0      0 -1.000 -1.000
 NBPair 15- 3 3 1      0      0 -0.500 -0.167
 NBPair 15-12 3 1      0      0 -0.500 -0.167
 NBPair 15-13 3 1      0      0 -1.000 -1.000
 NBPair 12- 3 3 1      0      0 -1.000 -1.000
 NBPair 13- 3 3 1      0      0 -1.000 -1.000
 NBPair 13-12 3 1      0      0 -1.000 -1.000
 Energy per function type:
 Direct Coulomb + vdW (small)                           0.000000000
 Direct Coulomb (large)                                 0.000000000
 Direct vdW (large)                                     0.000000000
 Non-direct Coulomb + vdW (small)                       0.000000000
 Non-direct Coulomb (large)                             0.000000000
 Non-direct vdW (large)                                 0.000000000
 Harmonic stretch I                                     0.000020770
 Harmonic bend I                                        0.000614313
 Energy per function class:
        Coulomb               0.000000000
    Vanderwaals               0.000000000
     Stretching               0.000020770
        Bending               0.000614313
 Energy=    6.350834655E-04 NIter=   0.
 Dipole moment=       0.000000       0.000000       0.000000
 Leave Link  402 at Fri Oct 21 13:15:31 2022, MaxMem=   134217728 cpu:               0.0 elap:               0.1
 (Enter /home/emanuele/chem_software/gaussian//gdv/l716.exe)
 Dipole        = 0.00000000D+00 0.00000000D+00 0.00000000D+00
 Full mass-weighted force constant matrix:
 Low frequencies ---  -76.1649  -60.0457  -53.4919  -43.2995  -35.6957  -29.7895
 Low frequencies ---  -20.7038  -14.4527   -8.6993
 ******   10 imaginary frequencies (negative Signs) ****** 
 Diagonal vibrational polarizability:
        0.0000000       0.0000000       0.0000000
 Harmonic frequencies (cm**-1), IR intensities (KM/Mole), Raman scattering
 activities (A**4/AMU), depolarization ratios for plane and unpolarized
 incident light, reduced masses (AMU), force constants (mDyne/A),
 and normal coordinates:
                      1                      2                      3
                      A                      A                      A
 Frequencies --    -76.1337               -59.7113               -53.3411
 Red. masses --      1.4542                 1.2528                 5.7734
 Frc consts  --      0.0050                 0.0026                 0.0097
 IR Inten    --      0.0000                 0.0000                 0.0000
  Atom  AN      X      Y      Z        X      Y      Z        X      Y      Z
     1   1    -0.00   0.00   0.01     0.00  -0.00  -0.02    -0.00   0.00  -0.03
     2   1    -0.00  -0.00  -0.01    -0.00   0.00   0.04     0.00  -0.00   0.48
     3   1     0.00  -0.00  -0.00    -0.00   0.00   0.01     0.00  -0.00   0.02
     4   1     0.00   0.00  -0.39    -0.00  -0.00   0.87     0.00  -0.00  -0.14
     5   1     0.00   0.00   0.90    -0.00  -0.00   0.46     0.00   0.00  -0.26
     6   6     0.00   0.00  -0.17    -0.00  -0.00  -0.02     0.00   0.00  -0.03
     7   6    -0.00  -0.00   0.09     0.00   0.00  -0.13    -0.00   0.00   0.02
     8   6    -0.00   0.00   0.05     0.00  -0.00   0.04    -0.00   0.00   0.02
     9   7     0.00  -0.00  -0.00    -0.00   0.00  -0.01     0.00  -0.00  -0.22
    10   6     0.00  -0.00   0.01     0.00   0.00   0.03     0.00  -0.00   0.53
    11   6    -0.00   0.00  -0.01     0.00  -0.00  -0.03    -0.00   0.00  -0.04
    12   6     0.00  -0.00  -0.01    -0.00   0.00   0.01     0.00  -0.00  -0.30
    13   6     0.00  -0.00   0.00     0.00   0.00  -0.01    -0.00  -0.00  -0.02
    14   6     0.00  -0.00  -0.00    -0.00   0.00   0.01     0.00  -0.00   0.02
    15   1     0.00  -0.00   0.00     0.00   0.00  -0.01     0.00   0.00  -0.03
    16   1     0.00  -0.00  -0.01    -0.00   0.00   0.06     0.00   0.00   0.50
                      4                      5                      6
                      A                      A                      A
 Frequencies --    -43.0521               -35.3093               -29.3463
 Red. masses --      1.1336                 3.5657                 1.4188
 Frc consts  --      0.0012                 0.0026                 0.0007
 IR Inten    --      0.0000                 0.0000                 0.0000
  Atom  AN      X      Y      Z        X      Y      Z        X      Y      Z
     1   1    -0.00   0.00   0.01    -0.00   0.00   0.64    -0.00   0.00   0.25
     2   1     0.00  -0.00  -0.14    -0.00  -0.00  -0.45    -0.00  -0.00   0.94
     3   1     0.00  -0.00  -0.01    -0.00   0.00  -0.04    -0.00  -0.00  -0.02
     4   1     0.00  -0.00  -0.03     0.00  -0.00  -0.23     0.00   0.00  -0.03
     5   1     0.00   0.00   0.03     0.00   0.00  -0.33     0.00   0.00   0.01
     6   6     0.00   0.00   0.01     0.00   0.00  -0.00     0.00   0.00   0.02
     7   6    -0.00   0.00   0.01    -0.00  -0.00  -0.06    -0.00  -0.00  -0.00
     8   6    -0.00   0.00  -0.01     0.00   0.00   0.34    -0.00   0.00   0.05
     9   7     0.00  -0.00  -0.06    -0.00  -0.00  -0.02    -0.00   0.00   0.04
    10   6     0.00  -0.00  -0.07    -0.00  -0.00   0.01    -0.00   0.00  -0.13
    11   6    -0.00   0.00   0.03    -0.00   0.00  -0.31    -0.00   0.00  -0.05
    12   6     0.00  -0.00   0.03    -0.00  -0.00   0.06    -0.00  -0.00  -0.11
    13   6    -0.00   0.00   0.01     0.00  -0.00   0.08     0.00  -0.00   0.02
    14   6     0.00  -0.00  -0.01    -0.00  -0.00  -0.07    -0.00  -0.00   0.05
    15   1    -0.00  -0.00   0.02     0.00   0.00   0.01     0.00   0.00   0.01
    16   1     0.00   0.00   0.98     0.00   0.00   0.04    -0.00   0.00   0.12
                      7                      8                      9
                      A                      A                      A
 Frequencies --    -19.5636               -14.3756                -7.8193
 Red. masses --      1.6778                 4.4855                 3.0622
 Frc consts  --      0.0004                 0.0005                 0.0001
 IR Inten    --      0.0000                 0.0000                 0.0000
  Atom  AN      X      Y      Z        X      Y      Z        X      Y      Z
     1   1    -0.00   0.00   0.93    -0.00   0.00  -0.70    -0.00   0.00  -0.62
     2   1    -0.00  -0.00  -0.08    -0.00  -0.00   0.42    -0.00  -0.00  -0.12
     3   1    -0.00   0.00   0.05    -0.00   0.00  -0.05    -0.00   0.00   0.21
     4   1    -0.00   0.00   0.24    -0.00   0.00   0.03    -0.00  -0.00   0.37
     5   1    -0.00   0.00   0.05     0.00   0.00  -0.03     0.00   0.00   0.00
     6   6    -0.00   0.00  -0.02     0.00   0.00  -0.04     0.00   0.00   0.06
     7   6     0.00   0.00   0.08     0.00   0.00  -0.02    -0.00   0.00   0.23
     8   6     0.00   0.00  -0.20     0.00   0.00  -0.06     0.00   0.00  -0.01
     9   7     0.00  -0.00  -0.01    -0.00  -0.00   0.06     0.00  -0.00  -0.19
    10   6     0.00  -0.00   0.03    -0.00  -0.00   0.04     0.00  -0.00  -0.10
    11   6    -0.00   0.00  -0.05    -0.00   0.00  -0.04    -0.00   0.00  -0.17
    12   6    -0.00  -0.00   0.01    -0.00  -0.00   0.04    -0.00  -0.00  -0.03
    13   6     0.00  -0.00   0.09     0.00  -0.00   0.39     0.00  -0.00   0.14
    14   6    -0.00   0.00  -0.02    -0.00  -0.00  -0.38    -0.00  -0.00   0.17
    15   1    -0.00   0.00  -0.07    -0.00  -0.00   0.09    -0.00   0.00  -0.45
    16   1     0.00  -0.00  -0.03    -0.00  -0.00   0.06     0.00  -0.00  -0.19
                     10                     11                     12
                      A                      A                      A
 Frequencies --     -1.5166                 4.2545                11.9882
 Red. masses --      1.1288                 1.0886                 3.7639
 Frc consts  --      0.0000                 0.0000                 0.0003
 IR Inten    --      0.0000                 0.0000                 0.0000
  Atom  AN      X      Y      Z        X      Y      Z        X      Y      Z
     1   1     0.00  -0.00  -0.04    -0.00   0.00   0.08     0.00   0.00   0.23
     2   1     0.00   0.00   0.03    -0.00  -0.00   0.01     0.00  -0.00   0.73
     3   1     0.00  -0.00   0.56    -0.00   0.00   0.83     0.00  -0.00  -0.23
     4   1    -0.00  -0.00   0.10     0.00  -0.00  -0.08    -0.00  -0.00   0.06
     5   1    -0.00  -0.00  -0.01     0.00   0.00   0.02     0.00   0.00  -0.02
     6   6    -0.00  -0.00   0.01     0.00   0.00   0.01     0.00   0.00   0.02
     7   6    -0.00  -0.00   0.06     0.00   0.00  -0.03    -0.00  -0.00   0.07
     8   6    -0.00  -0.00  -0.01     0.00   0.00   0.03     0.00   0.00   0.06
     9   7     0.00   0.00  -0.03    -0.00  -0.00   0.01     0.00  -0.00  -0.27
    10   6     0.00   0.00  -0.01     0.00  -0.00  -0.00     0.00  -0.00   0.02
    11   6     0.00  -0.00  -0.04     0.00   0.00   0.04     0.00   0.00   0.08
    12   6     0.00   0.00   0.00    -0.00  -0.00  -0.02     0.00  -0.00   0.33
    13   6    -0.00   0.00  -0.05     0.00  -0.00  -0.02    -0.00   0.00  -0.14
    14   6     0.00   0.00  -0.04    -0.00  -0.00  -0.05     0.00  -0.00  -0.15
    15   1     0.00  -0.00   0.81    -0.00   0.00  -0.54    -0.00  -0.00  -0.23
    16   1     0.00   0.00  -0.03    -0.00  -0.00   0.02     0.00  -0.00  -0.25
                     13                     14                     15
                      A                      A                      A
 Frequencies --     29.9672                30.2647                34.6378
 Red. masses --      6.2832                 2.8711                 3.6940
 Frc consts  --      0.0033                 0.0015                 0.0026
 IR Inten    --      0.0000                 0.0000                 0.0000
  Atom  AN      X      Y      Z        X      Y      Z        X      Y      Z
     1   1    -0.15   0.06   0.00    -0.00   0.00  -0.10     0.30  -0.12  -0.00
     2   1    -0.25  -0.10  -0.00    -0.00  -0.00   0.07    -0.24  -0.11   0.00
     3   1    -0.33   0.04  -0.00    -0.00  -0.00   0.04    -0.17   0.25   0.00
     4   1     0.30   0.08   0.00     0.00  -0.00  -0.58    -0.07   0.41  -0.00
     5   1     0.20   0.06  -0.00     0.00   0.00   0.69    -0.35   0.04   0.00
     6   6     0.21   0.05  -0.00     0.00   0.00   0.31    -0.19  -0.01   0.00
     7   6     0.29   0.03   0.00     0.00  -0.00  -0.16    -0.04   0.19  -0.00
     8   6     0.04  -0.01   0.00     0.00   0.00  -0.13    -0.03  -0.12  -0.00
     9   7     0.29  -0.04   0.00     0.00   0.00  -0.03     0.13   0.01  -0.00
    10   6     0.05  -0.04  -0.00     0.00   0.00   0.05    -0.01  -0.12   0.00
    11   6    -0.15   0.05   0.00    -0.00   0.00  -0.16     0.17  -0.12  -0.00
    12   6    -0.20  -0.10  -0.00    -0.00  -0.00   0.07    -0.13  -0.10   0.00
    13   6    -0.26   0.03  -0.00    -0.00  -0.00  -0.00     0.15   0.10  -0.00
    14   6    -0.31   0.01  -0.00    -0.00  -0.00   0.04    -0.08   0.09   0.00
    15   1    -0.26   0.07   0.00    -0.00  -0.00   0.04     0.24   0.25   0.00
    16   1     0.34  -0.03   0.00     0.00  -0.00  -0.02     0.29   0.06  -0.00
                     16                     17                     18
                      A                      A                      A
 Frequencies --     44.0653                46.3717                54.9117
 Red. masses --      6.4383                 6.9343                 5.6067
 Frc consts  --      0.0074                 0.0088                 0.0100
 IR Inten    --      0.0000                 0.0000                 0.0000
  Atom  AN      X      Y      Z        X      Y      Z        X      Y      Z
     1   1    -0.30   0.09  -0.00    -0.11  -0.36  -0.00     0.29   0.12  -0.00
     2   1     0.32   0.05   0.00    -0.07   0.37   0.00     0.28  -0.11  -0.00
     3   1     0.13   0.16   0.00     0.01   0.25   0.00    -0.18  -0.19  -0.00
     4   1    -0.04   0.00  -0.00     0.03  -0.01  -0.00    -0.25  -0.03  -0.00
     5   1    -0.32  -0.09   0.00     0.01  -0.20  -0.00     0.03  -0.33  -0.00
     6   6    -0.24  -0.10   0.00     0.05  -0.19  -0.00    -0.02  -0.27  -0.00
     7   6    -0.02  -0.14  -0.00     0.03  -0.02   0.00    -0.22  -0.03  -0.00
     8   6    -0.10  -0.07  -0.00    -0.01  -0.25   0.00     0.16  -0.08  -0.00
     9   7     0.22  -0.12   0.00     0.09   0.17  -0.00     0.03   0.25   0.00
    10   6     0.06  -0.12   0.00    -0.01   0.22  -0.00     0.16   0.10  -0.00
    11   6    -0.30   0.09  -0.00    -0.09  -0.33  -0.00     0.14   0.10  -0.00
    12   6     0.31   0.05   0.00    -0.04   0.34   0.00     0.13  -0.09  -0.00
    13   6    -0.07   0.23   0.00    -0.02  -0.22   0.00    -0.20   0.09   0.00
    14   6     0.09   0.19  -0.00    -0.01   0.26  -0.00    -0.19  -0.11  -0.00
    15   1    -0.11   0.19  -0.00    -0.01  -0.22  -0.00    -0.19   0.17  -0.00
    16   1     0.32  -0.11   0.00     0.06   0.17  -0.00     0.07   0.31  -0.00
                     19                     20                     21
                      A                      A                      A
 Frequencies --     59.4229                62.6215                71.3424
 Red. masses --      6.7983                 6.5053                 4.6699
 Frc consts  --      0.0141                 0.0150                 0.0140
 IR Inten    --      0.0000                 0.0000                 0.0000
  Atom  AN      X      Y      Z        X      Y      Z        X      Y      Z
     1   1     0.12   0.12  -0.00     0.09  -0.04  -0.00     0.53  -0.01  -0.00
     2   1    -0.21   0.11   0.00     0.01   0.08   0.00     0.47   0.16   0.00
     3   1     0.09  -0.22  -0.00    -0.20   0.23   0.00    -0.04  -0.20   0.00
     4   1    -0.00  -0.37  -0.00    -0.03  -0.05  -0.00     0.15   0.12  -0.00
     5   1    -0.24  -0.01   0.00    -0.35   0.26   0.00    -0.04   0.04  -0.00
     6   6    -0.25   0.01   0.00    -0.23   0.20   0.00     0.01   0.02  -0.00
     7   6    -0.01  -0.34  -0.00    -0.03  -0.07  -0.00     0.13   0.06   0.00
     8   6    -0.08   0.19  -0.00     0.25   0.12  -0.00    -0.21  -0.04  -0.00
     9   7     0.32   0.06   0.00    -0.07  -0.18   0.00     0.02  -0.10  -0.00
    10   6    -0.08   0.18   0.00     0.27  -0.03   0.00    -0.27   0.00  -0.00
    11   6     0.14   0.11   0.00     0.15  -0.03  -0.00     0.28  -0.01  -0.00
    12   6    -0.22   0.09   0.00     0.08   0.07   0.00     0.23   0.12   0.00
    13   6     0.05  -0.10  -0.00    -0.17  -0.26  -0.00    -0.17  -0.01   0.00
    14   6     0.07  -0.17   0.00    -0.18   0.21   0.00    -0.10  -0.04  -0.00
    15   1     0.04  -0.17   0.00    -0.19  -0.29   0.00    -0.18   0.06  -0.00
    16   1     0.36   0.06   0.00    -0.16  -0.24   0.00     0.03  -0.13  -0.00
                     22                     23                     24
                      A                      A                      A
 Frequencies --     72.5405                81.7189               102.1725
 Red. masses --      4.0086                 4.1131                 3.2135
 Frc consts  --      0.0124                 0.0162                 0.0198
 IR Inten    --      0.0000                 0.0000                 0.0000
  Atom  AN      X      Y      Z        X      Y      Z        X      Y      Z
     1   1    -0.01   0.25  -0.00     0.06  -0.14  -0.00     0.05   0.28  -0.00
     2   1    -0.23   0.21   0.00     0.04   0.15   0.00    -0.07  -0.27   0.00
     3   1     0.28  -0.19   0.00     0.03  -0.38   0.00     0.09   0.26  -0.00
     4   1    -0.09   0.49  -0.00     0.27  -0.01  -0.00     0.47  -0.07  -0.00
     5   1    -0.11  -0.22   0.00    -0.41   0.15  -0.00    -0.37  -0.12  -0.00
     6   6    -0.03  -0.18   0.00    -0.15   0.06  -0.00    -0.12  -0.09  -0.00
     7   6    -0.03   0.22   0.00     0.19  -0.01   0.00     0.25  -0.02   0.00
     8   6     0.16  -0.04  -0.00     0.11  -0.17   0.00    -0.04  -0.08   0.00
     9   7     0.03  -0.15  -0.00    -0.10  -0.06  -0.00    -0.10   0.13  -0.00
    10   6    -0.04  -0.05  -0.00     0.11   0.17  -0.00    -0.02   0.01  -0.00
    11   6     0.00   0.20  -0.00    -0.04  -0.10  -0.00     0.02   0.15  -0.00
    12   6    -0.13   0.17   0.00    -0.06   0.11   0.00    -0.01  -0.15   0.00
    13   6    -0.11  -0.07   0.00    -0.01   0.22   0.00    -0.01  -0.09  -0.00
    14   6     0.17  -0.06   0.00    -0.01  -0.22  -0.00     0.07   0.11   0.00
    15   1    -0.22  -0.25  -0.00     0.02   0.38  -0.00    -0.08  -0.25   0.00
    16   1     0.12  -0.17  -0.00    -0.32  -0.14  -0.00    -0.29   0.20  -0.00
                     25                     26                     27
                      A                      A                      A
 Frequencies --    104.3727               121.3089               130.0580
 Red. masses --      3.2462                 4.2311                 3.3209
 Frc consts  --      0.0208                 0.0367                 0.0331
 IR Inten    --      0.0000                 0.0000                 0.0000
  Atom  AN      X      Y      Z        X      Y      Z        X      Y      Z
     1   1    -0.32   0.08   0.00    -0.17   0.26   0.00     0.10   0.46   0.00
     2   1     0.32  -0.01  -0.00     0.16   0.25  -0.00    -0.14   0.50  -0.00
     3   1    -0.43   0.00  -0.00    -0.26  -0.12  -0.00    -0.30  -0.23  -0.00
     4   1     0.05   0.25  -0.00     0.05  -0.25   0.00     0.03  -0.06   0.00
     5   1    -0.07  -0.29  -0.00    -0.13   0.38  -0.00     0.06   0.05  -0.00
     6   6    -0.04  -0.15   0.00    -0.02   0.14  -0.00     0.03   0.01  -0.00
     7   6     0.06   0.07   0.00    -0.01  -0.07  -0.00     0.00  -0.00  -0.00
     8   6     0.03   0.13   0.00     0.27  -0.18   0.00    -0.24  -0.11   0.00
     9   7    -0.00  -0.10  -0.00     0.01   0.11   0.00    -0.03   0.02   0.00
    10   6    -0.05   0.16  -0.00    -0.26  -0.18   0.00     0.25  -0.13  -0.00
    11   6    -0.08   0.05   0.00    -0.06   0.10   0.00     0.01   0.13   0.00
    12   6     0.08  -0.01   0.00     0.05   0.09  -0.00    -0.02   0.14  -0.00
    13   6     0.22  -0.07  -0.00     0.10  -0.04  -0.00     0.08  -0.05  -0.00
    14   6    -0.21  -0.04   0.00    -0.10  -0.04   0.00    -0.09  -0.06   0.00
    15   1     0.44  -0.08   0.00     0.26  -0.13  -0.00     0.30  -0.19  -0.00
    16   1    -0.07  -0.21  -0.00     0.13   0.34   0.00    -0.05   0.09  -0.00
                     28                     29                     30
                      A                      A                      A
 Frequencies --    131.6421               157.3059               159.6671
 Red. masses --      2.8405                 1.1019                 1.0954
 Frc consts  --      0.0290                 0.0161                 0.0165
 IR Inten    --      0.0000                 0.0000                 0.0000
  Atom  AN      X      Y      Z        X      Y      Z        X      Y      Z
     1   1    -0.11  -0.40   0.00     0.00   0.02   0.00     0.05  -0.21  -0.00
     2   1    -0.11   0.35  -0.00    -0.00   0.02  -0.00     0.05   0.27   0.00
     3   1    -0.03  -0.17  -0.00     0.00   0.01  -0.00     0.60   0.32   0.00
     4   1     0.36  -0.05   0.00     0.73  -0.25   0.00    -0.02   0.01  -0.00
     5   1    -0.10  -0.42  -0.00     0.03  -0.02   0.00     0.00   0.01  -0.00
     6   6    -0.05  -0.10  -0.00    -0.00   0.00  -0.00    -0.00  -0.00   0.00
     7   6     0.09   0.01   0.00    -0.08   0.03  -0.00     0.00  -0.00   0.00
     8   6     0.03   0.24   0.00     0.00  -0.01   0.00     0.00   0.00  -0.00
     9   7    -0.04   0.09  -0.00    -0.01   0.03   0.00    -0.00   0.00  -0.00
    10   6     0.01  -0.23  -0.00     0.00   0.00  -0.00     0.00   0.00   0.00
    11   6     0.00  -0.10   0.00     0.00  -0.00   0.00    -0.00   0.02   0.00
    12   6     0.00   0.09  -0.00    -0.00  -0.00  -0.00    -0.00  -0.02  -0.00
    13   6    -0.02   0.04   0.00     0.00   0.00   0.00    -0.05   0.02   0.00
    14   6    -0.01  -0.03  -0.00    -0.00   0.00  -0.00    -0.05  -0.03  -0.00
    15   1    -0.06   0.18   0.00     0.00   0.00   0.00     0.58  -0.26  -0.00
    16   1    -0.05   0.38  -0.00     0.27  -0.57  -0.00     0.00  -0.02   0.00
                     31                     32                     33
                      A                      A                      A
 Frequencies --    160.2672               161.6121               162.2232
 Red. masses --      1.1130                 1.1612                 1.1905
 Frc consts  --      0.0168                 0.0179                 0.0185
 IR Inten    --      0.0000                 0.0000                 0.0000
  Atom  AN      X      Y      Z        X      Y      Z        X      Y      Z
     1   1    -0.07   0.51   0.00    -0.04  -0.02   0.00    -0.01   0.54   0.00
     2   1     0.05   0.50   0.00     0.03   0.17  -0.00     0.02  -0.50  -0.00
     3   1     0.30   0.27   0.00     0.10   0.11  -0.00     0.25   0.05  -0.00
     4   1    -0.13   0.01  -0.00     0.32   0.03   0.00     0.31  -0.08   0.00
     5   1    -0.08  -0.19  -0.00     0.33   0.73   0.00    -0.03  -0.21   0.00
     6   6     0.01   0.02   0.00    -0.03  -0.09  -0.00     0.01   0.02  -0.00
     7   6     0.01  -0.01   0.00    -0.03   0.01  -0.00    -0.05   0.02  -0.00
     8   6     0.01   0.01   0.00    -0.01   0.02   0.00     0.00   0.01   0.00
     9   7    -0.00   0.01  -0.00     0.01  -0.04  -0.00     0.02  -0.05   0.00
    10   6    -0.01   0.01   0.00     0.01   0.02  -0.00     0.01  -0.00  -0.00
    11   6     0.00  -0.05   0.00     0.00   0.00   0.00     0.00  -0.07   0.00
    12   6     0.00  -0.05   0.00    -0.00  -0.02  -0.00    -0.00   0.06  -0.00
    13   6     0.04  -0.02  -0.00     0.02  -0.01  -0.00    -0.02   0.01   0.00
    14   6    -0.03  -0.02  -0.00    -0.01  -0.01   0.00    -0.03  -0.02  -0.00
    15   1    -0.39   0.29   0.00    -0.20   0.12   0.00     0.18   0.01  -0.00
    16   1     0.03  -0.11   0.00    -0.12   0.35  -0.00    -0.09   0.43  -0.00
                     34                     35                     36
                      A                      A                      A
 Frequencies --    165.5125               168.2967               213.1885
 Red. masses --      1.4289                 1.5150                 1.1710
 Frc consts  --      0.0231                 0.0253                 0.0314
 IR Inten    --      0.0000                 0.0000                 0.0000
  Atom  AN      X      Y      Z        X      Y      Z        X      Y      Z
     1   1     0.04  -0.40   0.00     0.05   0.45  -0.00    -0.43  -0.04   0.00
     2   1     0.04   0.36  -0.00    -0.06   0.47  -0.00    -0.40   0.03   0.00
     3   1    -0.14   0.03  -0.00    -0.43  -0.26   0.00     0.27  -0.48  -0.00
     4   1     0.34  -0.12   0.00     0.06   0.02   0.00    -0.01  -0.05  -0.00
     5   1    -0.16  -0.46   0.00     0.06   0.06   0.00    -0.10   0.04  -0.00
     6   6     0.03   0.08  -0.00    -0.01  -0.01   0.00     0.01  -0.00  -0.00
     7   6    -0.08   0.02  -0.00    -0.01   0.00  -0.00    -0.01   0.01   0.00
     8   6    -0.01  -0.06   0.00     0.03   0.04  -0.00    -0.01  -0.02   0.00
     9   7     0.03  -0.08   0.00     0.01  -0.02  -0.00     0.01  -0.01   0.00
    10   6    -0.00   0.06  -0.00    -0.03   0.04  -0.00    -0.01   0.02  -0.00
    11   6    -0.00   0.07  -0.00     0.00  -0.09  -0.00     0.05   0.03   0.00
    12   6    -0.00  -0.06  -0.00     0.00  -0.10  -0.00     0.04  -0.03  -0.00
    13   6     0.02  -0.01  -0.00    -0.09   0.05   0.00    -0.02  -0.06  -0.00
    14   6     0.01   0.01   0.00     0.09   0.05  -0.00    -0.02   0.06  -0.00
    15   1    -0.17  -0.02   0.00     0.43  -0.24  -0.00     0.25   0.50   0.00
    16   1    -0.13   0.49  -0.00    -0.05   0.08  -0.00    -0.02  -0.00  -0.00
                     37                     38                     39
                      A                      A                      A
 Frequencies --    217.2042               220.0450               223.8337
 Red. masses --      1.1859                 1.2541                 1.2692
 Frc consts  --      0.0330                 0.0358                 0.0375
 IR Inten    --      0.0000                 0.0000                 0.0000
  Atom  AN      X      Y      Z        X      Y      Z        X      Y      Z
     1   1     0.14  -0.00  -0.00     0.59   0.03  -0.00     0.55  -0.00   0.00
     2   1    -0.18   0.00   0.00    -0.58   0.01  -0.00     0.56   0.02   0.00
     3   1     0.08  -0.12   0.00     0.21  -0.27  -0.00     0.17  -0.36  -0.00
     4   1     0.19   0.60   0.00    -0.05  -0.18  -0.00    -0.03  -0.06  -0.00
     5   1     0.62  -0.28   0.00    -0.17   0.08  -0.00     0.03  -0.01  -0.00
     6   6    -0.07   0.06   0.00     0.02  -0.02  -0.00    -0.01  -0.00  -0.00
     7   6    -0.00  -0.07  -0.00    -0.00   0.02   0.00     0.01   0.01   0.00
     8   6     0.02  -0.03  -0.00     0.02   0.03  -0.00     0.01   0.02   0.00
     9   7     0.01   0.03  -0.00     0.00  -0.01   0.00    -0.01  -0.00   0.00
    10   6    -0.01  -0.01  -0.00    -0.02   0.02   0.00     0.01  -0.01  -0.00
    11   6    -0.02   0.01   0.00    -0.07  -0.02  -0.00    -0.08   0.02   0.00
    12   6     0.02  -0.00   0.00     0.07  -0.01  -0.00    -0.08  -0.02  -0.00
    13   6     0.01  -0.01  -0.00     0.06   0.02  -0.00     0.01  -0.07  -0.00
    14   6    -0.02   0.01   0.00    -0.06   0.01   0.00     0.01   0.07  -0.00
    15   1    -0.01   0.01   0.00    -0.19  -0.28   0.00     0.17   0.39   0.00
    16   1    -0.21  -0.09  -0.00     0.02   0.02   0.00     0.08   0.03   0.00
                     40                     41                     42
                      A                      A                      A
 Frequencies --    224.6545               228.4058               232.3531
 Red. masses --      1.2546                 1.2822                 1.2301
 Frc consts  --      0.0373                 0.0394                 0.0391
 IR Inten    --      0.0000                 0.0000                 0.0000
  Atom  AN      X      Y      Z        X      Y      Z        X      Y      Z
     1   1     0.34  -0.01   0.00    -0.07  -0.00   0.00    -0.01  -0.00  -0.00
     2   1    -0.35  -0.02   0.00    -0.07   0.00  -0.00    -0.06   0.00   0.00
     3   1    -0.31   0.52  -0.00    -0.01   0.02  -0.00     0.00   0.00   0.00
     4   1    -0.01  -0.02  -0.00    -0.21  -0.57  -0.00     0.09   0.40   0.00
     5   1    -0.02   0.01  -0.00     0.63  -0.22  -0.00    -0.11   0.03   0.00
     6   6     0.00  -0.00  -0.00    -0.11   0.01  -0.00     0.02   0.01   0.00
     7   6    -0.00   0.00   0.00     0.06   0.08   0.00     0.02  -0.07  -0.00
     8   6     0.01   0.01   0.00     0.01  -0.03   0.00    -0.00   0.00  -0.00
     9   7     0.00  -0.00   0.00    -0.03  -0.03   0.00    -0.10  -0.02  -0.00
    10   6    -0.01   0.01  -0.00     0.00   0.02   0.00     0.01   0.04  -0.00
    11   6    -0.05   0.02   0.00     0.01   0.00  -0.00     0.00   0.00  -0.00
    12   6     0.05   0.02  -0.00     0.01  -0.00  -0.00     0.01  -0.00   0.00
    13   6    -0.05  -0.07  -0.00    -0.00   0.00   0.00     0.00   0.00  -0.00
    14   6     0.05  -0.07  -0.00    -0.00  -0.00   0.00    -0.00  -0.00   0.00
    15   1     0.29   0.53  -0.00    -0.01  -0.02  -0.00    -0.00  -0.00  -0.00
    16   1    -0.01  -0.00  -0.00     0.36   0.13   0.00     0.85   0.28  -0.00

 -------------------
 - Thermochemistry -
 -------------------
 Temperature   298.150 Kelvin.  Pressure      1.00000 Atm.
 Atom     1 has atomic number  1 and mass   1.00783
 Atom     2 has atomic number  1 and mass   1.00783
 Atom     3 has atomic number  1 and mass   1.00783
 Atom     4 has atomic number  1 and mass   1.00783
 Atom     5 has atomic number  1 and mass   1.00783
 Atom     6 has atomic number  6 and mass  12.00000
 Atom     7 has atomic number  6 and mass  12.00000
 Atom     8 has atomic number  6 and mass  12.00000
 Atom     9 has atomic number  7 and mass  14.00307
 Atom    10 has atomic number  6 and mass  12.00000
 Atom    11 has atomic number  6 and mass  12.00000
 Atom    12 has atomic number  6 and mass  12.00000
 Atom    13 has atomic number  6 and mass  12.00000
 Atom    14 has atomic number  6 and mass  12.00000
 Atom    15 has atomic number  1 and mass   1.00783
 Atom    16 has atomic number  1 and mass   1.00783
 Molecular mass:   117.05785 amu.
 Principal axes and moments of inertia in atomic units:
                                 1                 2                 3
     Eigenvalues --          461.943286       1098.822026       1560.765312
           X                   1.000000          0.000779         -0.000000
           Y                  -0.000779          1.000000         -0.000000
           Z                   0.000000          0.000000          1.000000
 This molecule is an asymmetric top.
 Rotational symmetry number  1.
 Warning -- assumption of classical behavior for rotation
           may cause significant error
 Rotational temperatures (Kelvin)      0.18750     0.07882     0.05549
 Rotational constants (GHZ):           3.90685     1.64243     1.15632
   10 imaginary frequencies ignored.
 Zero-point vibrational energy      23256.8 (Joules/Mol)
                                    5.55851 (Kcal/Mol)
 Warning -- explicit consideration of  32 degrees of freedom as
           vibrations may cause significant error
 Vibrational temperatures:      6.12    17.25    43.12    43.54    49.84
          (Kelvin)             63.40    66.72    79.01    85.50    90.10
                              102.65   104.37   117.58   147.00   150.17
                              174.54   187.12   189.40   226.33   229.73
                              230.59   232.52   233.40   238.14   242.14
                              306.73   312.51   316.60   322.05   323.23
                              328.63   334.30
 
 Zero-point correction=                           0.008858 (Hartree/Particle)
 Thermal correction to Energy=                    0.034197
 Thermal correction to Enthalpy=                  0.035141
 Thermal correction to Gibbs Free Energy=        -0.052961
 Sum of electronic and zero-point Energies=              0.009493
 Sum of electronic and thermal Energies=                 0.034832
 Sum of electronic and thermal Enthalpies=               0.035777
 Sum of electronic and thermal Free Energies=           -0.052326
 
                     E (Thermal)             CV                S
                      KCal/Mol        Cal/Mol-Kelvin    Cal/Mol-Kelvin
 Total                   21.459             67.197            185.426
 Electronic               0.000              0.000              0.000
 Translational            0.889              2.981             40.187
 Rotational               0.889              2.981             28.162
 Vibrational             19.682             61.235            117.077
 Vibration     1          0.593              1.987              9.709
 Vibration     2          0.593              1.987              7.651
 Vibration     3          0.594              1.984              5.832
 Vibration     4          0.594              1.984              5.812
 Vibration     5          0.594              1.983              5.544
 Vibration     6          0.595              1.980              5.067
 Vibration     7          0.595              1.979              4.966
 Vibration     8          0.596              1.976              4.632
 Vibration     9          0.597              1.974              4.476
 Vibration    10          0.597              1.972              4.373
 Vibration    11          0.598              1.968              4.116
 Vibration    12          0.599              1.967              4.083
 Vibration    13          0.600              1.962              3.849
 Vibration    14          0.604              1.947              3.412
 Vibration    15          0.605              1.946              3.371
 Vibration    16          0.609              1.931              3.079
 Vibration    17          0.612              1.923              2.945
 Vibration    18          0.612              1.922              2.922
 Vibration    19          0.621              1.894              2.582
 Vibration    20          0.622              1.892              2.554
 Vibration    21          0.622              1.891              2.547
 Vibration    22          0.622              1.889              2.531
 Vibration    23          0.622              1.889              2.524
 Vibration    24          0.624              1.885              2.486
 Vibration    25          0.625              1.881              2.454
 Vibration    26          0.644              1.821              2.016
 Vibration    27          0.646              1.815              1.982
 Vibration    28          0.647              1.811              1.959
 Vibration    29          0.649              1.805              1.928
 Vibration    30          0.649              1.803              1.921
 Vibration    31          0.651              1.798              1.891
 Vibration    32          0.653              1.791              1.861
                       Q            Log10(Q)             Ln(Q)
 Total Bot       0.229180D+25         24.360177         56.091380
 Total V=0       0.272013D+29         28.434590         65.473062
 Vib (Bot)       0.144494D+12         11.159850         25.696503
 Vib (Bot)    1  0.487065D+02          1.687587          3.885812
 Vib (Bot)    2  0.172833D+02          1.237626          2.849739
 Vib (Bot)    3  0.690903D+01          0.839417          1.932829
 Vib (Bot)    4  0.684098D+01          0.835118          1.922931
 Vib (Bot)    5  0.597566D+01          0.776386          1.787695
 Vib (Bot)    6  0.469382D+01          0.671526          1.546247
 Vib (Bot)    7  0.445946D+01          0.649282          1.495027
 Vib (Bot)    8  0.376276D+01          0.575507          1.325154
 Vib (Bot)    9  0.347536D+01          0.541000          1.245699
 Vib (Bot)   10  0.329660D+01          0.518067          1.192893
 Vib (Bot)   11  0.289035D+01          0.460951          1.061379
 Vib (Bot)   12  0.284214D+01          0.453646          1.044558
 Vib (Bot)   13  0.251947D+01          0.401309          0.924047
 Vib (Bot)   14  0.200778D+01          0.302717          0.697032
 Vib (Bot)   15  0.196460D+01          0.293273          0.675287
 Vib (Bot)   16  0.168409D+01          0.226365          0.521225
 Vib (Bot)   17  0.156747D+01          0.195200          0.449464
 Vib (Bot)   18  0.154799D+01          0.189768          0.436958
 Vib (Bot)   19  0.128623D+01          0.109319          0.251715
 Vib (Bot)   20  0.126630D+01          0.102536          0.236097
 Vib (Bot)   21  0.126132D+01          0.100826          0.232161
 Vib (Bot)   22  0.125031D+01          0.097016          0.223389
 Vib (Bot)   23  0.124536D+01          0.095295          0.219424
 Vib (Bot)   24  0.121935D+01          0.086127          0.198316
 Vib (Bot)   25  0.119811D+01          0.078495          0.180742
 Vib (Bot)   26  0.930447D+00         -0.031308         -0.072090
 Vib (Bot)   27  0.911741D+00         -0.040128         -0.092399
 Vib (Bot)   28  0.898906D+00         -0.046286         -0.106577
 Vib (Bot)   29  0.882277D+00         -0.054395         -0.125249
 Vib (Bot)   30  0.878745D+00         -0.056137         -0.129260
 Vib (Bot)   31  0.862916D+00         -0.064031         -0.147438
 Vib (Bot)   32  0.846791D+00         -0.072224         -0.166301
 Vib (V=0)       0.171499D+16         15.234263         35.078186
 Vib (V=0)    1  0.492090D+02          1.692045          3.896077
 Vib (V=0)    2  0.177905D+02          1.250188          2.878665
 Vib (V=0)    3  0.742709D+01          0.870819          2.005135
 Vib (V=0)    4  0.735923D+01          0.866832          1.995955
 Vib (V=0)    5  0.649654D+01          0.812682          1.871270
 Vib (V=0)    6  0.522038D+01          0.717702          1.652569
 Vib (V=0)    7  0.498740D+01          0.697874          1.606915
 Vib (V=0)    8  0.429584D+01          0.633048          1.457647
 Vib (V=0)    9  0.401115D+01          0.603269          1.389077
 Vib (V=0)   10  0.383431D+01          0.583687          1.343989
 Vib (V=0)   11  0.343328D+01          0.535709          1.233517
 Vib (V=0)   12  0.338579D+01          0.529660          1.219587
 Vib (V=0)   13  0.306860D+01          0.486940          1.121222
 Vib (V=0)   14  0.256911D+01          0.409782          0.943558
 Vib (V=0)   15  0.252722D+01          0.402644          0.927122
 Vib (V=0)   16  0.225675D+01          0.353483          0.813924
 Vib (V=0)   17  0.214529D+01          0.331485          0.763273
 Vib (V=0)   18  0.212674D+01          0.327714          0.754589
 Vib (V=0)   19  0.188000D+01          0.274157          0.631269
 Vib (V=0)   20  0.186144D+01          0.269848          0.621348
 Vib (V=0)   21  0.185681D+01          0.268768          0.618861
 Vib (V=0)   22  0.184658D+01          0.266367          0.613333
 Vib (V=0)   23  0.184198D+01          0.265286          0.610843
 Vib (V=0)   24  0.181788D+01          0.259565          0.597671
 Vib (V=0)   25  0.179825D+01          0.254850          0.586815
 Vib (V=0)   26  0.155628D+01          0.192088          0.442300
 Vib (V=0)   27  0.153984D+01          0.187476          0.431680
 Vib (V=0)   28  0.152861D+01          0.184296          0.424357
 Vib (V=0)   29  0.151411D+01          0.180156          0.414826
 Vib (V=0)   30  0.151104D+01          0.179275          0.412795
 Vib (V=0)   31  0.149731D+01          0.175311          0.403669
 Vib (V=0)   32  0.148339D+01          0.171255          0.394330
 Electronic      0.100000D+01          0.000000          0.000000
 Translational   0.497800D+08          7.697055         17.723123
 Rotational      0.318620D+06          5.503272         12.671753
                           ----------------------------
                           ! Normal Mode     1        !
 --------------------------                            --------------------------
 ! Name  Definition              Value          Relative Weight (%)             !
 --------------------------------------------------------------------------------
 ! D1    D(5,6,7,4)             -1.1148                 19.9                    !
 ! D2    D(5,6,7,9)             -0.649                  11.6                    !
 ! D3    D(8,6,7,4)             -0.2751                  4.9                    !
 ! D4    D(8,6,7,9)              0.1907                  3.4                    !
 ! D5    D(5,6,8,10)             0.682                  12.2                    !
 ! D6    D(5,6,8,11)             0.8347                 14.9                    !
 ! D7    D(7,6,8,10)            -0.1713                  3.1                    !
 ! D9    D(4,7,9,10)             0.2761                  4.9                    !
 ! D10   D(4,7,9,16)             0.3142                  5.6                    !
 ! D11   D(6,7,9,10)            -0.1384                  2.5                    !
 ! D12   D(6,7,9,16)            -0.1003                  1.8                    !
 ! D13   D(6,8,10,9)             0.0889                  1.6                    !
 ! D14   D(6,8,10,12)            0.0882                  1.6                    !
 ! D17   D(6,8,11,1)            -0.1668                  3.0                    !
 ! D18   D(6,8,11,13)           -0.117                   2.1                    !
 --------------------------------------------------------------------------------
                           ----------------------------
                           ! Normal Mode     2        !
 --------------------------                            --------------------------
 ! Name  Definition              Value          Relative Weight (%)             !
 --------------------------------------------------------------------------------
 ! D1    D(5,6,7,4)              0.4268                  9.6                    !
 ! D2    D(5,6,7,9)             -0.3231                  7.3                    !
 ! D3    D(8,6,7,4)              0.6949                 15.7                    !
 ! D4    D(8,6,7,9)             -0.055                   1.2                    !
 ! D5    D(5,6,8,10)             0.2974                  6.7                    !
 ! D6    D(5,6,8,11)             0.3732                  8.4                    !
 ! D8    D(7,6,8,11)             0.1007                  2.3                    !
 ! D9    D(4,7,9,10)            -0.6018                 13.6                    !
 ! D10   D(4,7,9,16)            -0.5915                 13.4                    !
 ! D11   D(6,7,9,10)             0.0655                  1.5                    !
 ! D12   D(6,7,9,16)             0.0757                  1.7                    !
 ! D14   D(6,8,10,12)            0.0316                  0.7                    !
 ! D15   D(11,8,10,9)           -0.0478                  1.1                    !
 ! D16   D(11,8,10,12)          -0.0302                  0.7                    !
 ! D17   D(6,8,11,1)            -0.0823                  1.9                    !
 ! D18   D(6,8,11,13)           -0.0354                  0.8                    !
 ! D20   D(10,8,11,13)           0.0474                  1.1                    !
 ! D21   D(7,9,10,8)            -0.048                   1.1                    !
 ! D22   D(7,9,10,12)           -0.0676                  1.5                    !
 ! D23   D(16,9,10,8)           -0.0582                  1.3                    !
 ! D24   D(16,9,10,12)          -0.0778                  1.8                    !
 ! D27   D(9,10,12,2)            0.0476                  1.1                    !
 ! D31   D(8,11,13,14)          -0.0344                  0.8                    !
 --------------------------------------------------------------------------------
                           ----------------------------
                           ! Normal Mode     3        !
 --------------------------                            --------------------------
 ! Name  Definition              Value          Relative Weight (%)             !
 --------------------------------------------------------------------------------
 ! D2    D(5,6,7,9)              0.2315                  1.9                    !
 ! D7    D(7,6,8,10)             0.1693                  1.4                    !
 ! D9    D(4,7,9,10)            -0.1994                  1.6                    !
 ! D10   D(4,7,9,16)             0.6743                  5.5                    !
 ! D11   D(6,7,9,10)            -0.3904                  3.2                    !
 ! D12   D(6,7,9,16)             0.4833                  3.9                    !
 ! D13   D(6,8,10,9)            -0.4005                  3.3                    !
 ! D14   D(6,8,10,12)            0.4538                  3.7                    !
 ! D15   D(11,8,10,9)           -0.2845                  2.3                    !
 ! D16   D(11,8,10,12)           0.5698                  4.6                    !
 ! D19   D(10,8,11,1)           -0.2198                  1.8                    !
 ! D20   D(10,8,11,13)          -0.1843                  1.5                    !
 ! D21   D(7,9,10,8)             0.4875                  4.0                    !
 ! D22   D(7,9,10,12)           -0.4635                  3.8                    !
 ! D23   D(16,9,10,8)           -0.3893                  3.2                    !
 ! D24   D(16,9,10,12)          -1.3402                 10.9                    !
 ! D25   D(8,10,12,2)            0.2158                  1.8                    !
 ! D26   D(8,10,12,14)          -0.7234                  5.9                    !
 ! D27   D(9,10,12,2)            1.2903                 10.5                    !
 ! D28   D(9,10,12,14)           0.3511                  2.9                    !
 ! D33   D(2,12,14,3)           -0.5892                  4.8                    !
 ! D34   D(2,12,14,13)          -0.4257                  3.5                    !
 ! D35   D(10,12,14,3)           0.3459                  2.8                    !
 ! D36   D(10,12,14,13)          0.5094                  4.1                    !
 --------------------------------------------------------------------------------
                           ----------------------------
                           ! Normal Mode     4        !
 --------------------------                            --------------------------
 ! Name  Definition              Value          Relative Weight (%)             !
 --------------------------------------------------------------------------------
 ! D1    D(5,6,7,4)             -0.0361                  0.9                    !
 ! D3    D(8,6,7,4)             -0.0312                  0.8                    !
 ! D8    D(7,6,8,11)            -0.0255                  0.6                    !
 ! D9    D(4,7,9,10)             0.0326                  0.8                    !
 ! D10   D(4,7,9,16)             0.7242                 18.0                    !
 ! D12   D(6,7,9,16)             0.6816                 17.0                    !
 ! D14   D(6,8,10,12)           -0.0633                  1.6                    !
 ! D16   D(11,8,10,12)          -0.0565                  1.4                    !
 ! D17   D(6,8,11,1)             0.0424                  1.1                    !
 ! D19   D(10,8,11,1)            0.0332                  0.8                    !
 ! D22   D(7,9,10,12)            0.0818                  2.0                    !
 ! D23   D(16,9,10,8)           -0.6951                 17.3                    !
 ! D24   D(16,9,10,12)          -0.6122                 15.2                    !
 ! D25   D(8,10,12,2)           -0.0726                  1.8                    !
 ! D26   D(8,10,12,14)           0.0903                  2.2                    !
 ! D27   D(9,10,12,2)           -0.1663                  4.1                    !
 ! D33   D(2,12,14,3)            0.118                   2.9                    !
 ! D34   D(2,12,14,13)           0.0909                  2.3                    !
 ! D35   D(10,12,14,3)          -0.0443                  1.1                    !
 ! D36   D(10,12,14,13)         -0.0714                  1.8                    !
 --------------------------------------------------------------------------------
                           ----------------------------
                           ! Normal Mode     5        !
 --------------------------                            --------------------------
 ! Name  Definition              Value          Relative Weight (%)             !
 --------------------------------------------------------------------------------
 ! D2    D(5,6,7,9)              0.188                   1.9                    !
 ! D5    D(5,6,8,10)            -0.2703                  2.8                    !
 ! D6    D(5,6,8,11)             0.3639                  3.8                    !
 ! D7    D(7,6,8,10)            -0.1821                  1.9                    !
 ! D8    D(7,6,8,11)             0.4521                  4.7                    !
 ! D13   D(6,8,10,9)             0.1947                  2.0                    !
 ! D15   D(11,8,10,9)           -0.3226                  3.3                    !
 ! D16   D(11,8,10,12)          -0.4478                  4.6                    !
 ! D17   D(6,8,11,1)            -1.1009                 11.4                    !
 ! D19   D(10,8,11,1)           -0.4085                  4.2                    !
 ! D20   D(10,8,11,13)           0.5857                  6.1                    !
 ! D21   D(7,9,10,8)            -0.1368                  1.4                    !
 ! D23   D(16,9,10,8)           -0.173                   1.8                    !
 ! D25   D(8,10,12,2)           -0.1462                  1.5                    !
 ! D26   D(8,10,12,14)           0.2218                  2.3                    !
 ! D27   D(9,10,12,2)           -0.3037                  3.2                    !
 ! D29   D(1,11,13,14)           0.4706                  4.9                    !
 ! D30   D(1,11,13,15)           0.7561                  7.8                    !
 ! D31   D(8,11,13,14)          -0.5245                  5.4                    !
 ! D32   D(8,11,13,15)          -0.239                   2.5                    !
 ! D33   D(2,12,14,3)            0.3639                  3.8                    !
 ! D34   D(2,12,14,13)           0.2233                  2.3                    !
 ! D36   D(10,12,14,13)         -0.1431                  1.5                    !
 ! D37   D(11,13,14,3)           0.163                   1.7                    !
 ! D38   D(11,13,14,12)          0.3035                  3.1                    !
 ! D39   D(15,13,14,3)          -0.121                   1.3                    !
 --------------------------------------------------------------------------------
                           ----------------------------
                           ! Normal Mode     6        !
 --------------------------                            --------------------------
 ! Name  Definition              Value          Relative Weight (%)             !
 --------------------------------------------------------------------------------
 ! D5    D(5,6,8,10)            -0.0696                  1.4                    !
 ! D6    D(5,6,8,11)             0.0601                  1.2                    !
 ! D7    D(7,6,8,10)            -0.0633                  1.2                    !
 ! D8    D(7,6,8,11)             0.0663                  1.3                    !
 ! D9    D(4,7,9,10)             0.0822                  1.6                    !
 ! D10   D(4,7,9,16)             0.0492                  1.0                    !
 ! D11   D(6,7,9,10)             0.0874                  1.7                    !
 ! D12   D(6,7,9,16)             0.0544                  1.1                    !
 ! D13   D(6,8,10,9)             0.1151                  2.2                    !
 ! D16   D(11,8,10,12)          -0.1259                  2.5                    !
 ! D17   D(6,8,11,1)            -0.2414                  4.7                    !
 ! D19   D(10,8,11,1)           -0.0998                  1.9                    !
 ! D20   D(10,8,11,13)           0.1445                  2.8                    !
 ! D21   D(7,9,10,8)            -0.1253                  2.4                    !
 ! D23   D(16,9,10,8)           -0.0922                  1.8                    !
 ! D24   D(16,9,10,12)           0.0583                  1.1                    !
 ! D25   D(8,10,12,2)            0.6769                 13.2                    !
 ! D27   D(9,10,12,2)            0.5068                  9.9                    !
 ! D28   D(9,10,12,14)          -0.1534                  3.0                    !
 ! D29   D(1,11,13,14)           0.1843                  3.6                    !
 ! D30   D(1,11,13,15)           0.2076                  4.0                    !
 ! D31   D(8,11,13,14)          -0.0603                  1.2                    !
 ! D32   D(8,11,13,15)          -0.037                   0.7                    !
 ! D33   D(2,12,14,3)           -0.7088                 13.8                    !
 ! D34   D(2,12,14,13)          -0.585                  11.4                    !
 ! D35   D(10,12,14,3)          -0.0514                  1.0                    !
 ! D36   D(10,12,14,13)          0.0723                  1.4                    !
 ! D37   D(11,13,14,3)           0.0719                  1.4                    !
 ! D38   D(11,13,14,12)         -0.0517                  1.0                    !
 ! D39   D(15,13,14,3)           0.0488                  1.0                    !
 ! D40   D(15,13,14,12)         -0.0749                  1.5                    !
 --------------------------------------------------------------------------------
                           ----------------------------
                           ! Normal Mode     7        !
 --------------------------                            --------------------------
 ! Name  Definition              Value          Relative Weight (%)             !
 --------------------------------------------------------------------------------
 ! D5    D(5,6,8,10)             0.1067                  2.0                    !
 ! D6    D(5,6,8,11)            -0.1474                  2.8                    !
 ! D7    D(7,6,8,10)             0.0883                  1.7                    !
 ! D8    D(7,6,8,11)            -0.1658                  3.2                    !
 ! D9    D(4,7,9,10)            -0.0964                  1.9                    !
 ! D11   D(6,7,9,10)            -0.0822                  1.6                    !
 ! D13   D(6,8,10,9)            -0.1368                  2.6                    !
 ! D15   D(11,8,10,9)            0.0704                  1.4                    !
 ! D16   D(11,8,10,12)           0.175                   3.4                    !
 ! D17   D(6,8,11,1)            -0.3778                  7.3                    !
 ! D18   D(6,8,11,13)            0.1787                  3.4                    !
 ! D19   D(10,8,11,1)           -0.6551                 12.6                    !
 ! D20   D(10,8,11,13)          -0.0986                  1.9                    !
 ! D21   D(7,9,10,8)             0.136                   2.6                    !
 ! D23   D(16,9,10,8)            0.103                   2.0                    !
 ! D25   D(8,10,12,2)           -0.1592                  3.1                    !
 ! D26   D(8,10,12,14)          -0.0972                  1.9                    !
 ! D29   D(1,11,13,14)           0.5098                  9.8                    !
 ! D30   D(1,11,13,15)           0.7118                 13.7                    !
 ! D32   D(8,11,13,15)           0.1548                  3.0                    !
 ! D33   D(2,12,14,3)            0.1093                  2.1                    !
 ! D38   D(11,13,14,12)          0.1278                  2.5                    !
 ! D39   D(15,13,14,3)          -0.1745                  3.4                    !
 ! D40   D(15,13,14,12)         -0.0732                  1.4                    !
 --------------------------------------------------------------------------------
                           ----------------------------
                           ! Normal Mode     8        !
 --------------------------                            --------------------------
[...]
    A8        2.34514  -0.00019   0.00000  -0.06660  -0.06666   2.27848
    A9        2.07297   0.00011   0.00000   0.02715   0.02747   2.10044
   A10        1.90770  -0.00020   0.00000  -0.05855  -0.05825   1.84945
   A11        2.18533   0.00011   0.00000   0.03100   0.03085   2.21618
   A12        2.19015   0.00009   0.00000   0.02755   0.02741   2.21756
   A13        1.87044   0.00015   0.00000   0.03505   0.03498   1.90542
   A14        2.13395   0.00014   0.00000   0.04401   0.04433   2.17829
   A15        2.27879  -0.00029   0.00000  -0.07907  -0.07931   2.19948
   A16        2.10144   0.00006   0.00000   0.01142   0.01149   2.11294
   A17        2.10302   0.00005   0.00000   0.01030   0.01037   2.11338
   A18        2.07873  -0.00011   0.00000  -0.02172  -0.02186   2.05687
   A19        2.11951   0.00003   0.00000   0.00573   0.00565   2.12516
   A20        2.11231   0.00005   0.00000   0.01087   0.01079   2.12310
   A21        2.05137  -0.00008   0.00000  -0.01659  -0.01644   2.03493
   A22        2.11411  -0.00001   0.00000  -0.01239  -0.01278   2.10133
   A23        2.08914  -0.00001   0.00000   0.00291   0.00310   2.09224
   A24        2.07994   0.00002   0.00000   0.00948   0.00968   2.08961
   A25        2.08422   0.00002   0.00000   0.01006   0.01018   2.09440
   A26        2.08372   0.00002   0.00000   0.01041   0.01054   2.09426
   A27        2.11525  -0.00005   0.00000  -0.02047  -0.02072   2.09453
    D1        0.00000  -0.00000   0.00000   0.00000   0.00000   0.00000
    D2        3.14159   0.00000   0.00000  -0.00000  -0.00000   3.14159
    D3       -3.14159  -0.00000   0.00000   0.00000  -0.00000  -3.14159
    D4        0.00000  -0.00000   0.00000  -0.00000  -0.00000  -0.00000
    D5        3.14159  -0.00000   0.00000   0.00000   0.00000   3.14159
    D6        0.00000  -0.00000   0.00000  -0.00000  -0.00000  -0.00000
    D7        0.00000   0.00000   0.00000   0.00000   0.00000   0.00000
    D8        3.14159   0.00000   0.00000   0.00000   0.00000  -3.14159
    D9        3.14159  -0.00000   0.00000  -0.00000  -0.00000   3.14159
   D10       -0.00000  -0.00000   0.00000  -0.00000  -0.00000  -0.00000
   D11        0.00000   0.00000   0.00000   0.00000   0.00000   0.00000
   D12        3.14159   0.00000   0.00000   0.00000   0.00000  -3.14159
   D13        0.00000   0.00000   0.00000   0.00000   0.00000   0.00000
   D14        3.14159  -0.00000   0.00000  -0.00000  -0.00000   3.14159
   D15        3.14159   0.00000   0.00000   0.00000   0.00000   3.14159
   D16        0.00000  -0.00000   0.00000  -0.00000  -0.00000  -0.00000
   D17        0.00000  -0.00000   0.00000   0.00000   0.00000   0.00000
   D18        3.14159  -0.00000   0.00000   0.00000   0.00000  -3.14159
   D19        3.14159   0.00000   0.00000  -0.00000  -0.00000   3.14159
   D20        0.00000   0.00000   0.00000  -0.00000   0.00000   0.00000
   D21        0.00000  -0.00000   0.00000  -0.00000  -0.00000  -0.00000
   D22        3.14159  -0.00000   0.00000  -0.00000   0.00000   3.14159
   D23        3.14159  -0.00000   0.00000  -0.00000  -0.00000   3.14159
   D24        0.00000  -0.00000   0.00000  -0.00000  -0.00000  -0.00000
   D25        3.14159   0.00000   0.00000   0.00000   0.00000  -3.14159
   D26        0.00000   0.00000   0.00000   0.00000   0.00000   0.00000
   D27        0.00000  -0.00000   0.00000  -0.00000  -0.00000  -0.00000
   D28        3.14159  -0.00000   0.00000  -0.00000   0.00000   3.14159
   D29        3.14159   0.00000   0.00000   0.00000   0.00000  -3.14159
   D30       -0.00000   0.00000   0.00000  -0.00000  -0.00000  -0.00000
   D31        0.00000   0.00000   0.00000   0.00000   0.00000   0.00000
   D32        3.14159   0.00000   0.00000  -0.00000  -0.00000   3.14159
   D33        0.00000  -0.00000   0.00000   0.00000   0.00000   0.00000
   D34        3.14159  -0.00000   0.00000  -0.00000   0.00000   3.14159
   D35        3.14159  -0.00000   0.00000   0.00000   0.00000   3.14159
   D36        0.00000  -0.00000   0.00000  -0.00000  -0.00000  -0.00000
   D37        3.14159  -0.00000   0.00000  -0.00000  -0.00000   3.14159
   D38        0.00000  -0.00000   0.00000  -0.00000  -0.00000  -0.00000
   D39        0.00000   0.00000   0.00000   0.00000   0.00000   0.00000
   D40       -3.14159   0.00000   0.00000   0.00000   0.00000  -3.14159
         Item               Value     Threshold  Converged?
 Maximum Force            0.000412     0.000450     YES
 RMS     Force            0.000107     0.000300     YES
 Maximum Displacement     0.219037     0.001800     NO 
 RMS     Displacement     0.049816     0.001200     NO 
 Predicted change in Energy=-2.008391D-04
                           ----------------------------
                           ! Non-Optimized Parameters !
                           ! (Angstroms and Degrees)  !
 --------------------------                            --------------------------
 ! Name  Definition              Value          Derivative Info.                !
 --------------------------------------------------------------------------------
 ! R1    R(1,11)                 1.0823         -DE/DX =    0.0                 !
 ! R2    R(2,12)                 1.0823         -DE/DX =    0.0                 !
 ! R3    R(3,14)                 1.0819         -DE/DX =    0.0                 !
 ! R4    R(4,7)                  1.0789         -DE/DX =    0.0                 !
 ! R5    R(5,6)                  1.0789         -DE/DX =    0.0                 !
 ! R6    R(6,7)                  1.3772         -DE/DX =    0.0001              !
 ! R7    R(6,8)                  1.3764         -DE/DX =   -0.0003              !
 ! R8    R(7,9)                  1.4258         -DE/DX =    0.0003              !
 ! R9    R(8,10)                 1.3455         -DE/DX =   -0.0004              !
 ! R10   R(8,11)                 1.3814         -DE/DX =   -0.0001              !
 ! R11   R(9,10)                 1.3997         -DE/DX =    0.0001              !
 ! R12   R(9,16)                 1.0347         -DE/DX =    0.0001              !
 ! R13   R(10,12)                1.3689         -DE/DX =   -0.0001              !
 ! R14   R(11,13)                1.3988         -DE/DX =    0.0001              !
 ! R15   R(12,14)                1.3918         -DE/DX =    0.0001              !
 ! R16   R(13,14)                1.4218         -DE/DX =    0.0001              !
 ! R17   R(13,15)                1.082          -DE/DX =    0.0                 !
 ! A1    A(5,6,7)              125.5268         -DE/DX =    0.0                 !
 ! A2    A(5,6,8)              125.8848         -DE/DX =   -0.0001              !
 ! A3    A(7,6,8)              108.5884         -DE/DX =    0.0001              !
 ! A4    A(4,7,6)              126.5719         -DE/DX =   -0.0003              !
 ! A5    A(4,7,9)              126.2609         -DE/DX =    0.0004              !
 ! A6    A(6,7,9)              107.1672         -DE/DX =   -0.0001              !
 ! A7    A(6,8,10)             109.1065         -DE/DX =    0.0001              !
 ! A8    A(6,8,11)             130.5474         -DE/DX =   -0.0002              !
 ! A9    A(10,8,11)            120.3461         -DE/DX =    0.0001              !
 ! A10   A(7,9,10)             105.9654         -DE/DX =   -0.0002              !
 ! A11   A(7,9,16)             126.9778         -DE/DX =    0.0001              !
 ! A12   A(10,9,16)            127.0568         -DE/DX =    0.0001              !
 ! A13   A(8,10,9)             109.1725         -DE/DX =    0.0002              !
 ! A14   A(8,10,12)            124.8067         -DE/DX =    0.0001              !
 ! A15   A(9,10,12)            126.0208         -DE/DX =   -0.0003              !
 ! A16   A(1,11,8)             121.0623         -DE/DX =    0.0001              !
 ! A17   A(1,11,13)            121.088          -DE/DX =    0.0001              !
 ! A18   A(8,11,13)            117.8497         -DE/DX =   -0.0001              !
 ! A19   A(2,12,10)            121.7627         -DE/DX =    0.0                 !
 ! A20   A(2,12,14)            121.6447         -DE/DX =    0.0001              !
 ! A21   A(10,12,14)           116.5926         -DE/DX =   -0.0001              !
 ! A22   A(11,13,14)           120.3972         -DE/DX =    0.0                 !
 ! A23   A(11,13,15)           119.8768         -DE/DX =    0.0                 !
 ! A24   A(14,13,15)           119.726          -DE/DX =    0.0                 !
 ! A25   A(3,14,12)            120.0002         -DE/DX =    0.0                 !
 ! A26   A(3,14,13)            119.992          -DE/DX =    0.0                 !
 ! A27   A(12,14,13)           120.0077         -DE/DX =    0.0                 !
 ! D1    D(5,6,7,4)              0.0001         -DE/DX =    0.0                 !
 ! D2    D(5,6,7,9)            180.0            -DE/DX =    0.0                 !
 ! D3    D(8,6,7,4)           -179.9999         -DE/DX =    0.0                 !
 ! D4    D(8,6,7,9)              0.0            -DE/DX =    0.0                 !
 ! D5    D(5,6,8,10)           180.0            -DE/DX =    0.0                 !
 ! D6    D(5,6,8,11)             0.0            -DE/DX =    0.0                 !
 ! D7    D(7,6,8,10)             0.0            -DE/DX =    0.0                 !
 ! D8    D(7,6,8,11)          -180.0            -DE/DX =    0.0                 !
 ! D9    D(4,7,9,10)           179.9999         -DE/DX =    0.0                 !
 ! D10   D(4,7,9,16)            -0.0001         -DE/DX =    0.0                 !
 ! D11   D(6,7,9,10)             0.0            -DE/DX =    0.0                 !
 ! D12   D(6,7,9,16)          -180.0            -DE/DX =    0.0                 !
 ! D13   D(6,8,10,9)             0.0            -DE/DX =    0.0                 !
 ! D14   D(6,8,10,12)          180.0            -DE/DX =    0.0                 !
 ! D15   D(11,8,10,9)          180.0            -DE/DX =    0.0                 !
 ! D16   D(11,8,10,12)           0.0            -DE/DX =    0.0                 !
 ! D17   D(6,8,11,1)             0.0            -DE/DX =    0.0                 !
 ! D18   D(6,8,11,13)         -180.0            -DE/DX =    0.0                 !
 ! D19   D(10,8,11,1)          180.0            -DE/DX =    0.0                 !
 ! D20   D(10,8,11,13)           0.0            -DE/DX =    0.0                 !
 ! D21   D(7,9,10,8)             0.0            -DE/DX =    0.0                 !
 ! D22   D(7,9,10,12)          180.0            -DE/DX =    0.0                 !
 ! D23   D(16,9,10,8)          180.0            -DE/DX =    0.0                 !
 ! D24   D(16,9,10,12)           0.0            -DE/DX =    0.0                 !
 ! D25   D(8,10,12,2)         -180.0            -DE/DX =    0.0                 !
 ! D26   D(8,10,12,14)           0.0            -DE/DX =    0.0                 !
 ! D27   D(9,10,12,2)            0.0            -DE/DX =    0.0                 !
 ! D28   D(9,10,12,14)         180.0            -DE/DX =    0.0                 !
 ! D29   D(1,11,13,14)        -180.0            -DE/DX =    0.0                 !
 ! D30   D(1,11,13,15)          -0.0001         -DE/DX =    0.0                 !
 ! D31   D(8,11,13,14)           0.0            -DE/DX =    0.0                 !
 ! D32   D(8,11,13,15)         179.9999         -DE/DX =    0.0                 !
 ! D33   D(2,12,14,3)            0.0            -DE/DX =    0.0                 !
 ! D34   D(2,12,14,13)         180.0            -DE/DX =    0.0                 !
 ! D35   D(10,12,14,3)         180.0            -DE/DX =    0.0                 !
 ! D36   D(10,12,14,13)          0.0            -DE/DX =    0.0                 !
 ! D37   D(11,13,14,3)         180.0            -DE/DX =    0.0                 !
 ! D38   D(11,13,14,12)          0.0            -DE/DX =    0.0                 !
 ! D39   D(15,13,14,3)           0.0001         -DE/DX =    0.0                 !
 ! D40   D(15,13,14,12)       -179.9999         -DE/DX =    0.0                 !
 --------------------------------------------------------------------------------
 GradGradGradGradGradGradGradGradGradGradGradGradGradGradGradGradGradGrad

 Leave Link  103 at Fri Oct 21 13:15:32 2022, MaxMem=   134217728 cpu:               0.0 elap:               0.0
 (Enter /home/emanuele/chem_software/gaussian//gdv/l9999.exe)
 Unable to Open any file for archive entry.
 1\1\GINC-EMANUELE-XPS-13-9343\Freq\AMBER\ZDO\C8H7N1\EMANUELE\21-Oct-20
 22\0\\#p Amber=(SoftOnly,Print) nosymm Freq=intmodes\\Title\\0,1\H,-1.
 009677,2.505917,0.\H,-0.917442,-2.495849,0.\H,-3.06191,-1.262584,0.\H,
 3.453102,-0.082375,0.000001\H,1.99321,2.17324,0.\C,1.620451,1.163136,0
 .\C,2.382297,0.030455,0.\C,0.248141,0.748383,0.\N,1.561959,-1.077509,0
 .\C,0.247035,-0.67014,0.\C,-0.979704,1.423874,0.\C,-0.932234,-1.413394
 ,0.\C,-2.151543,0.689333,0.\C,-2.128208,-0.716107,0.\H,-3.104872,1.200
 941,0.000001\H,1.876463,-2.029966,0.\\Version=ES64L-GDVRevJ.14\HF=0.00
 06351\RMSD=0.000e+00\RMSF=1.836e-04\ZeroPoint=0.008858\Thermal=0.03419
 72\ETot=0.0348323\HTot=0.0357765\GTot=-0.0523255\Dipole=0.,0.,0.\PG=C0
 1 [X(C8H7N1)]\NImag=10\\0.00152338,0.00001628,0.00089293,0.,0.,-0.0000
 1547,0.,0.,0.,0.00152364,0.,0.,0.,0.00000314,0.00089248,0.,0.,0.,0.,0.
 ,-0.00002855,0.,0.,0.,0.,0.,0.,0.00105355,0.,0.,0.,0.,0.,0.,-0.0002755
 3,0.00136393,0.,0.,0.,0.,0.,0.,0.,0.,0.00000037,0.,0.,0.,0.,0.,0.,0.,0
 .,0.,0.00093536,0.,0.,0.,0.,0.,0.,0.,0.,0.,0.00023495,0.00149245,0.,0.
 ,0.,0.,0.,0.,0.,0.,0.,0.,0.,-0.00010453,0.,0.,0.,0.,0.,0.,0.,0.,0.,0.,
 0.,0.,0.00144740,0.,0.,0.,0.,0.,0.,0.,0.,0.,0.,0.,0.,-0.00022160,0.000
 98050,0.,0.,0.,0.,0.,0.,0.,0.,0.,0.,0.,0.,0.,0.,-0.00014385,0.,0.,0.,0
 .,0.,0.,0.,0.,0.,0.00005280,0.00050109,0.,-0.00207705,0.00045396,0.,0.
 00507703,0.,0.,0.,0.,0.,0.,0.,0.,0.,0.00003551,0.00033703,0.,0.0004229
 1,-0.00105478,0.,-0.00011536,0.00448990,0.,0.,0.,0.,0.,0.,0.,0.,0.,0.,
 0.,-0.00014521,0.,0.,0.00032390,0.,0.,-0.00047726,0.,0.,0.,0.,0.,0.,0.
 ,0.,0.,-0.00093752,-0.00025547,0.,0.00047272,-0.00017445,0.,-0.0023902
 9,-0.00087842,0.,0.00477757,0.,0.,0.,0.,0.,0.,0.,0.,0.,-0.00030796,-0.
 00218529,0.,0.00031795,-0.00011733,0.,-0.00095361,-0.00144715,0.,0.000
 29189,0.00491547,0.,0.,0.,0.,0.,0.,0.,0.,0.,0.,0.,0.00022201,0.,0.,-0.
 00008345,0.,0.,0.00023746,0.,0.,-0.00045961,0.00028349,0.00000785,0.,0
 .,0.,0.,0.,0.,0.,0.,0.,0.,0.00015694,-0.00005791,0.,-0.00104378,0.0005
 3777,0.,-0.00010948,-0.00007364,0.,0.00430347,0.00051530,0.00001427,0.
 ,0.,0.,0.,0.,0.,0.,0.,0.,0.,-0.00051926,0.00019162,0.,0.00046080,-0.00
 254041,0.,0.00036225,0.00024365,0.,0.00026197,0.00508430,0.,0.,-0.0000
 1153,0.,0.,0.,0.,0.,0.,0.,0.,0.,0.,0.,-0.00009659,0.,0.,0.00014669,0.,
 0.,0.00009657,0.,0.,-0.00029899,0.,0.,0.,0.,0.,0.,0.,0.,0.,-0.00005064
 ,-0.00048057,0.,0.,0.,0.,0.00031628,0.00021273,0.,-0.00219371,0.001007
 25,0.,0.00013526,-0.00000011,0.,0.00516533,0.,0.,0.,0.,0.,0.,0.,0.,0.,
 0.00003749,0.00035581,0.,0.,0.,0.,-0.00023417,-0.00015751,0.,0.0008526
 0,-0.00155623,0.,0.00043659,-0.00000034,0.,0.00007267,0.00475955,0.,0.
 ,0.,0.,0.,0.,0.,0.,0.,0.,0.,0.00002773,0.,0.,0.,0.,0.,-0.00001050,0.,0
 .,-0.00001488,0.,0.,0.00000998,0.,0.,-0.00024069,0.,0.,0.,0.00031533,0
 .00000431,0.,0.,0.,0.,0.,0.,0.,0.,0.,0.,0.00012697,-0.00042011,0.,-0.0
 0011185,0.00008282,0.,-0.00251844,-0.00002764,0.,-0.00100168,-0.000461
 12,0.,0.00432622,0.,0.,0.,-0.00050031,-0.00000684,0.,0.,0.,0.,0.,0.,0.
 ,0.,0.,0.,-0.00000010,0.00000033,0.,-0.00036104,0.00026732,0.,-0.00010
 914,-0.00089240,0.,-0.00046022,-0.00272897,0.,-0.00026971,0.00522398,0
 .,0.,0.,0.,0.,-0.00002425,0.,0.,0.,0.,0.,0.,0.,0.,0.,0.,0.,0.00009479,
 0.,0.,0.,0.,0.,-0.00010878,0.,0.,0.00039707,0.,0.,-0.00081672,-0.00212
 338,-0.00003290,0.,0.,0.,0.,0.,0.,0.,0.,0.,0.,0.,0.,0.,-0.00006195,0.0
 0020497,0.,0.,0.,0.,-0.00133022,-0.00083884,0.,0.,0.,0.,0.00021641,-0.
 00000017,0.,0.00468642,-0.00002663,-0.00089321,0.,0.,0.,0.,0.,0.,0.,0.
 ,0.,0.,0.,0.,0.,-0.00011261,0.00037258,0.,0.,0.,0.,-0.00080971,-0.0024
 4285,0.,0.,0.,0.,0.00039337,-0.00000031,0.,-0.00009940,0.00486455,0.,0
 .,0.00003979,0.,0.,0.,0.,0.,0.,0.,0.,0.,0.,0.,0.,0.,0.,-0.00016987,0.,
 0.,0.,0.,0.,0.00029950,0.,0.,0.,0.,0.,-0.00000061,0.,0.,-0.00020270,0.
 ,0.,0.,-0.00213889,-0.00001155,0.,-0.00015161,0.00025904,0.,0.,0.,0.,0
 .,0.,0.,0.,0.,0.,0.,0.,0.,0.00024067,-0.00000019,0.,-0.00007339,-0.000
 23689,0.,-0.00141038,0.00091733,0.,0.,0.,0.,0.00473450,0.,0.,0.,-0.000
 01725,-0.00089267,0.,-0.00026004,0.00044429,0.,0.,0.,0.,0.,0.,0.,0.,0.
 ,0.,0.,0.,0.,-0.00038185,0.00000030,0.,0.00011644,0.00037586,0.,0.0008
 5114,-0.00239471,0.,0.,0.,0.,0.00007746,0.00483818,0.,0.,0.,0.,0.,0.00
 007209,0.,0.,0.00000021,0.,0.,0.,0.,0.,0.,0.,0.,0.,0.,0.,0.,0.,0.,-0.0
 0003319,0.,0.,-0.00023724,0.,0.,0.00044978,0.,0.,0.,0.,0.,-0.00027162,
 0.00031651,0.00000877,0.,0.,0.,0.,0.00029642,-0.00050645,0.,0.,0.,0.,0
 .,0.,0.,0.,0.,0.,0.,0.,0.,-0.00011789,-0.00021429,0.,0.,0.,0.,0.,0.,0.
 ,-0.00148128,0.00080495,0.,0.00023098,0.00039617,0.,0.00478322,-0.0005
 0494,-0.00001399,0.,0.,0.,0.,0.00000492,-0.00000841,0.,0.,0.,0.,0.,0.,
 0.,0.,0.,0.,0.,0.,0.,0.00018807,0.00034186,0.,0.,0.,0.,0.,0.,0.,0.0010
 4142,-0.00233961,0.,0.00000383,0.00000658,0.,-0.00007902,0.00474979,0.
 ,0.,-0.00001279,0.,0.,0.,0.,0.,0.00000055,0.,0.,0.,0.,0.,0.,0.,0.,0.,0
 .,0.,0.,0.,0.,-0.00000366,0.,0.,0.,0.,0.,0.,0.,0.,0.00005976,0.,0.,-0.
 00002331,0.,0.,-0.00006826,0.,0.,0.,0.00029992,0.00000410,0.,-0.001198
 36,0.00052295,0.,0.,0.,0.,0.,0.,0.,0.,0.,0.,0.,0.,0.,0.,0.,0.,0.,0.,0.
 ,-0.00012421,0.00019707,0.,0.00024380,-0.00038894,0.,-0.00143188,-0.00
 078207,0.,-0.00287223,-0.00015111,0.,0.00480548,0.,0.,0.,0.00051442,0.
 00000703,0.,0.00053065,-0.00179982,0.,0.,0.,0.,0.,0.,0.,0.,0.,0.,0.,0.
 ,0.,0.,0.,0.,0.,0.,0.,-0.00021304,0.00033801,0.,0.00000405,-0.00000646
 ,0.,-0.00100903,-0.00237783,0.,0.00008737,-0.00089302,0.,0.00008097,0.
 00472351,0.,0.,0.,0.,0.,-0.00001930,0.,0.,-0.00000114,0.,0.,0.,0.,0.,0
 .,0.,0.,0.,0.,0.,0.,0.,0.,0.,0.,0.,0.,0.,0.,0.00001064,0.,0.,-0.000022
 70,0.,0.,0.00004327,0.,0.,0.00004753,0.,0.,-0.00006139,0.,0.,0.,0.,0.,
 0.,0.,0.,0.,0.,0.,0.,0.,0.,0.,0.,0.,0.,0.,0.,0.,0.,0.,0.,0.,0.,0.,0.,0
 .,0.,-0.00014980,0.00023898,0.,0.,0.,0.,-0.00115572,-0.00050317,0.,0.0
 0027747,0.00000461,0.,0.00102805,0.,0.,0.,0.,0.,0.,0.,0.,0.,0.,0.,0.,0
 .,0.,0.,0.,0.,0.,0.,0.,0.,0.,0.,0.,0.,0.,0.,0.,0.,0.,-0.00027913,0.000
 44531,0.,0.,0.,0.,-0.00049749,-0.00184320,0.,0.00051704,0.00000858,0.,
 0.00025959,0.00138930,0.,0.,0.,0.,0.,0.,0.,0.,0.,0.,0.,0.,0.,0.,0.,0.,
 0.,0.,0.,0.,0.,0.,0.,0.,0.,0.,0.,0.,0.,0.,0.,0.,-0.00000316,0.,0.,0.,0
 .,0.,0.00000018,0.,0.,0.00000309,0.,0.,-0.00000010,0.,0.,0.,0.,0.,0.,0
 .,0.,0.,0.,0.,0.,0.,0.,0.,0.,0.,0.,0.00049257,-0.00036470,0.,0.,0.,0.,
 -0.00229745,-0.00046716,0.,0.00018164,0.00058630,0.,0.,0.,0.,0.,0.,0.,
 0.,0.,0.,0.,0.,0.,0.,0.,0.,0.00162324,0.,0.,0.,0.,0.,0.,0.,0.,0.,0.,0.
 ,0.,0.,0.,0.,0.,0.,0.,0.00016265,-0.00012043,0.,0.,0.,0.,-0.00046819,-
 0.00104818,0.,0.00005998,0.00019360,0.,0.,0.,0.,0.,0.,0.,0.,0.,0.,0.,0
 .,0.,0.,0.,0.,0.00024557,0.00097501,0.,0.,0.,0.,0.,0.,0.,0.,0.,0.,0.,0
 .,0.,0.,0.,0.,0.,0.,0.,0.,0.00000190,0.,0.,0.,0.,0.,0.00006853,0.,0.,-
 0.00000192,0.,0.,0.,0.,0.,0.,0.,0.,0.,0.,0.,0.,0.,0.,0.,0.,0.,-0.00006
 851\\0.00000243,0.00000084,0.,-0.00001121,-0.00000109,0.,-0.00000020,0
 .00000079,0.,-0.00004545,-0.00034658,0.,0.00002902,-0.00002026,0.,0.00
 027655,-0.00003087,0.,-0.00019949,0.00027782,0.,-0.00010052,0.00046103
 ,0.,0.00022235,0.00034390,0.,0.00023119,-0.00081538,0.,-0.00021377,-0.
 00020463,0.,-0.00023283,0.00016255,0.,0.00003526,0.00000316,0.,0.00004
 634,0.00005562,0.,-0.00000668,-0.00001270,0.,-0.00003300,0.00012580,0.
 \\\@
 The archive entry for this job was punched.


 PERICLES, SOPHOCLES,
 PELOPONESIAN WAR,
 FRENCH VERBS, LATIN VERBS
 H2SO4.
 Job cpu time:       0 days  0 hours  0 minutes  0.6 seconds.
 Elapsed time:       0 days  0 hours  0 minutes  0.6 seconds.
 File lengths (MBytes):  RWF=      6 Int=      0 D2E=      0 Chk=      1 Scr=      1
 Normal termination of Gaussian DV at Fri Oct 21 13:15:32 2022.
