 Entering Gaussian System, Link 0=/home/emanuele/chem_software/gaussian//g09/g09
 Input=GauHarm.gjf
 Output=GauHarm.log
 Initial command:
 /home/emanuele/chem_software/gaussian//gdv/l1.exe "/home/emanuele/chem_software/gaussian/scratch/Gau-7513.inp" -scrdir="/home/emanuele/chem_software/gaussian/scratch/"
 Entering Link 1 = /home/emanuele/chem_software/gaussian//gdv/l1.exe PID=      7515.
  
 Copyright (c) 1988-2020, Gaussian, Inc.  All Rights Reserved.
  
 This is the private, development version of
 the Gaussian(R) DV system of programs. It is based on
 the Gaussian(R) 16 system (copyright 2016, Gaussian, Inc.),
 the Gaussian(R) 09 system (copyright 2009, Gaussian, Inc.),
 the Gaussian(R) 03 system (copyright 2003, Gaussian, Inc.),
 the Gaussian(R) 98 system (copyright 1998, Gaussian, Inc.),
 the Gaussian(R) 94 system (copyright 1995, Gaussian, Inc.),
 the Gaussian 92(TM) system (copyright 1992, Gaussian, Inc.),
 the Gaussian 90(TM) system (copyright 1990, Gaussian, Inc.),
 the Gaussian 88(TM) system (copyright 1988, Gaussian, Inc.),
 the Gaussian 86(TM) system (copyright 1986, Carnegie Mellon
 University), and the Gaussian 82(TM) system (copyright 1983,
 Carnegie Mellon University). Gaussian is a federally registered
 trademark of Gaussian, Inc.
  
 This software contains proprietary and confidential information,
 including trade secrets, belonging to Gaussian, Inc.
  
 This software is provided under written license and may be
 used, copied, transmitted, or stored only in accord with that
 written license.
  
 The following legend is applicable only to US Government
 contracts under FAR:
  
                    RESTRICTED RIGHTS LEGEND
  
 Use, reproduction and disclosure by the US Government is
 subject to restrictions as set forth in subparagraphs (a)
 and (c) of the Commercial Computer Software - Restricted
 Rights clause in FAR 52.227-19.
  
 Gaussian, Inc.
 340 Quinnipiac St., Bldg. 40, Wallingford CT 06492
  
  
 ---------------------------------------------------------------
 Warning -- This program may not be used in any manner that
 competes with the business of Gaussian, Inc. or will provide
 assistance to any competitor of Gaussian, Inc.  The licensee
 of this program is prohibited from giving any competitor of
 Gaussian, Inc. access to this program.  By using this program,
 the user acknowledges that Gaussian, Inc. is engaged in the
 business of creating and licensing software in the field of
 computational chemistry and represents and warrants to the
 licensee that it is not a competitor of Gaussian, Inc. and that
 it will not use this program in any manner prohibited above.
 ---------------------------------------------------------------
  

 Cite this work as:
 Gaussian Development Version, Revision J.14,
 M. J. Frisch, G. W. Trucks, H. B. Schlegel, G. E. Scuseria, 
 M. A. Robb, J. R. Cheeseman, G. Scalmani, V. Barone, 
 G. A. Petersson, H. Nakatsuji, X. Li, A. V. Marenich, M. Caricato, 
 J. Bloino, B. G. Janesko, J. Zheng, R. Gomperts, B. Mennucci, 
 H. P. Hratchian, J. V. Ortiz, A. F. Izmaylov, J. L. Sonnenberg, 
 D. Williams-Young, F. Ding, F. Lipparini, F. Egidi, J. Goings, 
 B. Peng, A. Petrone, T. Henderson, D. Ranasinghe, V. G. Zakrzewski, 
 J. Gao, N. Rega, G. Zheng, W. Liang, M. Hada, M. Ehara, K. Toyota, 
 R. Fukuda, J. Hasegawa, M. Ishida, T. Nakajima, Y. Honda, O. Kitao, 
 H. Nakai, T. Vreven, K. Throssell, J. A. Montgomery, Jr., 
 J. E. Peralta, F. Ogliaro, M. J. Bearpark, J. J. Heyd, 
 E. N. Brothers, K. N. Kudin, V. N. Staroverov, T. A. Keith, 
 R. Kobayashi, J. Normand, K. Raghavachari, A. P. Rendell, 
 J. C. Burant, S. S. Iyengar, J. Tomasi, M. Cossi, J. M. Millam, 
 M. Klene, C. Adamo, R. Cammi, J. W. Ochterski, R. L. Martin, 
 K. Morokuma, O. Farkas, J. B. Foresman, and D. J. Fox, 
 Gaussian, Inc., Wallingford CT, 2020.
 
 ******************************************
 Gaussian DV:  ES64L-GDVRevJ.14 29-Dec-2020
                 3-Nov-2022 
 ******************************************
 %mem=1GB
 %nprocshared=1
 Will use up to    1 processors via shared memory.
 %chk=GauHarm.chk
 ----------------------------------------------
 #p Amber=(SoftOnly,Print) nosymm Freq=intmodes
 ----------------------------------------------
 1/10=4,18=20,30=1,37=210000000,38=1,56=2,64=303/1,3;
 2/9=110,12=2,15=1,40=1/2;
 3/5=30,11=9,25=1,30=1,41=10030000,43=2,71=2,140=1/1;
 4/20=11,22=2,24=3,119=11/2;
 7/8=21,25=1,30=1,44=-1/16;
 1/10=4,18=20,30=1,64=303/3;
 99//99;
 Leave Link    1 at Thu Nov  3 15:46:30 2022, MaxMem=   134217728 cpu:               0.0 elap:               0.0
 (Enter /home/emanuele/chem_software/gaussian//gdv/l101.exe)
 -----
 Title
 -----
 Symbolic Z-matrix:
 Charge =  0 Multiplicity = 1
 H-HA-0.00            -1.00968   2.50592   0. 
 H-HA-0.00            -0.91744  -2.49585   0. 
 H-HA-0.00            -3.06191  -1.26258   0. 
 H-HA-0.00             3.4531   -0.08238   0. 
 H-HA-0.00             1.99321   2.17324   0. 
 C-CA-0.00             1.62045   1.16314   0. 
 C-CA-0.00             2.3823    0.03046   0. 
 C-CA-0.00             0.24814   0.74838   0. 
 N-NA-0.00             1.56196  -1.07751   0. 
 C-CA-0.00             0.24704  -0.67014   0. 
 C-CA-0.00            -0.9797    1.42387   0. 
 C-CA-0.00            -0.93223  -1.41339   0. 
 C-CA-0.00            -2.15154   0.68933   0. 
 C-CA-0.00            -2.12821  -0.71611   0. 
 H-HA-0.00            -3.10487   1.20094   0. 
 H-HA-0.00             1.87646  -2.02997   0. 
 
 ITRead=  0  0  0  0  0  0  0  0  0  0  0  0  0  0  0  0
 MicOpt= -1 -1 -1 -1 -1 -1 -1 -1 -1 -1 -1 -1 -1 -1 -1 -1
 NAtoms=     16 NQM=       16 NQMF=       0 NMMI=      0 NMMIF=      0
                NMic=       0 NMicF=      0.
                    Isotopes and Nuclear Properties:
 (Nuclear quadrupole moments (NQMom) in fm**2, nuclear magnetic moments (NMagM)
  in nuclear magnetons)

  Atom         1           2           3           4           5           6           7           8           9          10
 IAtWgt=           1           1           1           1           1          12          12          12          14          12
 AtmWgt=   1.0078250   1.0078250   1.0078250   1.0078250   1.0078250  12.0000000  12.0000000  12.0000000  14.0030740  12.0000000
 NucSpn=           1           1           1           1           1           0           0           0           2           0
 AtZEff=  -0.0000000  -0.0000000  -0.0000000  -0.0000000  -0.0000000  -0.0000000  -0.0000000  -0.0000000  -0.0000000  -0.0000000
 NQMom=    0.0000000   0.0000000   0.0000000   0.0000000   0.0000000   0.0000000   0.0000000   0.0000000   2.0440000   0.0000000
 NMagM=    2.7928460   2.7928460   2.7928460   2.7928460   2.7928460   0.0000000   0.0000000   0.0000000   0.4037610   0.0000000
 AtZNuc=   1.0000000   1.0000000   1.0000000   1.0000000   1.0000000   6.0000000   6.0000000   6.0000000   7.0000000   6.0000000

  Atom        11          12          13          14          15          16
 IAtWgt=          12          12          12          12           1           1
 AtmWgt=  12.0000000  12.0000000  12.0000000  12.0000000   1.0078250   1.0078250
 NucSpn=           0           0           0           0           1           1
 AtZEff=  -0.0000000  -0.0000000  -0.0000000  -0.0000000  -0.0000000  -0.0000000
 NQMom=    0.0000000   0.0000000   0.0000000   0.0000000   0.0000000   0.0000000
 NMagM=    0.0000000   0.0000000   0.0000000   0.0000000   2.7928460   2.7928460
 AtZNuc=   6.0000000   6.0000000   6.0000000   6.0000000   1.0000000   1.0000000
 Generating MM parameters.
 Read MM parameter file:
 Include all MM classes

 MM sanity checks:
 All charges sum to:                0.00000000
 Charges of atoms sum to:           0.00000000
 WARNING -- There are centers with partial charges, but
 there is no Vanderwaals repulsion. Centers can collapse
 onto each other.
 MMInit generated parameter data with length LenPar=        2617.
 Leave Link  101 at Thu Nov  3 15:46:30 2022, MaxMem=   134217728 cpu:               0.2 elap:               0.3
 (Enter /home/emanuele/chem_software/gaussian//gdv/l103.exe)

 GradGradGradGradGradGradGradGradGradGradGradGradGradGradGradGradGradGrad
 Berny optimization.
 Initialization pass.
                           ----------------------------
                           !    Initial Parameters    !
                           ! (Angstroms and Degrees)  !
 --------------------------                            --------------------------
 ! Name  Definition              Value          Derivative Info.                !
 --------------------------------------------------------------------------------
 ! R1    R(1,11)                 1.0825         calculate D2E/DX2 analytically  !
 ! R2    R(2,12)                 1.0826         calculate D2E/DX2 analytically  !
 ! R3    R(3,14)                 1.0819         calculate D2E/DX2 analytically  !
 ! R4    R(4,7)                  1.0767         calculate D2E/DX2 analytically  !
 ! R5    R(5,6)                  1.0767         calculate D2E/DX2 analytically  !
 ! R6    R(6,7)                  1.3651         calculate D2E/DX2 analytically  !
 ! R7    R(6,8)                  1.4336         calculate D2E/DX2 analytically  !
 ! R8    R(7,9)                  1.3786         calculate D2E/DX2 analytically  !
 ! R9    R(8,10)                 1.4185         calculate D2E/DX2 analytically  !
 ! R10   R(8,11)                 1.4014         calculate D2E/DX2 analytically  !
 ! R11   R(9,10)                 1.3766         calculate D2E/DX2 analytically  !
 ! R12   R(9,16)                 1.003          calculate D2E/DX2 analytically  !
 ! R13   R(10,12)                1.394          calculate D2E/DX2 analytically  !
 ! R14   R(11,13)                1.383          calculate D2E/DX2 analytically  !
 ! R15   R(12,14)                1.3844         calculate D2E/DX2 analytically  !
 ! R16   R(13,14)                1.4056         calculate D2E/DX2 analytically  !
 ! R17   R(13,15)                1.0819         calculate D2E/DX2 analytically  !
 ! A1    A(5,6,7)              125.8195         calculate D2E/DX2 analytically  !
 ! A2    A(5,6,8)              127.072          calculate D2E/DX2 analytically  !
 ! A3    A(7,6,8)              107.1086         calculate D2E/DX2 analytically  !
 ! A4    A(4,7,6)              129.94           calculate D2E/DX2 analytically  !
 ! A5    A(4,7,9)              120.5013         calculate D2E/DX2 analytically  !
 ! A6    A(6,7,9)              109.5588         calculate D2E/DX2 analytically  !
 ! A7    A(6,8,10)             106.8611         calculate D2E/DX2 analytically  !
 ! A8    A(6,8,11)             134.3665         calculate D2E/DX2 analytically  !
 ! A9    A(10,8,11)            118.7724         calculate D2E/DX2 analytically  !
 ! A10   A(7,9,10)             109.3031         calculate D2E/DX2 analytically  !
 ! A11   A(7,9,16)             125.2103         calculate D2E/DX2 analytically  !
 ! A12   A(10,9,16)            125.4866         calculate D2E/DX2 analytically  !
 ! A13   A(8,10,9)             107.1685         calculate D2E/DX2 analytically  !
 ! A14   A(8,10,12)            122.2665         calculate D2E/DX2 analytically  !
 ! A15   A(9,10,12)            130.5649         calculate D2E/DX2 analytically  !
 ! A16   A(1,11,8)             120.4038         calculate D2E/DX2 analytically  !
 ! A17   A(1,11,13)            120.4939         calculate D2E/DX2 analytically  !
 ! A18   A(8,11,13)            119.1023         calculate D2E/DX2 analytically  !
 ! A19   A(2,12,10)            121.439          calculate D2E/DX2 analytically  !
 ! A20   A(2,12,14)            121.0263         calculate D2E/DX2 analytically  !
 ! A21   A(10,12,14)           117.5347         calculate D2E/DX2 analytically  !
 ! A22   A(11,13,14)           121.1294         calculate D2E/DX2 analytically  !
 ! A23   A(11,13,15)           119.699          calculate D2E/DX2 analytically  !
 ! A24   A(14,13,15)           119.1716         calculate D2E/DX2 analytically  !
 ! A25   A(3,14,12)            119.417          calculate D2E/DX2 analytically  !
 ! A26   A(3,14,13)            119.3884         calculate D2E/DX2 analytically  !
 ! A27   A(12,14,13)           121.1946         calculate D2E/DX2 analytically  !
 ! D1    D(5,6,7,4)              0.0001         calculate D2E/DX2 analytically  !
 ! D2    D(5,6,7,9)            180.0            calculate D2E/DX2 analytically  !
 ! D3    D(8,6,7,4)           -179.9999         calculate D2E/DX2 analytically  !
 ! D4    D(8,6,7,9)              0.0            calculate D2E/DX2 analytically  !
 ! D5    D(5,6,8,10)           180.0            calculate D2E/DX2 analytically  !
 ! D6    D(5,6,8,11)             0.0            calculate D2E/DX2 analytically  !
 ! D7    D(7,6,8,10)             0.0            calculate D2E/DX2 analytically  !
 ! D8    D(7,6,8,11)           180.0            calculate D2E/DX2 analytically  !
 ! D9    D(4,7,9,10)           179.9999         calculate D2E/DX2 analytically  !
 ! D10   D(4,7,9,16)            -0.0001         calculate D2E/DX2 analytically  !
 ! D11   D(6,7,9,10)             0.0            calculate D2E/DX2 analytically  !
 ! D12   D(6,7,9,16)           180.0            calculate D2E/DX2 analytically  !
 ! D13   D(6,8,10,9)             0.0            calculate D2E/DX2 analytically  !
 ! D14   D(6,8,10,12)          180.0            calculate D2E/DX2 analytically  !
 ! D15   D(11,8,10,9)          180.0            calculate D2E/DX2 analytically  !
 ! D16   D(11,8,10,12)           0.0            calculate D2E/DX2 analytically  !
 ! D17   D(6,8,11,1)             0.0            calculate D2E/DX2 analytically  !
 ! D18   D(6,8,11,13)          180.0            calculate D2E/DX2 analytically  !
 ! D19   D(10,8,11,1)          180.0            calculate D2E/DX2 analytically  !
 ! D20   D(10,8,11,13)           0.0            calculate D2E/DX2 analytically  !
 ! D21   D(7,9,10,8)             0.0            calculate D2E/DX2 analytically  !
 ! D22   D(7,9,10,12)          180.0            calculate D2E/DX2 analytically  !
 ! D23   D(16,9,10,8)          180.0            calculate D2E/DX2 analytically  !
 ! D24   D(16,9,10,12)           0.0            calculate D2E/DX2 analytically  !
 ! D25   D(8,10,12,2)          180.0            calculate D2E/DX2 analytically  !
 ! D26   D(8,10,12,14)           0.0            calculate D2E/DX2 analytically  !
 ! D27   D(9,10,12,2)            0.0            calculate D2E/DX2 analytically  !
 ! D28   D(9,10,12,14)         180.0            calculate D2E/DX2 analytically  !
 ! D29   D(1,11,13,14)         180.0            calculate D2E/DX2 analytically  !
 ! D30   D(1,11,13,15)          -0.0001         calculate D2E/DX2 analytically  !
 ! D31   D(8,11,13,14)           0.0            calculate D2E/DX2 analytically  !
 ! D32   D(8,11,13,15)         179.9999         calculate D2E/DX2 analytically  !
 ! D33   D(2,12,14,3)            0.0            calculate D2E/DX2 analytically  !
 ! D34   D(2,12,14,13)         180.0            calculate D2E/DX2 analytically  !
 ! D35   D(10,12,14,3)         180.0            calculate D2E/DX2 analytically  !
 ! D36   D(10,12,14,13)          0.0            calculate D2E/DX2 analytically  !
 ! D37   D(11,13,14,3)         180.0            calculate D2E/DX2 analytically  !
 ! D38   D(11,13,14,12)          0.0            calculate D2E/DX2 analytically  !
 ! D39   D(15,13,14,3)           0.0001         calculate D2E/DX2 analytically  !
 ! D40   D(15,13,14,12)       -179.9999         calculate D2E/DX2 analytically  !
 --------------------------------------------------------------------------------
 Trust Radius=3.00D-01 FncErr=1.00D-07 GrdErr=1.00D-07 EigMax=2.50D+02 EigMin=1.00D-04
 Number of steps in this run=      2 maximum allowed number of steps=      2.
 GradGradGradGradGradGradGradGradGradGradGradGradGradGradGradGradGradGrad

 Leave Link  103 at Thu Nov  3 15:46:30 2022, MaxMem=   134217728 cpu:               0.0 elap:               0.0
 (Enter /home/emanuele/chem_software/gaussian//gdv/l202.exe)
                          Input orientation:                          
 ---------------------------------------------------------------------
 Center     Atomic      Atomic             Coordinates (Angstroms)
 Number     Number       Type             X           Y           Z
 ---------------------------------------------------------------------
      1          1    20001033       -1.009677    2.505917    0.000000
      2          1    20001033       -0.917442   -2.495849    0.000000
      3          1    20001033       -3.061910   -1.262584    0.000000
      4          1    20001033        3.453102   -0.082375    0.000001
      5          1    20001033        1.993210    2.173240    0.000000
      6          6    20001003        1.620451    1.163136    0.000000
      7          6    20001003        2.382297    0.030455    0.000000
      8          6    20001003        0.248141    0.748383    0.000000
      9          7    20001015        1.561959   -1.077509    0.000000
     10          6    20001003        0.247035   -0.670140    0.000000
     11          6    20001003       -0.979704    1.423874    0.000000
     12          6    20001003       -0.932234   -1.413394    0.000000
     13          6    20001003       -2.151543    0.689333    0.000000
     14          6    20001003       -2.128208   -0.716107    0.000000
     15          1    20001033       -3.104872    1.200941    0.000001
     16          1    20001033        1.876463   -2.029966    0.000000
 ---------------------------------------------------------------------
                    Distance matrix (angstroms):
                    1          2          3          4          5
     1  H    0.000000
     2  H    5.002616   0.000000
     3  H    4.291067   2.473800   0.000000
     4  H    5.159036   4.992646   6.621048   0.000000
     5  H    3.021259   5.502026   6.112211   2.686835   0.000000
     6  C    2.953072   4.452985   5.273388   2.215831   1.076689
     7  C    4.199214   4.155778   5.595654   1.076733   2.177824
     8  C    2.161257   3.447263   3.873038   3.310881   2.252883
     9  N    4.410698   2.856417   4.627571   2.136987   3.279230
    10  C    3.415650   2.165461   3.361563   3.259499   3.336755
    11  C    1.082458   3.920217   3.398917   4.681726   3.065904
    12  C    3.920076   1.082556   2.135009   4.582879   4.628409
    13  C    2.145655   3.415902   2.153775   5.657524   4.402381
    14  C    3.410652   2.152542   1.081867   5.617173   5.033330
    15  H    2.468361   4.295475   2.463900   6.682359   5.189972
    16  H    5.376248   2.832482   4.997640   2.505774   4.204827
                    6          7          8          9         10
     6  C    0.000000
     7  C    1.365055   0.000000
     8  C    1.433616   2.251675   0.000000
     9  N    2.241408   1.378600   2.249444   0.000000
    10  C    2.290671   2.247260   1.418523   1.376581   0.000000
    11  C    2.613195   3.639322   1.401389   3.566086   2.426888
    12  C    3.626942   3.615358   2.463040   2.516708   1.393952
    13  C    3.801635   4.581465   2.400410   4.112399   2.757053
    14  C    4.193328   4.571872   2.791373   3.707822   2.375688
    15  H    4.725474   5.610620   3.383416   5.193327   3.838779
    16  H    3.203349   2.121604   3.220350   1.003039   2.122301
                   11         12         13         14         15
    11  C    0.000000
    12  C    2.837665   0.000000
    13  C    1.383025   2.430674   0.000000
    14  C    2.428699   1.384400   1.405634   0.000000
    15  H    2.136829   3.399280   1.081933   2.151498   0.000000
    16  H    4.481819   2.875576   4.859981   4.214690   5.937378
                   16
    16  H    0.000000
 Symmetry turned off by external request.
 Stoichiometry    C8H7N
 Framework group  C1[X(C8H7N)]
 Deg. of freedom    42
 Full point group                 C1      NOp   1
 Rotational constants (GHZ):           3.9068458           1.6424327           1.1563181
 Leave Link  202 at Thu Nov  3 15:46:30 2022, MaxMem=   134217728 cpu:               0.0 elap:               0.0
 (Enter /home/emanuele/chem_software/gaussian//gdv/l301.exe)
 Standard basis: Dummy (5D, 7F)
    16 basis functions,    16 primitive gaussians,    16 cartesian basis functions
    12 alpha electrons       12 beta electrons
       nuclear repulsion energy        57.2986836425 Hartrees.
 IExCor=       0 DFT=F Ex=HF Corr=None N6=None ScaHFX=  1.000000
 ScaDFX=  1.000000  1.000000  1.000000  1.000000  1.000000  0.000000
 ScaDFX=  0.000000  0.000000  0.000000  0.000000  0.000000  0.000000
 IRadAn=      5 IRanWt=     -1 IRanGd=            0 ICorTp=0 IEmpDi=  4
 NAtoms=   16 NActive=   16 NUniq=   16 SFac= 1.00D+00 NAtFMM=   60 NAOKFM=F Big=F
 Integral buffers will be    131072 words long.
 Raffenetti 1 integral format.
 Two-electron integral symmetry is turned off.
 Leave Link  301 at Thu Nov  3 15:46:30 2022, MaxMem=   134217728 cpu:               0.1 elap:               0.1
 (Enter /home/emanuele/chem_software/gaussian//gdv/l402.exe)
 AMBER calculation of energy, first and second derivatives.
 ****************************
 MOLECULAR MECHANICS FUNCTION
 ****************************
 Molecular mechanics terms:
 NBDir 3 1      0      0
 HrmStr1 11- 1    1.00 1.0820
 HrmStr1 12- 2    1.00 1.0820
 HrmStr1 14- 3    1.00 1.0820
 HrmStr1  7- 4    1.00 1.0820
 HrmStr1  6- 5    1.00 1.0820
 HrmStr1  6- 7    1.00 1.3980
 HrmStr1  6- 8    1.00 1.3980
 HrmStr1  7- 9    1.00 1.3790
 HrmStr1  8-10    1.00 1.3980
 HrmStr1  8-11    1.00 1.3980
 HrmStr1 10- 9    1.00 1.3790
 HrmStr1  9-16    1.00 1.0800
 HrmStr1 10-12    1.00 1.3980
 HrmStr1 11-13    1.00 1.3980
 HrmStr1 12-14    1.00 1.3980
 HrmStr1 13-14    1.00 1.3980
 HrmStr1 13-15    1.00 1.0820
 HrmBnd1  8-11- 1   1.00 119.44
 HrmBnd1 13-11- 1   1.00 119.44
 HrmBnd1 10-12- 2   1.00 119.44
 HrmBnd1 14-12- 2   1.00 119.44
 HrmBnd1 12-14- 3   1.00 119.44
 HrmBnd1 13-14- 3   1.00 119.44
 HrmBnd1  6- 7- 4   1.00 119.44
 HrmBnd1  4- 7- 9   1.00 122.78
 HrmBnd1  7- 6- 5   1.00 119.44
 HrmBnd1  8- 6- 5   1.00 119.44
 HrmBnd1  6- 7- 9   1.00 108.36
 HrmBnd1  6- 8-10   1.00 118.70
 HrmBnd1  6- 8-11   1.00 118.70
 HrmBnd1  7- 6- 8   1.00 118.70
 HrmBnd1  7- 9-10   1.00 109.30
 HrmBnd1  7- 9-16   1.00 125.35
 HrmBnd1  8-10- 9   1.00 108.36
 HrmBnd1  8-10-12   1.00 118.70
 HrmBnd1  8-11-13   1.00 118.70
 HrmBnd1 12-10- 9   1.00 108.36
 HrmBnd1 10- 8-11   1.00 118.70
 HrmBnd1 10- 9-16   1.00 125.35
 HrmBnd1 10-12-14   1.00 118.70
 HrmBnd1 11-13-14   1.00 118.70
 HrmBnd1 11-13-15   1.00 119.44
 HrmBnd1 12-14-13   1.00 118.70
 HrmBnd1 14-13-15   1.00 119.44
 NBPair 11- 1 3 1      0      0 -1.000 -1.000
 NBPair 12- 2 3 1      0      0 -1.000 -1.000
 NBPair 14- 3 3 1      0      0 -1.000 -1.000
 NBPair  7- 4 3 1      0      0 -1.000 -1.000
 NBPair  6- 5 3 1      0      0 -1.000 -1.000
 NBPair  7- 5 3 1      0      0 -1.000 -1.000
 NBPair  8- 5 3 1      0      0 -1.000 -1.000
 NBPair  7- 6 3 1      0      0 -1.000 -1.000
 NBPair  5- 4 3 1      0      0 -0.500 -0.167
 NBPair  9- 5 3 1      0      0 -0.500 -0.167
 NBPair  8- 7 3 1      0      0 -1.000 -1.000
 NBPair  8- 4 3 1      0      0 -0.500 -0.167
 NBPair  8- 6 3 1      0      0 -1.000 -1.000
 NBPair 10- 5 3 1      0      0 -0.500 -0.167
 NBPair 11- 5 3 1      0      0 -0.500 -0.167
 NBPair 11- 7 3 1      0      0 -0.500 -0.167
 NBPair  6- 4 3 1      0      0 -1.000 -1.000
 NBPair  9- 4 3 1      0      0 -1.000 -1.000
 NBPair  9- 6 3 1      0      0 -1.000 -1.000
 NBPair  9- 7 3 1      0      0 -1.000 -1.000
 NBPair 10- 4 3 1      0      0 -0.500 -0.167
 NBPair 16- 4 3 1      0      0 -0.500 -0.167
 NBPair 16- 6 3 1      0      0 -0.500 -0.167
 NBPair 10- 6 3 1      0      0 -1.000 -1.000
 NBPair 11- 6 3 1      0      0 -1.000 -1.000
 NBPair 10- 8 3 1      0      0 -1.000 -1.000
 NBPair 12- 6 3 1      0      0 -0.500 -0.167
 NBPair 11-10 3 1      0      0 -1.000 -1.000
 NBPair 11- 9 3 1      0      0 -0.500 -0.167
 NBPair 12-11 3 1      0      0 -0.500 -0.167
 NBPair 11- 8 3 1      0      0 -1.000 -1.000
 NBPair  6- 1 3 1      0      0 -0.500 -0.167
 NBPair 13- 6 3 1      0      0 -0.500 -0.167
 NBPair 10- 1 3 1      0      0 -0.500 -0.167
 NBPair 13-10 3 1      0      0 -0.500 -0.167
 NBPair 10- 7 3 1      0      0 -1.000 -1.000
 NBPair 16- 7 3 1      0      0 -1.000 -1.000
 NBPair 10- 9 3 1      0      0 -1.000 -1.000
 NBPair 12- 7 3 1      0      0 -0.500 -0.167
 NBPair 16-10 3 1      0      0 -1.000 -1.000
 NBPair 16- 8 3 1      0      0 -0.500 -0.167
 NBPair 16-12 3 1      0      0 -0.500 -0.167
 NBPair 16- 9 3 1      0      0 -1.000 -1.000
 NBPair  9- 8 3 1      0      0 -1.000 -1.000
 NBPair 12- 8 3 1      0      0 -1.000 -1.000
 NBPair 12- 9 3 1      0      0 -1.000 -1.000
 NBPair 12-10 3 1      0      0 -1.000 -1.000
 NBPair  8- 2 3 1      0      0 -0.500 -0.167
 NBPair 14- 8 3 1      0      0 -0.500 -0.167
 NBPair  9- 2 3 1      0      0 -0.500 -0.167
 NBPair 14- 9 3 1      0      0 -0.500 -0.167
 NBPair  8- 1 3 1      0      0 -1.000 -1.000
 NBPair 13- 1 3 1      0      0 -1.000 -1.000
 NBPair 13- 8 3 1      0      0 -1.000 -1.000
 NBPair 13-11 3 1      0      0 -1.000 -1.000
 NBPair 14- 1 3 1      0      0 -0.500 -0.167
 NBPair 15- 1 3 1      0      0 -0.500 -0.167
 NBPair 15- 8 3 1      0      0 -0.500 -0.167
 NBPair 10- 2 3 1      0      0 -1.000 -1.000
 NBPair 14- 2 3 1      0      0 -1.000 -1.000
 NBPair 14-10 3 1      0      0 -1.000 -1.000
 NBPair 14-12 3 1      0      0 -1.000 -1.000
 NBPair  3- 2 3 1      0      0 -0.500 -0.167
 NBPair 13- 2 3 1      0      0 -0.500 -0.167
 NBPair 10- 3 3 1      0      0 -0.500 -0.167
 NBPair 14-11 3 1      0      0 -1.000 -1.000
 NBPair 15-11 3 1      0      0 -1.000 -1.000
 NBPair 14-13 3 1      0      0 -1.000 -1.000
 NBPair 11- 3 3 1      0      0 -0.500 -0.167
 NBPair 15-14 3 1      0      0 -1.000 -1.000
 NBPair 15- 3 3 1      0      0 -0.500 -0.167
 NBPair 15-12 3 1      0      0 -0.500 -0.167
 NBPair 15-13 3 1      0      0 -1.000 -1.000
 NBPair 12- 3 3 1      0      0 -1.000 -1.000
 NBPair 13- 3 3 1      0      0 -1.000 -1.000
 NBPair 13-12 3 1      0      0 -1.000 -1.000
 Energy per function type:
 Direct Coulomb + vdW (small)                           0.000000000
 Direct Coulomb (large)                                 0.000000000
 Direct vdW (large)                                     0.000000000
 Non-direct Coulomb + vdW (small)                       0.000000000
 Non-direct Coulomb (large)                             0.000000000
 Non-direct vdW (large)                                 0.000000000
 Harmonic stretch I                                     0.000014750
 Harmonic bend I                                        0.000614313
 Energy per function class:
        Coulomb               0.000000000
    Vanderwaals               0.000000000
     Stretching               0.000014750
        Bending               0.000614313
 Energy=    6.290633428E-04 NIter=   0.
 Dipole moment=       0.000000       0.000000       0.000000
 Leave Link  402 at Thu Nov  3 15:46:30 2022, MaxMem=   134217728 cpu:               0.0 elap:               0.0
 (Enter /home/emanuele/chem_software/gaussian//gdv/l716.exe)
 Dipole        = 0.00000000D+00 0.00000000D+00 0.00000000D+00
 Full mass-weighted force constant matrix:
 Low frequencies ---  -76.3381  -60.0694  -53.7123  -43.3383  -36.7901  -29.8951
 Low frequencies ---  -21.2655  -16.5085   -8.2877
 ******   10 imaginary frequencies (negative Signs) ****** 
 Diagonal vibrational polarizability:
        0.0000000       0.0000000       0.0000000
 Harmonic frequencies (cm**-1), IR intensities (KM/Mole), Raman scattering
 activities (A**4/AMU), depolarization ratios for plane and unpolarized
 incident light, reduced masses (AMU), force constants (mDyne/A),
 and normal coordinates:
                      1                      2                      3
                      A                      A                      A
 Frequencies --    -76.3024               -59.7280               -53.5710
 Red. masses --      1.4634                 1.2558                 5.9178
 Frc consts  --      0.0050                 0.0026                 0.0100
 IR Inten    --      0.0000                 0.0000                 0.0000
  Atom  AN      X      Y      Z        X      Y      Z        X      Y      Z
     1   1    -0.00   0.00   0.01     0.00  -0.00  -0.02    -0.00   0.00  -0.03
     2   1    -0.00  -0.00  -0.01    -0.00   0.00   0.04     0.00  -0.00   0.49
     3   1     0.00  -0.00  -0.00    -0.00   0.00   0.01     0.00  -0.00   0.02
     4   1     0.00   0.00  -0.39    -0.00  -0.00   0.87     0.00  -0.00  -0.14
     5   1     0.00   0.00   0.90    -0.00  -0.00   0.46     0.00   0.00  -0.26
     6   6     0.00   0.00  -0.17    -0.00  -0.00  -0.02     0.00   0.00  -0.03
     7   6    -0.00  -0.00   0.09     0.00   0.00  -0.13    -0.00  -0.00   0.01
     8   6    -0.00   0.00   0.05     0.00  -0.00   0.05    -0.00   0.00   0.02
     9   7     0.00  -0.00  -0.00    -0.00   0.00  -0.01     0.00  -0.00  -0.22
    10   6     0.00  -0.00   0.01     0.00   0.00   0.03     0.00  -0.00   0.54
    11   6    -0.00   0.00  -0.01     0.00  -0.00  -0.03    -0.00   0.00  -0.04
    12   6     0.00  -0.00  -0.01    -0.00   0.00   0.01     0.00  -0.00  -0.31
    13   6     0.00  -0.00   0.00     0.00   0.00  -0.01    -0.00  -0.00  -0.02
    14   6     0.00  -0.00  -0.00    -0.00   0.00   0.01     0.00  -0.00   0.03
    15   1     0.00  -0.00   0.00     0.00   0.00  -0.01     0.00   0.00  -0.02
    16   1     0.00  -0.00  -0.01    -0.00   0.00   0.06     0.00   0.00   0.48
                      4                      5                      6
                      A                      A                      A
 Frequencies --    -43.0976               -36.3972               -29.5054
 Red. masses --      1.1277                 3.9048                 1.4365
 Frc consts  --      0.0012                 0.0030                 0.0007
 IR Inten    --      0.0000                 0.0000                 0.0000
  Atom  AN      X      Y      Z        X      Y      Z        X      Y      Z
     1   1    -0.00   0.00   0.01    -0.00   0.00   0.63    -0.00   0.00   0.22
     2   1     0.00  -0.00  -0.13    -0.00  -0.00  -0.39     0.00  -0.00   0.95
     3   1     0.00  -0.00  -0.01    -0.00   0.00  -0.04     0.00  -0.00  -0.02
     4   1     0.00  -0.00  -0.03     0.00  -0.00  -0.25     0.00   0.00  -0.03
     5   1     0.00   0.00   0.03     0.00   0.00  -0.36     0.00  -0.00   0.02
     6   6     0.00   0.00   0.01     0.00   0.00  -0.00     0.00   0.00   0.02
     7   6    -0.00  -0.00   0.01    -0.00  -0.00  -0.06    -0.00  -0.00   0.00
     8   6    -0.00   0.00  -0.01     0.00   0.00   0.36    -0.00   0.00   0.04
     9   7     0.00  -0.00  -0.06    -0.00  -0.00  -0.02    -0.00   0.00   0.04
    10   6     0.00  -0.00  -0.07    -0.00  -0.00   0.00    -0.00   0.00  -0.13
    11   6    -0.00   0.00   0.03    -0.00   0.00  -0.33    -0.00   0.00  -0.04
    12   6     0.00  -0.00   0.03    -0.00  -0.00   0.05    -0.00  -0.00  -0.11
    13   6    -0.00   0.00   0.01     0.00  -0.00   0.09     0.00  -0.00   0.01
    14   6     0.00  -0.00  -0.01    -0.00  -0.00  -0.07    -0.00  -0.00   0.06
    15   1    -0.00  -0.00   0.02     0.00   0.00   0.01     0.00   0.00   0.01
    16   1     0.00   0.00   0.98     0.00   0.00   0.06    -0.00   0.00   0.11
                      7                      8                      9
                      A                      A                      A
 Frequencies --    -20.3418               -16.4938                -8.2127
 Red. masses --      1.9351                 3.0583                 2.9128
 Frc consts  --      0.0005                 0.0005                 0.0001
 IR Inten    --      0.0000                 0.0000                 0.0000
  Atom  AN      X      Y      Z        X      Y      Z        X      Y      Z
     1   1    -0.00   0.00   0.92     0.00  -0.00   0.79    -0.00   0.00  -0.63
     2   1    -0.00  -0.00  -0.03     0.00   0.00  -0.42    -0.00  -0.00  -0.25
     3   1    -0.00   0.00   0.04     0.00  -0.00   0.04    -0.00   0.00   0.09
     4   1    -0.00   0.00   0.25     0.00  -0.00   0.02    -0.00  -0.00   0.34
     5   1    -0.00   0.00   0.05    -0.00  -0.00   0.02     0.00   0.00   0.01
     6   6    -0.00   0.00  -0.03    -0.00  -0.00   0.02     0.00   0.00   0.05
     7   6     0.00   0.00   0.08    -0.00  -0.00   0.03    -0.00   0.00   0.21
     8   6     0.00   0.00  -0.22    -0.00  -0.00   0.01     0.00   0.00  -0.03
     9   7     0.00  -0.00   0.01     0.00   0.00  -0.04     0.00  -0.00  -0.15
    10   6     0.00  -0.00   0.03     0.00   0.00  -0.02     0.00  -0.00  -0.09
    11   6    -0.00   0.00  -0.07     0.00  -0.00   0.01    -0.00   0.00  -0.16
    12   6    -0.00  -0.00   0.01     0.00   0.00  -0.03    -0.00  -0.00  -0.07
    13   6     0.00  -0.00   0.14    -0.00   0.00  -0.30     0.00  -0.00   0.15
    14   6    -0.00   0.00  -0.06     0.00   0.00   0.31    -0.00  -0.00   0.20
    15   1    -0.00   0.00  -0.06     0.00   0.00  -0.07    -0.00   0.00  -0.48
    16   1     0.00  -0.00  -0.02     0.00   0.00  -0.04     0.00  -0.00  -0.15
                     10                     11                     12
                      A                      A                      A
 Frequencies --     -1.0873                 3.9624                11.6017
 Red. masses --      1.1448                 1.0726                 3.9003
 Frc consts  --      0.0000                 0.0000                 0.0003
 IR Inten    --      0.0000                 0.0000                 0.0000
  Atom  AN      X      Y      Z        X      Y      Z        X      Y      Z
     1   1     0.00  -0.00  -0.07    -0.00   0.00   0.08     0.00  -0.00  -0.16
     2   1     0.00   0.00   0.01    -0.00  -0.00   0.03    -0.00   0.00  -0.71
     3   1     0.00  -0.00   0.60    -0.00   0.00   0.80    -0.00   0.00   0.27
     4   1    -0.00  -0.00   0.12     0.00  -0.00  -0.07     0.00   0.00  -0.14
     5   1    -0.00  -0.00  -0.00     0.00   0.00   0.02    -0.00  -0.00   0.03
     6   6    -0.00  -0.00   0.01     0.00   0.00   0.01    -0.00  -0.00  -0.03
     7   6    -0.00  -0.00   0.07     0.00   0.00  -0.02     0.00   0.00  -0.12
     8   6    -0.00  -0.00  -0.01     0.00   0.00   0.03    -0.00  -0.00  -0.05
     9   7     0.00  -0.00  -0.04    -0.00  -0.00   0.00    -0.00   0.00   0.31
    10   6     0.00   0.00  -0.02     0.00  -0.00  -0.01    -0.00   0.00  -0.01
    11   6     0.00  -0.00  -0.05     0.00   0.00   0.04    -0.00  -0.00  -0.05
    12   6     0.00   0.00  -0.01    -0.00  -0.00  -0.01    -0.00   0.00  -0.32
    13   6    -0.00   0.00  -0.04     0.00  -0.00  -0.02     0.00  -0.00   0.13
    14   6     0.00   0.00  -0.03    -0.00  -0.00  -0.05    -0.00   0.00   0.11
    15   1     0.00  -0.00   0.78    -0.00   0.00  -0.58     0.00   0.00   0.23
    16   1     0.00   0.00  -0.04    -0.00  -0.00   0.00    -0.00   0.00   0.28
                     13                     14                     15
                      A                      A                      A
 Frequencies --     29.4436                29.9583                34.4651
 Red. masses --      2.8291                 6.2784                 3.6975
 Frc consts  --      0.0014                 0.0033                 0.0026
 IR Inten    --      0.0000                 0.0000                 0.0000
  Atom  AN      X      Y      Z        X      Y      Z        X      Y      Z
     1   1    -0.00   0.00  -0.10    -0.15   0.05  -0.00     0.30  -0.12  -0.00
     2   1     0.00   0.00   0.07    -0.25  -0.10   0.00    -0.24  -0.11   0.00
     3   1     0.00  -0.00   0.04    -0.34   0.04   0.00    -0.17   0.25   0.00
     4   1     0.00  -0.00  -0.58     0.30   0.08  -0.00    -0.07   0.41  -0.00
     5   1     0.00  -0.00   0.69     0.20   0.06   0.00    -0.35   0.04   0.00
     6   6     0.00  -0.00   0.30     0.21   0.05   0.00    -0.19  -0.01   0.00
     7   6    -0.00  -0.00  -0.15     0.29   0.04  -0.00    -0.04   0.19  -0.00
     8   6    -0.00   0.00  -0.13     0.04  -0.01  -0.00    -0.03  -0.12  -0.00
     9   7    -0.00   0.00  -0.03     0.29  -0.04  -0.00     0.13   0.01  -0.00
    10   6    -0.00   0.00   0.05     0.05  -0.04   0.00    -0.01  -0.11   0.00
    11   6     0.00   0.00  -0.16    -0.15   0.05  -0.00     0.17  -0.12  -0.00
    12   6     0.00   0.00   0.07    -0.20  -0.10   0.00    -0.13  -0.10   0.00
    13   6     0.00  -0.00  -0.01    -0.26   0.03  -0.00     0.15   0.10  -0.00
    14   6     0.00  -0.00   0.04    -0.31   0.01   0.00    -0.08   0.09   0.00
    15   1     0.00  -0.00   0.04    -0.26   0.07   0.00     0.24   0.25   0.00
    16   1    -0.00   0.00  -0.02     0.34  -0.03  -0.00     0.28   0.06  -0.00
                     16                     17                     18
                      A                      A                      A
 Frequencies --     44.0422                46.3554                54.8529
 Red. masses --      6.4376                 6.9321                 5.5894
 Frc consts  --      0.0074                 0.0088                 0.0099
 IR Inten    --      0.0000                 0.0000                 0.0000
  Atom  AN      X      Y      Z        X      Y      Z        X      Y      Z
     1   1    -0.30   0.09  -0.00    -0.11  -0.36  -0.00     0.29   0.12  -0.00
     2   1     0.31   0.05   0.00    -0.07   0.37   0.00     0.28  -0.11  -0.00
     3   1     0.13   0.16   0.00     0.01   0.25   0.00    -0.18  -0.19   0.00
     4   1    -0.04   0.01  -0.00     0.03  -0.01  -0.00    -0.24  -0.03  -0.00
     5   1    -0.33  -0.09   0.00     0.01  -0.20  -0.00     0.03  -0.33  -0.00
     6   6    -0.24  -0.10   0.00     0.06  -0.19  -0.00    -0.02  -0.27  -0.00
     7   6    -0.02  -0.14  -0.00     0.03  -0.02   0.00    -0.21  -0.03  -0.00
     8   6    -0.10  -0.08  -0.00    -0.01  -0.25   0.00     0.16  -0.08  -0.00
     9   7     0.22  -0.12   0.00     0.09   0.17  -0.00     0.03   0.25   0.00
    10   6     0.06  -0.12   0.00    -0.01   0.22  -0.00     0.15   0.10  -0.00
    11   6    -0.30   0.08  -0.00    -0.08  -0.33  -0.00     0.14   0.10  -0.00
    12   6     0.31   0.05   0.00    -0.04   0.34   0.00     0.13  -0.09  -0.00
    13   6    -0.07   0.23   0.00    -0.02  -0.22   0.00    -0.20   0.09   0.00
    14   6     0.09   0.19  -0.00    -0.01   0.26  -0.00    -0.19  -0.11  -0.00
    15   1    -0.11   0.18  -0.00    -0.01  -0.22  -0.00    -0.19   0.17  -0.00
    16   1     0.32  -0.11   0.00     0.06   0.17  -0.00     0.08   0.31  -0.00
                     19                     20                     21
                      A                      A                      A
 Frequencies --     59.4088                62.6000                71.2138
 Red. masses --      6.8002                 6.5201                 4.6626
 Frc consts  --      0.0141                 0.0151                 0.0139
 IR Inten    --      0.0000                 0.0000                 0.0000
  Atom  AN      X      Y      Z        X      Y      Z        X      Y      Z
     1   1     0.12   0.12  -0.00     0.09  -0.04  -0.00     0.53  -0.00  -0.00
     2   1    -0.21   0.11   0.00     0.01   0.08   0.00     0.47   0.17   0.00
     3   1     0.10  -0.22  -0.00    -0.20   0.23   0.00    -0.03  -0.20   0.00
     4   1    -0.00  -0.36  -0.00    -0.03  -0.06  -0.00     0.15   0.12  -0.00
     5   1    -0.24  -0.01   0.00    -0.35   0.26   0.00    -0.04   0.04  -0.00
     6   6    -0.25   0.01   0.00    -0.24   0.20   0.00     0.01   0.02  -0.00
     7   6    -0.01  -0.34  -0.00    -0.03  -0.07  -0.00     0.13   0.06   0.00
     8   6    -0.08   0.19  -0.00     0.25   0.12  -0.00    -0.21  -0.04  -0.00
     9   7     0.32   0.06   0.00    -0.07  -0.18   0.00     0.02  -0.10  -0.00
    10   6    -0.09   0.18   0.00     0.27  -0.03   0.00    -0.27   0.00  -0.00
    11   6     0.14   0.11   0.00     0.15  -0.03  -0.00     0.27  -0.01  -0.00
    12   6    -0.22   0.09   0.00     0.08   0.07   0.00     0.23   0.13   0.00
    13   6     0.05  -0.10  -0.00    -0.17  -0.26  -0.00    -0.17  -0.01   0.00
    14   6     0.07  -0.17   0.00    -0.18   0.21   0.00    -0.09  -0.04  -0.00
    15   1     0.04  -0.17   0.00    -0.19  -0.29   0.00    -0.18   0.06  -0.00
    16   1     0.36   0.06   0.00    -0.16  -0.23   0.00     0.02  -0.13  -0.00
                     22                     23                     24
                      A                      A                      A
 Frequencies --     72.4322                81.6469               102.0882
 Red. masses --      4.0155                 4.1248                 3.2178
 Frc consts  --      0.0124                 0.0162                 0.0198
 IR Inten    --      0.0000                 0.0000                 0.0000
  Atom  AN      X      Y      Z        X      Y      Z        X      Y      Z
     1   1    -0.02   0.25  -0.00     0.06  -0.14  -0.00     0.04   0.28  -0.00
     2   1    -0.23   0.21   0.00     0.03   0.15   0.00    -0.07  -0.28   0.00
     3   1     0.28  -0.19   0.00     0.04  -0.38   0.00     0.08   0.26  -0.00
     4   1    -0.09   0.49  -0.00     0.27  -0.02  -0.00     0.47  -0.07  -0.00
     5   1    -0.11  -0.22   0.00    -0.41   0.16  -0.00    -0.37  -0.13  -0.00
     6   6    -0.03  -0.19   0.00    -0.15   0.06  -0.00    -0.12  -0.10  -0.00
     7   6    -0.03   0.22   0.00     0.19  -0.01   0.00     0.26  -0.01   0.00
     8   6     0.16  -0.04  -0.00     0.11  -0.17  -0.00    -0.04  -0.07   0.00
     9   7     0.03  -0.15  -0.00    -0.10  -0.06  -0.00    -0.10   0.12  -0.00
    10   6    -0.04  -0.05  -0.00     0.11   0.17  -0.00    -0.02   0.02  -0.00
    11   6     0.00   0.20  -0.00    -0.05  -0.10  -0.00     0.02   0.15  -0.00
    12   6    -0.13   0.16   0.00    -0.06   0.11   0.00    -0.01  -0.15   0.00
    13   6    -0.10  -0.07   0.00    -0.01   0.22   0.00    -0.01  -0.09  -0.00
    14   6     0.17  -0.06   0.00    -0.00  -0.22  -0.00     0.06   0.11   0.00
    15   1    -0.22  -0.25  -0.00     0.02   0.38  -0.00    -0.07  -0.25   0.00
    16   1     0.12  -0.16  -0.00    -0.32  -0.14  -0.00    -0.30   0.19  -0.00
                     25                     26                     27
                      A                      A                      A
 Frequencies --    104.1857               121.1777               129.8372
 Red. masses --      3.2505                 4.2563                 3.3341
 Frc consts  --      0.0208                 0.0368                 0.0331
 IR Inten    --      0.0000                 0.0000                 0.0000
  Atom  AN      X      Y      Z        X      Y      Z        X      Y      Z
     1   1    -0.32   0.08   0.00    -0.17   0.26   0.00     0.10   0.47   0.00
     2   1     0.32   0.00  -0.00     0.16   0.24  -0.00    -0.14   0.50  -0.00
     3   1    -0.43  -0.00  -0.00    -0.25  -0.12  -0.00    -0.30  -0.23  -0.00
     4   1     0.05   0.25  -0.00     0.05  -0.25   0.00     0.03  -0.06   0.00
     5   1    -0.07  -0.29  -0.00    -0.13   0.39  -0.00     0.06   0.06  -0.00
     6   6    -0.04  -0.15   0.00    -0.02   0.14  -0.00     0.03   0.01  -0.00
     7   6     0.05   0.07   0.00    -0.01  -0.07  -0.00     0.00  -0.00  -0.00
     8   6     0.03   0.14   0.00     0.27  -0.18   0.00    -0.24  -0.11   0.00
     9   7     0.00  -0.10  -0.00     0.02   0.11   0.00    -0.03   0.02   0.00
    10   6    -0.05   0.15  -0.00    -0.26  -0.18   0.00     0.25  -0.13  -0.00
    11   6    -0.08   0.04   0.00    -0.06   0.10   0.00     0.01   0.13   0.00
    12   6     0.08  -0.00   0.00     0.06   0.09  -0.00    -0.02   0.14  -0.00
    13   6     0.22  -0.07  -0.00     0.10  -0.04  -0.00     0.09  -0.05  -0.00
    14   6    -0.21  -0.05   0.00    -0.10  -0.04   0.00    -0.09  -0.06   0.00
    15   1     0.44  -0.07   0.00     0.26  -0.13  -0.00     0.30  -0.20  -0.00
    16   1    -0.06  -0.21  -0.00     0.13   0.33   0.00    -0.05   0.09  -0.00
                     28                     29                     30
                      A                      A                      A
 Frequencies --    131.5511               157.3073               159.6649
 Red. masses --      2.8494                 1.1019                 1.0953
 Frc consts  --      0.0291                 0.0161                 0.0165
 IR Inten    --      0.0000                 0.0000                 0.0000
  Atom  AN      X      Y      Z        X      Y      Z        X      Y      Z
     1   1     0.11   0.40  -0.00     0.00   0.02   0.00     0.05  -0.21  -0.00
     2   1     0.11  -0.36   0.00    -0.00   0.02  -0.00     0.05   0.27   0.00
     3   1     0.03   0.17   0.00     0.00   0.01  -0.00     0.60   0.32   0.00
     4   1    -0.36   0.05  -0.00     0.72  -0.25   0.00    -0.02   0.00  -0.00
     5   1     0.10   0.41   0.00     0.03  -0.02   0.00     0.00   0.01  -0.00
     6   6     0.05   0.10   0.00    -0.00   0.00  -0.00    -0.00  -0.00   0.00
     7   6    -0.09  -0.01  -0.00    -0.08   0.03  -0.00     0.00  -0.00   0.00
     8   6    -0.03  -0.24  -0.00     0.00  -0.01   0.00     0.00   0.00  -0.00
     9   7     0.04  -0.09   0.00    -0.01   0.03   0.00    -0.00   0.00  -0.00
    10   6    -0.01   0.24   0.00     0.00   0.00  -0.00     0.00   0.00   0.00
    11   6    -0.00   0.10  -0.00     0.00  -0.00   0.00    -0.00   0.02   0.00
    12   6    -0.00  -0.09   0.00    -0.00  -0.00  -0.00    -0.00  -0.02  -0.00
    13   6     0.02  -0.04  -0.00     0.00   0.00   0.00    -0.05   0.02   0.00
    14   6     0.01   0.04   0.00    -0.00   0.00  -0.00    -0.05  -0.03  -0.00
    15   1     0.06  -0.18  -0.00     0.00   0.00   0.00     0.58  -0.26  -0.00
    16   1     0.05  -0.38   0.00     0.27  -0.57  -0.00     0.00  -0.02   0.00
                     31                     32                     33
                      A                      A                      A
 Frequencies --    160.2575               161.6046               162.2133
 Red. masses --      1.1127                 1.1604                 1.1901
 Frc consts  --      0.0168                 0.0179                 0.0185
 IR Inten    --      0.0000                 0.0000                 0.0000
  Atom  AN      X      Y      Z        X      Y      Z        X      Y      Z
     1   1    -0.07   0.51   0.00    -0.04  -0.03   0.00    -0.01   0.54   0.00
     2   1     0.05   0.50   0.00     0.03   0.18  -0.00     0.02  -0.51  -0.00
     3   1     0.30   0.27   0.00     0.10   0.11  -0.00     0.25   0.05  -0.00
     4   1    -0.12   0.01  -0.00     0.31   0.03   0.00     0.32  -0.07   0.00
     5   1    -0.08  -0.19  -0.00     0.33   0.74   0.00    -0.02  -0.20   0.00
     6   6     0.01   0.02   0.00    -0.03  -0.09  -0.00     0.01   0.02  -0.00
     7   6     0.01  -0.01   0.00    -0.02   0.01  -0.00    -0.05   0.02  -0.00
     8   6     0.01   0.01   0.00    -0.01   0.02   0.00     0.00   0.01   0.00
     9   7    -0.00   0.01  -0.00     0.01  -0.04  -0.00     0.02  -0.05   0.00
    10   6    -0.01   0.01   0.00     0.01   0.02  -0.00     0.01  -0.00  -0.00
    11   6     0.00  -0.05   0.00     0.00   0.00   0.00     0.00  -0.07   0.00
    12   6     0.00  -0.05   0.00    -0.00  -0.02  -0.00    -0.00   0.06  -0.00
    13   6     0.04  -0.02  -0.00     0.02  -0.01  -0.00    -0.02   0.01   0.00
    14   6    -0.03  -0.02  -0.00    -0.01  -0.01   0.00    -0.03  -0.02  -0.00
    15   1    -0.39   0.29   0.00    -0.20   0.12   0.00     0.17   0.02  -0.00
    16   1     0.02  -0.11   0.00    -0.11   0.33  -0.00    -0.10   0.43  -0.00
                     34                     35                     36
                      A                      A                      A
 Frequencies --    165.4954               168.2148               213.1794
 Red. masses --      1.4280                 1.5094                 1.1707
 Frc consts  --      0.0230                 0.0252                 0.0313
 IR Inten    --      0.0000                 0.0000                 0.0000
  Atom  AN      X      Y      Z        X      Y      Z        X      Y      Z
     1   1     0.04  -0.40   0.00     0.05   0.45  -0.00    -0.43  -0.04   0.00
     2   1     0.04   0.35  -0.00    -0.06   0.47  -0.00    -0.40   0.03   0.00
     3   1    -0.13   0.04  -0.00    -0.43  -0.26   0.00     0.27  -0.48  -0.00
     4   1     0.34  -0.12   0.00     0.06   0.02   0.00    -0.01  -0.05  -0.00
     5   1    -0.16  -0.46   0.00     0.06   0.06   0.00    -0.10   0.03  -0.00
     6   6     0.03   0.08  -0.00    -0.01  -0.01   0.00     0.01  -0.00  -0.00
     7   6    -0.08   0.02  -0.00    -0.01   0.00  -0.00    -0.01   0.01   0.00
     8   6    -0.01  -0.06   0.00     0.03   0.04  -0.00    -0.01  -0.02   0.00
     9   7     0.03  -0.08   0.00     0.01  -0.02  -0.00     0.01  -0.01   0.00
    10   6    -0.00   0.06  -0.00    -0.03   0.04  -0.00    -0.01   0.02  -0.00
    11   6    -0.00   0.07  -0.00     0.00  -0.09  -0.00     0.05   0.03   0.00
    12   6    -0.00  -0.06  -0.00     0.00  -0.10  -0.00     0.04  -0.03  -0.00
    13   6     0.02  -0.01  -0.00    -0.09   0.05   0.00    -0.02  -0.06  -0.00
    14   6     0.01   0.01   0.00     0.09   0.05  -0.00    -0.02   0.06  -0.00
    15   1    -0.17  -0.01   0.00     0.43  -0.24  -0.00     0.25   0.50   0.00
    16   1    -0.13   0.49  -0.00    -0.05   0.08  -0.00    -0.02  -0.00  -0.00
                     37                     38                     39
                      A                      A                      A
 Frequencies --    217.1972               220.0250               223.8151
 Red. masses --      1.1857                 1.2535                 1.2688
 Frc consts  --      0.0330                 0.0358                 0.0374
 IR Inten    --      0.0000                 0.0000                 0.0000
  Atom  AN      X      Y      Z        X      Y      Z        X      Y      Z
     1   1     0.14  -0.00  -0.00     0.59   0.03  -0.00     0.55  -0.00   0.00
     2   1    -0.18   0.00   0.00    -0.58   0.01  -0.00     0.56   0.02   0.00
     3   1     0.08  -0.12   0.00     0.21  -0.27  -0.00     0.17  -0.36  -0.00
     4   1     0.19   0.60   0.00    -0.05  -0.18  -0.00    -0.03  -0.06  -0.00
     5   1     0.62  -0.28   0.00    -0.17   0.08  -0.00     0.03  -0.01  -0.00
     6   6    -0.07   0.06   0.00     0.02  -0.02  -0.00    -0.01  -0.00  -0.00
     7   6    -0.00  -0.07  -0.00    -0.00   0.02   0.00     0.01   0.01   0.00
     8   6     0.02  -0.03  -0.00     0.02   0.03  -0.00     0.01   0.02   0.00
     9   7     0.01   0.03  -0.00     0.00  -0.01   0.00    -0.01  -0.00   0.00
    10   6    -0.01  -0.01  -0.00    -0.02   0.02   0.00     0.01  -0.01  -0.00
    11   6    -0.02   0.01   0.00    -0.07  -0.02  -0.00    -0.08   0.02   0.00
    12   6     0.02  -0.00   0.00     0.07  -0.01  -0.00    -0.08  -0.02  -0.00
    13   6     0.01  -0.01  -0.00     0.06   0.02  -0.00     0.01  -0.07  -0.00
    14   6    -0.02   0.01   0.00    -0.06   0.01   0.00     0.01   0.07  -0.00
    15   1    -0.01   0.01   0.00    -0.19  -0.28   0.00     0.17   0.39   0.00
    16   1    -0.21  -0.09  -0.00     0.02   0.02   0.00     0.08   0.03   0.00
                     40                     41                     42
                      A                      A                      A
 Frequencies --    224.6404               228.3868               232.3643
 Red. masses --      1.2544                 1.2819                 1.2302
 Frc consts  --      0.0373                 0.0394                 0.0391
 IR Inten    --      0.0000                 0.0000                 0.0000
  Atom  AN      X      Y      Z        X      Y      Z        X      Y      Z
     1   1     0.34  -0.01   0.00    -0.07  -0.00   0.00    -0.01  -0.00  -0.00
     2   1    -0.35  -0.02   0.00    -0.07   0.00  -0.00    -0.06   0.00   0.00
     3   1    -0.31   0.52  -0.00    -0.01   0.02  -0.00     0.00   0.00   0.00
     4   1    -0.01  -0.02  -0.00    -0.21  -0.57  -0.00     0.09   0.39   0.00
     5   1    -0.02   0.01  -0.00     0.63  -0.22  -0.00    -0.11   0.03   0.00
     6   6     0.00  -0.00  -0.00    -0.11   0.01  -0.00     0.02   0.01   0.00
     7   6    -0.00   0.00   0.00     0.06   0.08   0.00     0.02  -0.07  -0.00
     8   6     0.01   0.01   0.00     0.01  -0.03   0.00    -0.00   0.00  -0.00
     9   7     0.00  -0.00   0.00    -0.03  -0.03   0.00    -0.10  -0.02  -0.00
    10   6    -0.01   0.01  -0.00     0.00   0.02   0.00     0.01   0.04  -0.00
    11   6    -0.05   0.02   0.00     0.01   0.00  -0.00     0.00   0.00  -0.00
    12   6     0.05   0.02  -0.00     0.01  -0.00  -0.00     0.01  -0.00   0.00
    13   6    -0.05  -0.07  -0.00    -0.00   0.00   0.00     0.00   0.00  -0.00
    14   6     0.05  -0.07  -0.00    -0.00  -0.00   0.00    -0.00  -0.00   0.00
    15   1     0.29   0.53  -0.00    -0.01  -0.02  -0.00    -0.00  -0.00  -0.00
    16   1    -0.01  -0.00  -0.00     0.36   0.13   0.00     0.85   0.28  -0.00

 -------------------
 - Thermochemistry -
 -------------------
 Temperature   298.150 Kelvin.  Pressure      1.00000 Atm.
 Atom     1 has atomic number  1 and mass   1.00783
 Atom     2 has atomic number  1 and mass   1.00783
 Atom     3 has atomic number  1 and mass   1.00783
 Atom     4 has atomic number  1 and mass   1.00783
 Atom     5 has atomic number  1 and mass   1.00783
 Atom     6 has atomic number  6 and mass  12.00000
 Atom     7 has atomic number  6 and mass  12.00000
 Atom     8 has atomic number  6 and mass  12.00000
 Atom     9 has atomic number  7 and mass  14.00307
 Atom    10 has atomic number  6 and mass  12.00000
 Atom    11 has atomic number  6 and mass  12.00000
 Atom    12 has atomic number  6 and mass  12.00000
 Atom    13 has atomic number  6 and mass  12.00000
 Atom    14 has atomic number  6 and mass  12.00000
 Atom    15 has atomic number  1 and mass   1.00783
 Atom    16 has atomic number  1 and mass   1.00783
 Molecular mass:   117.05785 amu.
 Principal axes and moments of inertia in atomic units:
                                 1                 2                 3
     Eigenvalues --          461.943286       1098.822026       1560.765312
           X                   1.000000          0.000779         -0.000000
           Y                  -0.000779          1.000000         -0.000000
           Z                   0.000000          0.000000          1.000000
 This molecule is an asymmetric top.
 Rotational symmetry number  1.
 Warning -- assumption of classical behavior for rotation
           may cause significant error
 Rotational temperatures (Kelvin)      0.18750     0.07882     0.05549
 Rotational constants (GHZ):           3.90685     1.64243     1.15632
   10 imaginary frequencies ignored.
 Zero-point vibrational energy      23238.6 (Joules/Mol)
                                    5.55416 (Kcal/Mol)
 Warning -- explicit consideration of  32 degrees of freedom as
           vibrations may cause significant error
 Vibrational temperatures:      5.70    16.69    42.36    43.10    49.59
          (Kelvin)             63.37    66.70    78.92    85.48    90.07
                              102.46   104.21   117.47   146.88   149.90
                              174.35   186.81   189.27   226.33   229.72
                              230.57   232.51   233.39   238.11   242.02
                              306.72   312.50   316.57   322.02   323.21
                              328.60   334.32
 
 Zero-point correction=                           0.008851 (Hartree/Particle)
 Thermal correction to Energy=                    0.034197
 Thermal correction to Enthalpy=                  0.035141
 Thermal correction to Gibbs Free Energy=        -0.053103
 Sum of electronic and zero-point Energies=              0.009480
 Sum of electronic and thermal Energies=                 0.034826
 Sum of electronic and thermal Enthalpies=               0.035770
 Sum of electronic and thermal Free Energies=           -0.052474
 
                     E (Thermal)             CV                S
                      KCal/Mol        Cal/Mol-Kelvin    Cal/Mol-Kelvin
 Total                   21.459             67.198            185.725
 Electronic               0.000              0.000              0.000
 Translational            0.889              2.981             40.187
 Rotational               0.889              2.981             28.162
 Vibrational             19.681             61.237            117.375
 Vibration     1          0.593              1.987              9.851
 Vibration     2          0.593              1.987              7.716
 Vibration     3          0.593              1.984              5.867
 Vibration     4          0.594              1.984              5.832
 Vibration     5          0.594              1.983              5.554
 Vibration     6          0.595              1.980              5.068
 Vibration     7          0.595              1.979              4.967
 Vibration     8          0.596              1.976              4.634
 Vibration     9          0.597              1.974              4.477
 Vibration    10          0.597              1.972              4.374
 Vibration    11          0.598              1.968              4.120
 Vibration    12          0.599              1.967              4.086
 Vibration    13          0.600              1.962              3.851
 Vibration    14          0.604              1.947              3.414
 Vibration    15          0.605              1.946              3.374
 Vibration    16          0.609              1.932              3.082
 Vibration    17          0.612              1.923              2.948
 Vibration    18          0.612              1.922              2.923
 Vibration    19          0.621              1.894              2.582
 Vibration    20          0.622              1.892              2.554
 Vibration    21          0.622              1.891              2.547
 Vibration    22          0.622              1.889              2.531
 Vibration    23          0.622              1.889              2.524
 Vibration    24          0.624              1.885              2.486
 Vibration    25          0.625              1.882              2.455
 Vibration    26          0.644              1.821              2.016
 Vibration    27          0.646              1.815              1.982
 Vibration    28          0.647              1.811              1.959
 Vibration    29          0.649              1.805              1.928
 Vibration    30          0.649              1.804              1.921
 Vibration    31          0.651              1.798              1.892
 Vibration    32          0.653              1.791              1.861
                       Q            Log10(Q)             Ln(Q)
 Total Bot       0.266528D+25         24.425743         56.242352
 Total V=0       0.314028D+29         28.496969         65.616695
 Vib (Bot)       0.168041D+12         11.225416         25.847476
 Vib (Bot)    1  0.522970D+02          1.718477          3.956939
 Vib (Bot)    2  0.178592D+02          1.251862          2.882518
 Vib (Bot)    3  0.703211D+01          0.847085          1.950486
 Vib (Bot)    4  0.691109D+01          0.839546          1.933127
 Vib (Bot)    5  0.600568D+01          0.778562          1.792705
 Vib (Bot)    6  0.469629D+01          0.671755          1.546773
 Vib (Bot)    7  0.446103D+01          0.649435          1.495380
 Vib (Bot)    8  0.376682D+01          0.575975          1.326230
 Vib (Bot)    9  0.347620D+01          0.541105          1.245939
 Vib (Bot)   10  0.329774D+01          0.518217          1.193238
 Vib (Bot)   11  0.289562D+01          0.461742          1.063201
 Vib (Bot)   12  0.284643D+01          0.454301          1.046067
 Vib (Bot)   13  0.252172D+01          0.401696          0.924940
 Vib (Bot)   14  0.200948D+01          0.303083          0.697874
 Vib (Bot)   15  0.196820D+01          0.294069          0.677119
 Vib (Bot)   16  0.168596D+01          0.226848          0.522338
 Vib (Bot)   17  0.157022D+01          0.195962          0.451218
 Vib (Bot)   18  0.154910D+01          0.190079          0.437672
 Vib (Bot)   19  0.128622D+01          0.109314          0.251706
 Vib (Bot)   20  0.126632D+01          0.102542          0.236112
 Vib (Bot)   21  0.126140D+01          0.100854          0.232224
 Vib (Bot)   22  0.125037D+01          0.097038          0.223438
 Vib (Bot)   23  0.124544D+01          0.095323          0.219489
 Vib (Bot)   24  0.121948D+01          0.086175          0.198425
 Vib (Bot)   25  0.119872D+01          0.078718          0.181255
 Vib (Bot)   26  0.930490D+00         -0.031288         -0.072044
 Vib (Bot)   27  0.911773D+00         -0.040113         -0.092364
 Vib (Bot)   28  0.898995D+00         -0.046243         -0.106478
 Vib (Bot)   29  0.882357D+00         -0.054356         -0.125158
 Vib (Bot)   30  0.878806D+00         -0.056107         -0.129191
 Vib (Bot)   31  0.862995D+00         -0.063992         -0.147346
 Vib (Bot)   32  0.846746D+00         -0.072247         -0.166355
 Vib (V=0)       0.197989D+16         15.296642         35.221819
 Vib (V=0)    1  0.527994D+02          1.722629          3.966499
 Vib (V=0)    2  0.183662D+02          1.264019          2.910511
 Vib (V=0)    3  0.754986D+01          0.877939          2.021529
 Vib (V=0)    4  0.742915D+01          0.870939          2.005411
 Vib (V=0)    5  0.652645D+01          0.814677          1.875864
 Vib (V=0)    6  0.522283D+01          0.717906          1.653040
 Vib (V=0)    7  0.498897D+01          0.698011          1.607229
 Vib (V=0)    8  0.429986D+01          0.633454          1.458582
 Vib (V=0)    9  0.401197D+01          0.603358          1.389283
 Vib (V=0)   10  0.383543D+01          0.583814          1.344282
 Vib (V=0)   11  0.343848D+01          0.536366          1.235028
 Vib (V=0)   12  0.339001D+01          0.530201          1.220834
 Vib (V=0)   13  0.307081D+01          0.487253          1.121941
 Vib (V=0)   14  0.257075D+01          0.410059          0.944197
 Vib (V=0)   15  0.253072D+01          0.403243          0.928502
 Vib (V=0)   16  0.225854D+01          0.353828          0.814720
 Vib (V=0)   17  0.214791D+01          0.332016          0.764495
 Vib (V=0)   18  0.212779D+01          0.327929          0.755084
 Vib (V=0)   19  0.187998D+01          0.274154          0.631263
 Vib (V=0)   20  0.186145D+01          0.269852          0.621358
 Vib (V=0)   21  0.185689D+01          0.268785          0.618900
 Vib (V=0)   22  0.184663D+01          0.266380          0.613364
 Vib (V=0)   23  0.184206D+01          0.265303          0.610883
 Vib (V=0)   24  0.181800D+01          0.259595          0.597739
 Vib (V=0)   25  0.179882D+01          0.254988          0.587131
 Vib (V=0)   26  0.155632D+01          0.192099          0.442324
 Vib (V=0)   27  0.153987D+01          0.187484          0.431698
 Vib (V=0)   28  0.152868D+01          0.184318          0.424408
 Vib (V=0)   29  0.151418D+01          0.180177          0.414872
 Vib (V=0)   30  0.151109D+01          0.179290          0.412830
 Vib (V=0)   31  0.149738D+01          0.175331          0.403715
 Vib (V=0)   32  0.148335D+01          0.171244          0.394304
 Electronic      0.100000D+01          0.000000          0.000000
 Translational   0.497800D+08          7.697055         17.723123
 Rotational      0.318620D+06          5.503272         12.671753
                           ----------------------------
                           ! Normal Mode     1        !
 --------------------------                            --------------------------
 ! Name  Definition              Value          Relative Weight (%)             !
 --------------------------------------------------------------------------------
 ! D1    D(5,6,7,4)             -1.1172                 19.8                    !
 ! D2    D(5,6,7,9)             -0.6499                 11.5                    !
 ! D3    D(8,6,7,4)             -0.2746                  4.9                    !
 ! D4    D(8,6,7,9)              0.1927                  3.4                    !
 ! D5    D(5,6,8,10)             0.6825                 12.1                    !
 ! D6    D(5,6,8,11)             0.8386                 14.9                    !
 ! D7    D(7,6,8,10)            -0.1738                  3.1                    !
 ! D9    D(4,7,9,10)             0.2767                  4.9                    !
 ! D10   D(4,7,9,16)             0.3141                  5.6                    !
 ! D11   D(6,7,9,10)            -0.1392                  2.5                    !
 ! D12   D(6,7,9,16)            -0.1017                  1.8                    !
 ! D13   D(6,8,10,9)             0.0908                  1.6                    !
 ! D14   D(6,8,10,12)            0.0892                  1.6                    !
 ! D17   D(6,8,11,1)            -0.1703                  3.0                    !
 ! D18   D(6,8,11,13)           -0.1188                  2.1                    !
 --------------------------------------------------------------------------------
                           ----------------------------
                           ! Normal Mode     2        !
 --------------------------                            --------------------------
 ! Name  Definition              Value          Relative Weight (%)             !
 --------------------------------------------------------------------------------
 ! D1    D(5,6,7,4)              0.4276                  9.6                    !
 ! D2    D(5,6,7,9)             -0.3224                  7.2                    !
 ! D3    D(8,6,7,4)              0.6957                 15.6                    !
 ! D4    D(8,6,7,9)             -0.0543                  1.2                    !
 ! D5    D(5,6,8,10)             0.2966                  6.7                    !
 ! D6    D(5,6,8,11)             0.3751                  8.4                    !
 ! D8    D(7,6,8,11)             0.1027                  2.3                    !
 ! D9    D(4,7,9,10)            -0.6022                 13.5                    !
 ! D10   D(4,7,9,16)            -0.5904                 13.3                    !
 ! D11   D(6,7,9,10)             0.0652                  1.5                    !
 ! D12   D(6,7,9,16)             0.077                   1.7                    !
 ! D14   D(6,8,10,12)            0.0321                  0.7                    !
 ! D15   D(11,8,10,9)           -0.0495                  1.1                    !
 ! D16   D(11,8,10,12)          -0.032                   0.7                    !
 ! D17   D(6,8,11,1)            -0.0856                  1.9                    !
 ! D18   D(6,8,11,13)           -0.036                   0.8                    !
 ! D20   D(10,8,11,13)           0.0498                  1.1                    !
 ! D21   D(7,9,10,8)            -0.0481                  1.1                    !
 ! D22   D(7,9,10,12)           -0.0676                  1.5                    !
 ! D23   D(16,9,10,8)           -0.0599                  1.3                    !
 ! D24   D(16,9,10,12)          -0.0795                  1.8                    !
 ! D27   D(9,10,12,2)            0.0485                  1.1                    !
 ! D31   D(8,11,13,14)          -0.0362                  0.8                    !
 ! D32   D(8,11,13,15)          -0.0285                  0.6                    !
 --------------------------------------------------------------------------------
                           ----------------------------
                           ! Normal Mode     3        !
 --------------------------                            --------------------------
 ! Name  Definition              Value          Relative Weight (%)             !
 --------------------------------------------------------------------------------
 ! D2    D(5,6,7,9)              0.2274                  1.8                    !
 ! D7    D(7,6,8,10)             0.1754                  1.4                    !
 ! D9    D(4,7,9,10)            -0.1987                  1.6                    !
 ! D10   D(4,7,9,16)             0.6502                  5.3                    !
 ! D11   D(6,7,9,10)            -0.3881                  3.1                    !
 ! D12   D(6,7,9,16)             0.4607                  3.7                    !
 ! D13   D(6,8,10,9)            -0.4053                  3.3                    !
 ! D14   D(6,8,10,12)            0.4638                  3.7                    !
 ! D15   D(11,8,10,9)           -0.2809                  2.3                    !
 ! D16   D(11,8,10,12)           0.5882                  4.8                    !
 ! D19   D(10,8,11,1)           -0.2244                  1.8                    !
 ! D20   D(10,8,11,13)          -0.1932                  1.6                    !
 ! D21   D(7,9,10,8)             0.4891                  4.0                    !
 ! D22   D(7,9,10,12)           -0.4783                  3.9                    !
 ! D23   D(16,9,10,8)           -0.3627                  2.9                    !
 ! D24   D(16,9,10,12)          -1.33                   10.7                    !
 ! D25   D(8,10,12,2)            0.2233                  1.8                    !
 ! D26   D(8,10,12,14)          -0.7467                  6.0                    !
 ! D27   D(9,10,12,2)            1.3164                 10.6                    !
 ! D28   D(9,10,12,14)           0.3464                  2.8                    !
 ! D33   D(2,12,14,3)           -0.6131                  5.0                    !
 ! D34   D(2,12,14,13)          -0.4371                  3.5                    !
 ! D35   D(10,12,14,3)           0.3527                  2.8                    !
 ! D36   D(10,12,14,13)          0.5287                  4.3                    !
 ! D38   D(11,13,14,12)         -0.1643                  1.3                    !
 --------------------------------------------------------------------------------
                           ----------------------------
                           ! Normal Mode     4        !
 --------------------------                            --------------------------
 ! Name  Definition              Value          Relative Weight (%)             !
 --------------------------------------------------------------------------------
 ! D1    D(5,6,7,4)             -0.0371                  0.9                    !
 ! D3    D(8,6,7,4)             -0.0325                  0.8                    !
 ! D8    D(7,6,8,11)            -0.0255                  0.6                    !
 ! D9    D(4,7,9,10)             0.0316                  0.8                    !
 ! D10   D(4,7,9,16)             0.7279                 18.3                    !
 ! D12   D(6,7,9,16)             0.6834                 17.1                    !
 ! D14   D(6,8,10,12)           -0.0598                  1.5                    !
 ! D16   D(11,8,10,12)          -0.0517                  1.3                    !
 ! D17   D(6,8,11,1)             0.0431                  1.1                    !
 ! D19   D(10,8,11,1)            0.0323                  0.8                    !
 ! D22   D(7,9,10,12)            0.0779                  2.0                    !
 ! D23   D(16,9,10,8)           -0.696                  17.5                    !
 ! D24   D(16,9,10,12)          -0.6207                 15.6                    !
 ! D25   D(8,10,12,2)           -0.0699                  1.8                    !
 ! D26   D(8,10,12,14)           0.0852                  2.1                    !
 ! D27   D(9,10,12,2)           -0.155                   3.9                    !
 ! D33   D(2,12,14,3)            0.1132                  2.8                    !
 ! D34   D(2,12,14,13)           0.086                   2.2                    !
 ! D35   D(10,12,14,3)          -0.0412                  1.0                    !
 ! D36   D(10,12,14,13)         -0.0683                  1.7                    !
 --------------------------------------------------------------------------------
                           ----------------------------
                           ! Normal Mode     5        !
 --------------------------                            --------------------------
 ! Name  Definition              Value          Relative Weight (%)             !
 --------------------------------------------------------------------------------
 ! D1    D(5,6,7,4)              0.1303                  1.3                    !
 ! D2    D(5,6,7,9)              0.2101                  2.1                    !
 ! D5    D(5,6,8,10)            -0.3                     3.0                    !
 ! D6    D(5,6,8,11)             0.3798                  3.8                    !
 ! D7    D(7,6,8,10)            -0.1989                  2.0                    !
 ! D8    D(7,6,8,11)             0.4809                  4.8                    !
 ! D10   D(4,7,9,16)             0.1409                  1.4                    !
 ! D13   D(6,8,10,9)             0.2126                  2.1                    !
 ! D15   D(11,8,10,9)           -0.3419                  3.4                    !
 ! D16   D(11,8,10,12)          -0.4802                  4.8                    !
 ! D17   D(6,8,11,1)            -1.1426                 11.5                    !
 ! D19   D(10,8,11,1)           -0.4004                  4.0                    !
 ! D20   D(10,8,11,13)           0.6307                  6.3                    !
 ! D21   D(7,9,10,8)            -0.1493                  1.5                    !
 ! D23   D(16,9,10,8)           -0.1956                  2.0                    !
 ! D26   D(8,10,12,14)           0.2337                  2.3                    !
 ! D27   D(9,10,12,2)           -0.2678                  2.7                    !
 ! D29   D(1,11,13,14)           0.4685                  4.7                    !
 ! D30   D(1,11,13,15)           0.7806                  7.8                    !
 ! D31   D(8,11,13,14)          -0.5637                  5.7                    !
 ! D32   D(8,11,13,15)          -0.2515                  2.5                    !
 ! D33   D(2,12,14,3)            0.3248                  3.3                    !
 ! D34   D(2,12,14,13)           0.1784                  1.8                    !
 ! D36   D(10,12,14,13)         -0.1478                  1.5                    !
 ! D37   D(11,13,14,3)           0.176                   1.8                    !
 ! D38   D(11,13,14,12)          0.3223                  3.2                    !
 ! D39   D(15,13,14,3)          -0.1345                  1.3                    !
 --------------------------------------------------------------------------------
                           ----------------------------
                           ! Normal Mode     6        !
 --------------------------                            --------------------------
 ! Name  Definition              Value          Relative Weight (%)             !
 --------------------------------------------------------------------------------
 ! D5    D(5,6,8,10)            -0.0674                  1.3                    !
 ! D6    D(5,6,8,11)             0.0527                  1.0                    !
 ! D7    D(7,6,8,10)            -0.0627                  1.2                    !
 ! D8    D(7,6,8,11)             0.0573                  1.1                    !
 ! D9    D(4,7,9,10)             0.0825                  1.6                    !
 ! D10   D(4,7,9,16)             0.0485                  1.0                    !
 ! D11   D(6,7,9,10)             0.0866                  1.7                    !
 ! D12   D(6,7,9,16)             0.0525                  1.0                    !
 ! D13   D(6,8,10,9)             0.1139                  2.3                    !
 ! D16   D(11,8,10,12)          -0.1214                  2.4                    !
 ! D17   D(6,8,11,1)            -0.2059                  4.1                    !
 ! D19   D(10,8,11,1)           -0.0749                  1.5                    !
 ! D20   D(10,8,11,13)           0.1333                  2.6                    !
 ! D21   D(7,9,10,8)            -0.124                   2.5                    !
 ! D23   D(16,9,10,8)           -0.0899                  1.8                    !
 ! D24   D(16,9,10,12)           0.063                   1.2                    !
 ! D25   D(8,10,12,2)            0.6838                 13.5                    !
 ! D27   D(9,10,12,2)            0.511                  10.1                    !
 ! D28   D(9,10,12,14)          -0.1608                  3.2                    !
 ! D29   D(1,11,13,14)           0.1667                  3.3                    !
 ! D30   D(1,11,13,15)           0.1748                  3.5                    !
 ! D31   D(8,11,13,14)          -0.0417                  0.8                    !
 ! D32   D(8,11,13,15)          -0.0336                  0.7                    !
 ! D33   D(2,12,14,3)           -0.7262                 14.4                    !
 ! D34   D(2,12,14,13)          -0.5848                 11.6                    !
 ! D35   D(10,12,14,3)          -0.0573                  1.1                    !
 ! D36   D(10,12,14,13)          0.0841                  1.7                    !
 ! D37   D(11,13,14,3)           0.0704                  1.4                    !
 ! D38   D(11,13,14,12)         -0.071                   1.4                    !
 ! D39   D(15,13,14,3)           0.0624                  1.2                    !
 ! D40   D(15,13,14,12)         -0.079                   1.6                    !
 --------------------------------------------------------------------------------
                           ----------------------------
                           ! Normal Mode     7        !
 --------------------------                            --------------------------
 ! Name  Definition              Value          Relative Weight (%)             !
 --------------------------------------------------------------------------------
 ! D5    D(5,6,8,10)             0.116                   2.0                    !
 ! D6    D(5,6,8,11)            -0.15                    2.6                    !
 ! D7    D(7,6,8,10)             0.0968                  1.7                    !
 ! D8    D(7,6,8,11)            -0.1692                  3.0                    !
 ! D9    D(4,7,9,10)            -0.0996                  1.7                    !
 ! D10   D(4,7,9,16)            -0.0729                  1.3                    !
 ! D11   D(6,7,9,10)            -0.0769                  1.4                    !
 ! D13   D(6,8,10,9)            -0.1422                  2.5                    !
 ! D15   D(11,8,10,9)            0.0747                  1.3                    !
 ! D16   D(11,8,10,12)           0.1829                  3.2                    !
 ! D17   D(6,8,11,1)            -0.3746                  6.6                    !
 ! D18   D(6,8,11,13)            0.2141                  3.8                    !
 ! D19   D(10,8,11,1)           -0.6651                 11.7                    !
 ! D20   D(10,8,11,13)          -0.0763                  1.3                    !
 ! D21   D(7,9,10,8)             0.1363                  2.4                    !
 ! D23   D(16,9,10,8)            0.1095                  1.9                    !
 ! D25   D(8,10,12,2)           -0.1344                  2.4                    !
 ! D26   D(8,10,12,14)          -0.0872                  1.5                    !
 ! D29   D(1,11,13,14)           0.4712                  8.3                    !
 ! D30   D(1,11,13,15)           0.769                  13.5                    !
 ! D31   D(8,11,13,14)          -0.1181                  2.1                    !
 ! D32   D(8,11,13,15)           0.1797                  3.2                    !
 ! D33   D(2,12,14,3)            0.1129                  2.0                    !
 ! D36   D(10,12,14,13)         -0.1123                  2.0                    !
[...]
    A9        2.07297   0.00011   0.00000   0.02989   0.03014   2.10311
   A10        1.90770  -0.00019   0.00000  -0.05564  -0.05525   1.85245
   A11        2.18533   0.00010   0.00000   0.02959   0.02940   2.21473
   A12        2.19015   0.00008   0.00000   0.02605   0.02585   2.21601
   A13        1.87044   0.00015   0.00000   0.03802   0.03803   1.90848
   A14        2.13395   0.00014   0.00000   0.04477   0.04496   2.17891
   A15        2.27879  -0.00029   0.00000  -0.08279  -0.08299   2.19580
   A16        2.10144   0.00006   0.00000   0.01202   0.01209   2.11353
   A17        2.10302   0.00005   0.00000   0.01087   0.01093   2.11395
   A18        2.07873  -0.00011   0.00000  -0.02289  -0.02303   2.05570
   A19        2.11951   0.00003   0.00000   0.00578   0.00571   2.12522
   A20        2.11231   0.00005   0.00000   0.01107   0.01101   2.12331
   A21        2.05137  -0.00008   0.00000  -0.01685  -0.01672   2.03465
   A22        2.11411  -0.00001   0.00000  -0.01349  -0.01377   2.10034
   A23        2.08914  -0.00001   0.00000   0.00336   0.00350   2.09264
   A24        2.07994   0.00002   0.00000   0.01013   0.01027   2.09021
   A25        2.08422   0.00002   0.00000   0.01054   0.01061   2.09483
   A26        2.08372   0.00002   0.00000   0.01090   0.01098   2.09470
   A27        2.11525  -0.00004   0.00000  -0.02144  -0.02158   2.09366
    D1        0.00000  -0.00000   0.00000   0.00000   0.00000   0.00000
    D2        3.14159   0.00000   0.00000  -0.00000   0.00000   3.14159
    D3       -3.14159  -0.00000   0.00000   0.00000  -0.00000  -3.14159
    D4        0.00000  -0.00000   0.00000  -0.00000  -0.00000  -0.00000
    D5        3.14159  -0.00000   0.00000   0.00000   0.00000   3.14159
    D6        0.00000  -0.00000   0.00000  -0.00000  -0.00000  -0.00000
    D7        0.00000   0.00000   0.00000   0.00000   0.00000   0.00000
    D8        3.14159   0.00000   0.00000   0.00000   0.00000  -3.14159
    D9        3.14159  -0.00000   0.00000  -0.00000  -0.00000   3.14159
   D10       -0.00000  -0.00000   0.00000  -0.00000  -0.00000  -0.00000
   D11        0.00000   0.00000   0.00000   0.00000   0.00000   0.00000
   D12        3.14159   0.00000   0.00000   0.00000   0.00000  -3.14159
   D13        0.00000   0.00000   0.00000   0.00000   0.00000   0.00000
   D14        3.14159  -0.00000   0.00000  -0.00000  -0.00000   3.14159
   D15        3.14159   0.00000   0.00000   0.00000   0.00000   3.14159
   D16        0.00000  -0.00000   0.00000  -0.00000  -0.00000  -0.00000
   D17        0.00000  -0.00000   0.00000   0.00000   0.00000   0.00000
   D18        3.14159  -0.00000   0.00000   0.00000   0.00000   3.14159
   D19        3.14159   0.00000   0.00000  -0.00000   0.00000   3.14159
   D20        0.00000   0.00000   0.00000  -0.00000  -0.00000  -0.00000
   D21        0.00000  -0.00000   0.00000  -0.00000  -0.00000  -0.00000
   D22        3.14159  -0.00000   0.00000  -0.00000   0.00000   3.14159
   D23        3.14159  -0.00000   0.00000  -0.00000  -0.00000   3.14159
   D24        0.00000  -0.00000   0.00000  -0.00000  -0.00000  -0.00000
   D25        3.14159   0.00000   0.00000   0.00000   0.00000  -3.14159
   D26        0.00000   0.00000   0.00000   0.00000   0.00000   0.00000
   D27        0.00000  -0.00000   0.00000  -0.00000  -0.00000  -0.00000
   D28        3.14159  -0.00000   0.00000  -0.00000   0.00000   3.14159
   D29        3.14159   0.00000   0.00000   0.00000   0.00000   3.14159
   D30       -0.00000   0.00000   0.00000  -0.00000  -0.00000  -0.00000
   D31        0.00000   0.00000   0.00000   0.00000   0.00000   0.00000
   D32        3.14159   0.00000   0.00000  -0.00000  -0.00000   3.14159
   D33        0.00000  -0.00000   0.00000   0.00000   0.00000   0.00000
   D34        3.14159  -0.00000   0.00000  -0.00000   0.00000   3.14159
   D35        3.14159  -0.00000   0.00000   0.00000   0.00000   3.14159
   D36        0.00000  -0.00000   0.00000  -0.00000  -0.00000  -0.00000
   D37        3.14159  -0.00000   0.00000  -0.00000   0.00000   3.14159
   D38        0.00000  -0.00000   0.00000  -0.00000  -0.00000  -0.00000
   D39        0.00000   0.00000   0.00000   0.00000   0.00000   0.00000
   D40       -3.14159   0.00000   0.00000   0.00000   0.00000  -3.14159
         Item               Value     Threshold  Converged?
 Maximum Force            0.000410     0.000450     YES
 RMS     Force            0.000104     0.000300     YES
 Maximum Displacement     0.206248     0.001800     NO 
 RMS     Displacement     0.047863     0.001200     NO 
 Predicted change in Energy=-1.907461D-04
                           ----------------------------
                           ! Non-Optimized Parameters !
                           ! (Angstroms and Degrees)  !
 --------------------------                            --------------------------
 ! Name  Definition              Value          Derivative Info.                !
 --------------------------------------------------------------------------------
 ! R1    R(1,11)                 1.0823         -DE/DX =    0.0                 !
 ! R2    R(2,12)                 1.0823         -DE/DX =    0.0                 !
 ! R3    R(3,14)                 1.0819         -DE/DX =    0.0                 !
 ! R4    R(4,7)                  1.079          -DE/DX =    0.0                 !
 ! R5    R(5,6)                  1.079          -DE/DX =    0.0                 !
 ! R6    R(6,7)                  1.3849         -DE/DX =    0.0001              !
 ! R7    R(6,8)                  1.3776         -DE/DX =   -0.0003              !
 ! R8    R(7,9)                  1.423          -DE/DX =    0.0002              !
 ! R9    R(8,10)                 1.3493         -DE/DX =   -0.0004              !
 ! R10   R(8,11)                 1.3884         -DE/DX =   -0.0001              !
 ! R11   R(9,10)                 1.3959         -DE/DX =    0.0001              !
 ! R12   R(9,16)                 1.0367         -DE/DX =    0.0001              !
 ! R13   R(10,12)                1.3761         -DE/DX =   -0.0001              !
 ! R14   R(11,13)                1.4075         -DE/DX =    0.0001              !
 ! R15   R(12,14)                1.4004         -DE/DX =    0.0001              !
 ! R16   R(13,14)                1.4306         -DE/DX =    0.0001              !
 ! R17   R(13,15)                1.082          -DE/DX =    0.0                 !
 ! A1    A(5,6,7)              125.6413         -DE/DX =    0.0                 !
 ! A2    A(5,6,8)              125.9731         -DE/DX =   -0.0001              !
 ! A3    A(7,6,8)              108.3857         -DE/DX =    0.0001              !
 ! A4    A(4,7,6)              126.4412         -DE/DX =   -0.0003              !
 ! A5    A(4,7,9)              126.3981         -DE/DX =    0.0004              !
 ! A6    A(6,7,9)              107.1607         -DE/DX =   -0.0001              !
 ! A7    A(6,8,10)             108.9685         -DE/DX =    0.0001              !
 ! A8    A(6,8,11)             130.532          -DE/DX =   -0.0002              !
 ! A9    A(10,8,11)            120.4995         -DE/DX =    0.0001              !
 ! A10   A(7,9,10)             106.1374         -DE/DX =   -0.0002              !
 ! A11   A(7,9,16)             126.8947         -DE/DX =    0.0001              !
 ! A12   A(10,9,16)            126.9679         -DE/DX =    0.0001              !
 ! A13   A(8,10,9)             109.3477         -DE/DX =    0.0002              !
 ! A14   A(8,10,12)            124.8424         -DE/DX =    0.0001              !
 ! A15   A(9,10,12)            125.8099         -DE/DX =   -0.0003              !
 ! A16   A(1,11,8)             121.0966         -DE/DX =    0.0001              !
 ! A17   A(1,11,13)            121.1204         -DE/DX =    0.0001              !
 ! A18   A(8,11,13)            117.783          -DE/DX =   -0.0001              !
 ! A19   A(2,12,10)            121.7662         -DE/DX =    0.0                 !
 ! A20   A(2,12,14)            121.6569         -DE/DX =    0.0001              !
 ! A21   A(10,12,14)           116.5768         -DE/DX =   -0.0001              !
 ! A22   A(11,13,14)           120.3404         -DE/DX =    0.0                 !
 ! A23   A(11,13,15)           119.8997         -DE/DX =    0.0                 !
 ! A24   A(14,13,15)           119.76           -DE/DX =    0.0                 !
 ! A25   A(3,14,12)            120.0248         -DE/DX =    0.0                 !
 ! A26   A(3,14,13)            120.0172         -DE/DX =    0.0                 !
 ! A27   A(12,14,13)           119.9579         -DE/DX =    0.0                 !
 ! D1    D(5,6,7,4)              0.0001         -DE/DX =    0.0                 !
 ! D2    D(5,6,7,9)            180.0            -DE/DX =    0.0                 !
 ! D3    D(8,6,7,4)           -179.9999         -DE/DX =    0.0                 !
 ! D4    D(8,6,7,9)              0.0            -DE/DX =    0.0                 !
 ! D5    D(5,6,8,10)           180.0            -DE/DX =    0.0                 !
 ! D6    D(5,6,8,11)             0.0            -DE/DX =    0.0                 !
 ! D7    D(7,6,8,10)             0.0            -DE/DX =    0.0                 !
 ! D8    D(7,6,8,11)          -180.0            -DE/DX =    0.0                 !
 ! D9    D(4,7,9,10)           179.9999         -DE/DX =    0.0                 !
 ! D10   D(4,7,9,16)            -0.0001         -DE/DX =    0.0                 !
 ! D11   D(6,7,9,10)             0.0            -DE/DX =    0.0                 !
 ! D12   D(6,7,9,16)          -180.0            -DE/DX =    0.0                 !
 ! D13   D(6,8,10,9)             0.0            -DE/DX =    0.0                 !
 ! D14   D(6,8,10,12)          180.0            -DE/DX =    0.0                 !
 ! D15   D(11,8,10,9)          180.0            -DE/DX =    0.0                 !
 ! D16   D(11,8,10,12)           0.0            -DE/DX =    0.0                 !
 ! D17   D(6,8,11,1)             0.0            -DE/DX =    0.0                 !
 ! D18   D(6,8,11,13)          180.0            -DE/DX =    0.0                 !
 ! D19   D(10,8,11,1)          180.0            -DE/DX =    0.0                 !
 ! D20   D(10,8,11,13)           0.0            -DE/DX =    0.0                 !
 ! D21   D(7,9,10,8)             0.0            -DE/DX =    0.0                 !
 ! D22   D(7,9,10,12)          180.0            -DE/DX =    0.0                 !
 ! D23   D(16,9,10,8)          180.0            -DE/DX =    0.0                 !
 ! D24   D(16,9,10,12)           0.0            -DE/DX =    0.0                 !
 ! D25   D(8,10,12,2)         -180.0            -DE/DX =    0.0                 !
 ! D26   D(8,10,12,14)           0.0            -DE/DX =    0.0                 !
 ! D27   D(9,10,12,2)            0.0            -DE/DX =    0.0                 !
 ! D28   D(9,10,12,14)         180.0            -DE/DX =    0.0                 !
 ! D29   D(1,11,13,14)         180.0            -DE/DX =    0.0                 !
 ! D30   D(1,11,13,15)          -0.0001         -DE/DX =    0.0                 !
 ! D31   D(8,11,13,14)           0.0            -DE/DX =    0.0                 !
 ! D32   D(8,11,13,15)         179.9999         -DE/DX =    0.0                 !
 ! D33   D(2,12,14,3)            0.0            -DE/DX =    0.0                 !
 ! D34   D(2,12,14,13)         180.0            -DE/DX =    0.0                 !
 ! D35   D(10,12,14,3)         180.0            -DE/DX =    0.0                 !
 ! D36   D(10,12,14,13)          0.0            -DE/DX =    0.0                 !
 ! D37   D(11,13,14,3)         180.0            -DE/DX =    0.0                 !
 ! D38   D(11,13,14,12)          0.0            -DE/DX =    0.0                 !
 ! D39   D(15,13,14,3)           0.0001         -DE/DX =    0.0                 !
 ! D40   D(15,13,14,12)       -179.9999         -DE/DX =    0.0                 !
 --------------------------------------------------------------------------------
 GradGradGradGradGradGradGradGradGradGradGradGradGradGradGradGradGradGrad

 Leave Link  103 at Thu Nov  3 15:46:30 2022, MaxMem=   134217728 cpu:               0.0 elap:               0.0
 (Enter /home/emanuele/chem_software/gaussian//gdv/l9999.exe)
 Unable to Open any file for archive entry.
 1\1\GINC-EMANUELE-XPS-13-9343\Freq\AMBER\ZDO\C8H7N1\EMANUELE\03-Nov-20
 22\0\\#p Amber=(SoftOnly,Print) nosymm Freq=intmodes\\Title\\0,1\H,-1.
 009677,2.505917,0.\H,-0.917442,-2.495849,0.\H,-3.06191,-1.262584,0.\H,
 3.453102,-0.082375,0.000001\H,1.99321,2.17324,0.\C,1.620451,1.163136,0
 .\C,2.382297,0.030455,0.\C,0.248141,0.748383,0.\N,1.561959,-1.077509,0
 .\C,0.247035,-0.67014,0.\C,-0.979704,1.423874,0.\C,-0.932234,-1.413394
 ,0.\C,-2.151543,0.689333,0.\C,-2.128208,-0.716107,0.\H,-3.104872,1.200
 941,0.000001\H,1.876463,-2.029966,0.\\Version=ES64L-GDVRevJ.14\HF=0.00
 06291\RMSD=0.000e+00\RMSF=1.822e-04\ZeroPoint=0.0088511\Thermal=0.0341
 966\ETot=0.0348256\HTot=0.0357698\GTot=-0.0524741\Dipole=0.,0.,0.\PG=C
 01 [X(C8H7N1)]\NImag=10\\0.00152338,0.00001628,0.00089293,0.,0.,-0.000
 01547,0.,0.,0.,0.00152364,0.,0.,0.,0.00000314,0.00089248,0.,0.,0.,0.,0
 .,-0.00002855,0.,0.,0.,0.,0.,0.,0.00105355,0.,0.,0.,0.,0.,0.,-0.000275
 53,0.00136393,0.,0.,0.,0.,0.,0.,0.,0.,0.00000037,0.,0.,0.,0.,0.,0.,0.,
 0.,0.,0.00093536,0.,0.,0.,0.,0.,0.,0.,0.,0.,0.00023495,0.00149245,0.,0
 .,0.,0.,0.,0.,0.,0.,0.,0.,0.,-0.00010453,0.,0.,0.,0.,0.,0.,0.,0.,0.,0.
 ,0.,0.,0.00144740,0.,0.,0.,0.,0.,0.,0.,0.,0.,0.,0.,0.,-0.00022160,0.00
 098050,0.,0.,0.,0.,0.,0.,0.,0.,0.,0.,0.,0.,0.,0.,-0.00014385,0.,0.,0.,
 0.,0.,0.,0.,0.,0.,0.00005280,0.00050109,0.,-0.00207705,0.00045396,0.,0
 .00506749,0.,0.,0.,0.,0.,0.,0.,0.,0.,0.00003551,0.00033703,0.,0.000422
 91,-0.00105478,0.,-0.00011784,0.00447520,0.,0.,0.,0.,0.,0.,0.,0.,0.,0.
 ,0.,-0.00014521,0.,0.,0.00032390,0.,0.,-0.00050152,0.,0.,0.,0.,0.,0.,0
 .,0.,0.,-0.00093752,-0.00025547,0.,0.00047272,-0.00017445,0.,-0.002381
 74,-0.00087267,0.,0.00477696,0.,0.,0.,0.,0.,0.,0.,0.,0.,-0.00030796,-0
 .00218529,0.,0.00031795,-0.00011733,0.,-0.00094786,-0.00144328,0.,0.00
 028026,0.00491595,0.,0.,0.,0.,0.,0.,0.,0.,0.,0.,0.,0.00022201,0.,0.,-0
 .00008345,0.,0.,0.00024989,0.,0.,-0.00045973,0.00028349,0.00000785,0.,
 0.,0.,0.,0.,0.,0.,0.,0.,0.,0.00015694,-0.00005791,0.,-0.00104279,0.000
 53450,0.,-0.00010948,-0.00007364,0.,0.00428771,0.00051530,0.00001427,0
 .,0.,0.,0.,0.,0.,0.,0.,0.,0.,-0.00051926,0.00019162,0.,0.00045753,-0.0
 0252957,0.,0.00036225,0.00024365,0.,0.00026014,0.00506417,0.,0.,-0.000
 01153,0.,0.,0.,0.,0.,0.,0.,0.,0.,0.,0.,-0.00009659,0.,0.,0.00015852,0.
 ,0.,0.00009657,0.,0.,-0.00033487,0.,0.,0.,0.,0.,0.,0.,0.,0.,-0.0000506
 4,-0.00048057,0.,0.,0.,0.,0.00031628,0.00021273,0.,-0.00220166,0.00101
 313,0.,0.00013526,-0.00000011,0.,0.00517436,0.,0.,0.,0.,0.,0.,0.,0.,0.
 ,0.00003749,0.00035581,0.,0.,0.,0.,-0.00023417,-0.00015751,0.,0.000858
 48,-0.00156058,0.,0.00043659,-0.00000034,0.,0.00007027,0.00477514,0.,0
 .,0.,0.,0.,0.,0.,0.,0.,0.,0.,0.00002773,0.,0.,0.,0.,0.,-0.00001050,0.,
 0.,-0.00002718,0.,0.,0.00000998,0.,0.,-0.00021607,0.,0.,0.,0.00031533,
 0.00000431,0.,0.,0.,0.,0.,0.,0.,0.,0.,0.,0.00012697,-0.00042011,0.,-0.
 00011185,0.00008282,0.,-0.00250649,-0.00002765,0.,-0.00100276,-0.00046
 460,0.,0.00431188,0.,0.,0.,-0.00050031,-0.00000684,0.,0.,0.,0.,0.,0.,0
 .,0.,0.,0.,-0.00000010,0.00000033,0.,-0.00036104,0.00026732,0.,-0.0001
 0915,-0.00089240,0.,-0.00046370,-0.00274021,0.,-0.00026073,0.00522651,
 0.,0.,0.,0.,0.,-0.00002425,0.,0.,0.,0.,0.,0.,0.,0.,0.,0.,0.,0.00009479
 ,0.,0.,0.,0.,0.,-0.00009682,0.,0.,0.00038475,0.,0.,-0.00082853,-0.0021
 2338,-0.00003290,0.,0.,0.,0.,0.,0.,0.,0.,0.,0.,0.,0.,0.,-0.00006195,0.
 00020497,0.,0.,0.,0.,-0.00132741,-0.00083373,0.,0.,0.,0.,0.00021641,-0
 .00000017,0.,0.00468015,-0.00002663,-0.00089321,0.,0.,0.,0.,0.,0.,0.,0
 .,0.,0.,0.,0.,0.,-0.00011261,0.00037258,0.,0.,0.,0.,-0.00080460,-0.002
 43356,0.,0.,0.,0.,0.00039337,-0.00000031,0.,-0.00009900,0.00484645,0.,
 0.,0.00003979,0.,0.,0.,0.,0.,0.,0.,0.,0.,0.,0.,0.,0.,0.,-0.00016987,0.
 ,0.,0.,0.,0.,0.00031161,0.,0.,0.,0.,0.,-0.00000061,0.,0.,-0.00022707,0
 .,0.,0.,-0.00213889,-0.00001155,0.,-0.00015161,0.00025904,0.,0.,0.,0.,
 0.,0.,0.,0.,0.,0.,0.,0.,0.,0.00024067,-0.00000019,0.,-0.00007339,-0.00
 023689,0.,-0.00140692,0.00091184,0.,0.,0.,0.,0.00472793,0.,0.,0.,-0.00
 001725,-0.00089267,0.,-0.00026004,0.00044429,0.,0.,0.,0.,0.,0.,0.,0.,0
 .,0.,0.,0.,0.,-0.00038185,0.00000030,0.,0.00011644,0.00037586,0.,0.000
 84565,-0.00238601,0.,0.,0.,0.,0.00007762,0.00482034,0.,0.,0.,0.,0.,0.0
 0007209,0.,0.,0.00000021,0.,0.,0.,0.,0.,0.,0.,0.,0.,0.,0.,0.,0.,0.,-0.
 00003319,0.,0.,-0.00023724,0.,0.,0.00046194,0.,0.,0.,0.,0.,-0.00029603
 ,0.00031651,0.00000877,0.,0.,0.,0.,0.00029642,-0.00050645,0.,0.,0.,0.,
 0.,0.,0.,0.,0.,0.,0.,0.,0.,-0.00011789,-0.00021429,0.,0.,0.,0.,0.,0.,0
 .,-0.00147782,0.00079943,0.,0.00023098,0.00039617,0.,0.00476770,-0.000
 50494,-0.00001399,0.,0.,0.,0.,0.00000492,-0.00000841,0.,0.,0.,0.,0.,0.
 ,0.,0.,0.,0.,0.,0.,0.,0.00018807,0.00034186,0.,0.,0.,0.,0.,0.,0.,0.001
 03590,-0.00233081,0.,0.00000383,0.00000658,0.,-0.00007370,0.00474098,0
 .,0.,-0.00001279,0.,0.,0.,0.,0.,0.00000055,0.,0.,0.,0.,0.,0.,0.,0.,0.,
 0.,0.,0.,0.,0.,-0.00000366,0.,0.,0.,0.,0.,0.,0.,0.,0.00007202,0.,0.,-0
 .00002331,0.,0.,-0.00009259,0.,0.,0.,0.00029992,0.00000410,0.,-0.00119
 836,0.00052295,0.,0.,0.,0.,0.,0.,0.,0.,0.,0.,0.,0.,0.,0.,0.,0.,0.,0.,0
 .,-0.00012421,0.00019707,0.,0.00024380,-0.00038894,0.,-0.00142877,-0.0
 0077674,0.,-0.00286017,-0.00015091,0.,0.00479031,0.,0.,0.,0.00051442,0
 .00000703,0.,0.00053065,-0.00179982,0.,0.,0.,0.,0.,0.,0.,0.,0.,0.,0.,0
 .,0.,0.,0.,0.,0.,0.,0.,-0.00021304,0.00033801,0.,0.00000405,-0.0000064
 6,0.,-0.00100370,-0.00236869,0.,0.00008757,-0.00089302,0.,0.00007544,0
 .00471436,0.,0.,0.,0.,0.,-0.00001930,0.,0.,-0.00000114,0.,0.,0.,0.,0.,
 0.,0.,0.,0.,0.,0.,0.,0.,0.,0.,0.,0.,0.,0.,0.,0.00001064,0.,0.,-0.00002
 270,0.,0.,0.00005552,0.,0.,0.00005960,0.,0.,-0.00008571,0.,0.,0.,0.,0.
 ,0.,0.,0.,0.,0.,0.,0.,0.,0.,0.,0.,0.,0.,0.,0.,0.,0.,0.,0.,0.,0.,0.,0.,
 0.,0.,-0.00014980,0.00023898,0.,0.,0.,0.,-0.00115572,-0.00050317,0.,0.
 00027747,0.00000461,0.,0.00102805,0.,0.,0.,0.,0.,0.,0.,0.,0.,0.,0.,0.,
 0.,0.,0.,0.,0.,0.,0.,0.,0.,0.,0.,0.,0.,0.,0.,0.,0.,0.,-0.00027913,0.00
 044531,0.,0.,0.,0.,-0.00049749,-0.00184320,0.,0.00051704,0.00000858,0.
 ,0.00025959,0.00138930,0.,0.,0.,0.,0.,0.,0.,0.,0.,0.,0.,0.,0.,0.,0.,0.
 ,0.,0.,0.,0.,0.,0.,0.,0.,0.,0.,0.,0.,0.,0.,0.,0.,-0.00000316,0.,0.,0.,
 0.,0.,0.00000018,0.,0.,0.00000309,0.,0.,-0.00000010,0.,0.,0.,0.,0.,0.,
 0.,0.,0.,0.,0.,0.,0.,0.,0.,0.,0.,0.,0.00049257,-0.00036470,0.,0.,0.,0.
 ,-0.00229745,-0.00046716,0.,0.00018164,0.00058630,0.,0.,0.,0.,0.,0.,0.
 ,0.,0.,0.,0.,0.,0.,0.,0.,0.,0.00162324,0.,0.,0.,0.,0.,0.,0.,0.,0.,0.,0
 .,0.,0.,0.,0.,0.,0.,0.,0.00016265,-0.00012043,0.,0.,0.,0.,-0.00046819,
 -0.00104818,0.,0.00005998,0.00019360,0.,0.,0.,0.,0.,0.,0.,0.,0.,0.,0.,
 0.,0.,0.,0.,0.,0.00024557,0.00097501,0.,0.,0.,0.,0.,0.,0.,0.,0.,0.,0.,
 0.,0.,0.,0.,0.,0.,0.,0.,0.,0.00000190,0.,0.,0.,0.,0.,0.00006853,0.,0.,
 -0.00000192,0.,0.,0.,0.,0.,0.,0.,0.,0.,0.,0.,0.,0.,0.,0.,0.,0.,-0.0000
 6851\\0.00000243,0.00000084,0.,-0.00001121,-0.00000109,0.,-0.00000020,
 0.00000079,0.,-0.00004545,-0.00034658,0.,0.00002902,-0.00002026,0.,0.0
 0026376,-0.00006673,0.,-0.00019830,0.00033016,0.,-0.00009794,0.0004537
 0,0.,0.00023389,0.00030866,0.,0.00017349,-0.00079093,0.,-0.00021285,-0
 .00023710,0.,-0.00023340,0.00019578,0.,0.00006295,-0.00001186,0.,0.000
 07349,0.00007153,0.,-0.00000668,-0.00001270,0.,-0.00003300,0.00012580,
 0.\\\@
 The archive entry for this job was punched.


 HICKORY, DICKORY, DOCK
 TWO MICE RAN UP THE CLOCK
 THE CLOCK STRUCK ONE...
 THE OTHER ESCAPED WITH MINOR INJURIES.
 Job cpu time:       0 days  0 hours  0 minutes  0.6 seconds.
 Elapsed time:       0 days  0 hours  0 minutes  0.6 seconds.
 File lengths (MBytes):  RWF=      6 Int=      0 D2E=      0 Chk=      1 Scr=      1
 Normal termination of Gaussian DV at Thu Nov  3 15:46:30 2022.
