 Entering Gaussian System, Link 0=/home/emanuele/chem_software/gaussian//g09/g09
 Input=GauNonBon.gjf
 Output=GauNonBon.log
 Initial command:
 /home/emanuele/chem_software/gaussian//gdv/l1.exe "/home/emanuele/chem_software/gaussian/scratch/Gau-7574.inp" -scrdir="/home/emanuele/chem_software/gaussian/scratch/"
 Entering Link 1 = /home/emanuele/chem_software/gaussian//gdv/l1.exe PID=      7576.
  
 Copyright (c) 1988-2020, Gaussian, Inc.  All Rights Reserved.
  
 This is the private, development version of
 the Gaussian(R) DV system of programs. It is based on
 the Gaussian(R) 16 system (copyright 2016, Gaussian, Inc.),
 the Gaussian(R) 09 system (copyright 2009, Gaussian, Inc.),
 the Gaussian(R) 03 system (copyright 2003, Gaussian, Inc.),
 the Gaussian(R) 98 system (copyright 1998, Gaussian, Inc.),
 the Gaussian(R) 94 system (copyright 1995, Gaussian, Inc.),
 the Gaussian 92(TM) system (copyright 1992, Gaussian, Inc.),
 the Gaussian 90(TM) system (copyright 1990, Gaussian, Inc.),
 the Gaussian 88(TM) system (copyright 1988, Gaussian, Inc.),
 the Gaussian 86(TM) system (copyright 1986, Carnegie Mellon
 University), and the Gaussian 82(TM) system (copyright 1983,
 Carnegie Mellon University). Gaussian is a federally registered
 trademark of Gaussian, Inc.
  
 This software contains proprietary and confidential information,
 including trade secrets, belonging to Gaussian, Inc.
  
 This software is provided under written license and may be
 used, copied, transmitted, or stored only in accord with that
 written license.
  
 The following legend is applicable only to US Government
 contracts under FAR:
  
                    RESTRICTED RIGHTS LEGEND
  
 Use, reproduction and disclosure by the US Government is
 subject to restrictions as set forth in subparagraphs (a)
 and (c) of the Commercial Computer Software - Restricted
 Rights clause in FAR 52.227-19.
  
 Gaussian, Inc.
 340 Quinnipiac St., Bldg. 40, Wallingford CT 06492
  
  
 ---------------------------------------------------------------
 Warning -- This program may not be used in any manner that
 competes with the business of Gaussian, Inc. or will provide
 assistance to any competitor of Gaussian, Inc.  The licensee
 of this program is prohibited from giving any competitor of
 Gaussian, Inc. access to this program.  By using this program,
 the user acknowledges that Gaussian, Inc. is engaged in the
 business of creating and licensing software in the field of
 computational chemistry and represents and warrants to the
 licensee that it is not a competitor of Gaussian, Inc. and that
 it will not use this program in any manner prohibited above.
 ---------------------------------------------------------------
  

 Cite this work as:
 Gaussian Development Version, Revision J.14,
 M. J. Frisch, G. W. Trucks, H. B. Schlegel, G. E. Scuseria, 
 M. A. Robb, J. R. Cheeseman, G. Scalmani, V. Barone, 
 G. A. Petersson, H. Nakatsuji, X. Li, A. V. Marenich, M. Caricato, 
 J. Bloino, B. G. Janesko, J. Zheng, R. Gomperts, B. Mennucci, 
 H. P. Hratchian, J. V. Ortiz, A. F. Izmaylov, J. L. Sonnenberg, 
 D. Williams-Young, F. Ding, F. Lipparini, F. Egidi, J. Goings, 
 B. Peng, A. Petrone, T. Henderson, D. Ranasinghe, V. G. Zakrzewski, 
 J. Gao, N. Rega, G. Zheng, W. Liang, M. Hada, M. Ehara, K. Toyota, 
 R. Fukuda, J. Hasegawa, M. Ishida, T. Nakajima, Y. Honda, O. Kitao, 
 H. Nakai, T. Vreven, K. Throssell, J. A. Montgomery, Jr., 
 J. E. Peralta, F. Ogliaro, M. J. Bearpark, J. J. Heyd, 
 E. N. Brothers, K. N. Kudin, V. N. Staroverov, T. A. Keith, 
 R. Kobayashi, J. Normand, K. Raghavachari, A. P. Rendell, 
 J. C. Burant, S. S. Iyengar, J. Tomasi, M. Cossi, J. M. Millam, 
 M. Klene, C. Adamo, R. Cammi, J. W. Ochterski, R. L. Martin, 
 K. Morokuma, O. Farkas, J. B. Foresman, and D. J. Fox, 
 Gaussian, Inc., Wallingford CT, 2020.
 
 ******************************************
 Gaussian DV:  ES64L-GDVRevJ.14 29-Dec-2020
                22-Oct-2022 
 ******************************************
 %mem=1GB
 %nprocshared=1
 Will use up to    1 processors via shared memory.
 %chk=GauNonBon.chk
 ----------------------------------------------
 #p Amber=(SoftOnly,Print) nosymm Freq=intmodes
 ----------------------------------------------
 1/10=4,18=20,30=1,37=210000000,38=1,56=2,64=303/1,3;
 2/9=110,12=2,15=1,40=1/2;
 3/5=30,11=9,25=1,30=1,41=10030000,43=2,71=2,140=1/1;
 4/20=11,22=2,24=3,119=11/2;
 7/8=21,25=1,30=1,44=-1/16;
 1/10=4,18=20,30=1,64=303/3;
 99//99;
 Leave Link    1 at Sat Oct 22 11:18:40 2022, MaxMem=   134217728 cpu:               0.0 elap:               0.0
 (Enter /home/emanuele/chem_software/gaussian//gdv/l101.exe)
 -----
 Title
 -----
 Symbolic Z-matrix:
 Charge =  0 Multiplicity = 1
 H-HA-+0.093932       -1.00968   2.50592   0. 
 H-HA-+0.093275       -0.91744  -2.49585   0. 
 H-HA-+0.090619       -3.06191  -1.26258   0. 
 H-HA-+0.111621        3.4531   -0.08238   0. 
 H-HA-+0.096456        1.99321   2.17324   0. 
 C-CA--0.131647        1.62045   1.16314   0. 
 C-CA--0.001193        2.3823    0.03046   0. 
 C-CA--0.026843        0.24814   0.74838   0. 
 N-NA--0.412282        1.56196  -1.07751   0. 
 C-CA-+0.087766        0.24704  -0.67014   0. 
 C-CA--0.096803       -0.9797    1.42387   0. 
 C-CA--0.109301       -0.93223  -1.41339   0. 
 C-CA--0.111902       -2.15154   0.68933   0. 
 C-CA--0.106243       -2.12821  -0.71611   0. 
 H-HA-+0.089583       -3.10487   1.20094   0. 
 H-HA-+0.332999        1.87646  -2.02997   0. 
 
 ITRead=  0  0  0  0  0  0  0  0  0  0  0  0  0  0  0  0
 MicOpt= -1 -1 -1 -1 -1 -1 -1 -1 -1 -1 -1 -1 -1 -1 -1 -1
 NAtoms=     16 NQM=       16 NQMF=       0 NMMI=      0 NMMIF=      0
                NMic=       0 NMicF=      0.
                    Isotopes and Nuclear Properties:
 (Nuclear quadrupole moments (NQMom) in fm**2, nuclear magnetic moments (NMagM)
  in nuclear magnetons)

  Atom         1           2           3           4           5           6           7           8           9          10
 IAtWgt=           1           1           1           1           1          12          12          12          14          12
 AtmWgt=   1.0078250   1.0078250   1.0078250   1.0078250   1.0078250  12.0000000  12.0000000  12.0000000  14.0030740  12.0000000
 NucSpn=           1           1           1           1           1           0           0           0           2           0
 AtZEff=  -0.0000000  -0.0000000  -0.0000000  -0.0000000  -0.0000000  -0.0000000  -0.0000000  -0.0000000  -0.0000000  -0.0000000
 NQMom=    0.0000000   0.0000000   0.0000000   0.0000000   0.0000000   0.0000000   0.0000000   0.0000000   2.0440000   0.0000000
 NMagM=    2.7928460   2.7928460   2.7928460   2.7928460   2.7928460   0.0000000   0.0000000   0.0000000   0.4037610   0.0000000
 AtZNuc=   1.0000000   1.0000000   1.0000000   1.0000000   1.0000000   6.0000000   6.0000000   6.0000000   7.0000000   6.0000000

  Atom        11          12          13          14          15          16
 IAtWgt=          12          12          12          12           1           1
 AtmWgt=  12.0000000  12.0000000  12.0000000  12.0000000   1.0078250   1.0078250
 NucSpn=           0           0           0           0           1           1
 AtZEff=  -0.0000000  -0.0000000  -0.0000000  -0.0000000  -0.0000000  -0.0000000
 NQMom=    0.0000000   0.0000000   0.0000000   0.0000000   0.0000000   0.0000000
 NMagM=    0.0000000   0.0000000   0.0000000   0.0000000   2.7928460   2.7928460
 AtZNuc=   6.0000000   6.0000000   6.0000000   6.0000000   1.0000000   1.0000000
 Generating MM parameters.
 Read MM parameter file:
 Include all MM classes

 MM sanity checks:
 All charges sum to:                0.00003700
 Charges of atoms sum to:           0.00003700
 MMInit generated parameter data with length LenPar=        2697.
 MM Charge=              0.0000 electrons
 MM Dipole moment (Debye):
    X=              1.3690    Y=             -1.2105    Z=              0.0000  Tot=              1.8274
 MM Quadrupole moment (Debye-Ang):
   XX=             10.7228   YY=             10.1752   ZZ=              0.0000
   XY=             -2.2524   XZ=              0.0000   YZ=              0.0000
 MM Traceless Quadrupole moment (Debye-Ang):
   XX=              3.7568   YY=              3.2092   ZZ=             -6.9660
   XY=             -2.2524   XZ=              0.0000   YZ=              0.0000
 MM Octapole moment (Debye-Ang**2):
  XXX=             10.9525  YYY=             -7.1681  ZZZ=              0.0000  XYY=              5.3285
  XXY=             -4.7185  XXZ=              0.0000  XZZ=              0.0000  YZZ=              0.0000
  YYZ=              0.0000  XYZ=             -0.0000
 MM Hexadecapole moment (Debye-Ang**3):
 XXXX=            143.2617 YYYY=             66.6279 ZZZZ=              0.0000 XXXY=            -10.1072
 XXXZ=              0.0000 YYYX=            -13.9129 YYYZ=              0.0000 ZZZX=              0.0000
 ZZZY=              0.0000 XXYY=             37.6370 XXZZ=              0.0000 YYZZ=              0.0000
 XXYZ=              0.0000 YYXZ=             -0.0000 ZZXY=             -0.0000
 Leave Link  101 at Sat Oct 22 11:18:40 2022, MaxMem=   134217728 cpu:               0.2 elap:               0.2
 (Enter /home/emanuele/chem_software/gaussian//gdv/l103.exe)

 GradGradGradGradGradGradGradGradGradGradGradGradGradGradGradGradGradGrad
 Berny optimization.
 Initialization pass.
                           ----------------------------
                           !    Initial Parameters    !
                           ! (Angstroms and Degrees)  !
 --------------------------                            --------------------------
 ! Name  Definition              Value          Derivative Info.                !
 --------------------------------------------------------------------------------
 ! R1    R(1,11)                 1.0825         calculate D2E/DX2 analytically  !
 ! R2    R(2,12)                 1.0826         calculate D2E/DX2 analytically  !
 ! R3    R(3,14)                 1.0819         calculate D2E/DX2 analytically  !
 ! R4    R(4,7)                  1.0767         calculate D2E/DX2 analytically  !
 ! R5    R(5,6)                  1.0767         calculate D2E/DX2 analytically  !
 ! R6    R(6,7)                  1.3651         calculate D2E/DX2 analytically  !
 ! R7    R(6,8)                  1.4336         calculate D2E/DX2 analytically  !
 ! R8    R(7,9)                  1.3786         calculate D2E/DX2 analytically  !
 ! R9    R(8,10)                 1.4185         calculate D2E/DX2 analytically  !
 ! R10   R(8,11)                 1.4014         calculate D2E/DX2 analytically  !
 ! R11   R(9,10)                 1.3766         calculate D2E/DX2 analytically  !
 ! R12   R(9,16)                 1.003          calculate D2E/DX2 analytically  !
 ! R13   R(10,12)                1.394          calculate D2E/DX2 analytically  !
 ! R14   R(11,13)                1.383          calculate D2E/DX2 analytically  !
 ! R15   R(12,14)                1.3844         calculate D2E/DX2 analytically  !
 ! R16   R(13,14)                1.4056         calculate D2E/DX2 analytically  !
 ! R17   R(13,15)                1.0819         calculate D2E/DX2 analytically  !
 ! A1    A(5,6,7)              125.8195         calculate D2E/DX2 analytically  !
 ! A2    A(5,6,8)              127.072          calculate D2E/DX2 analytically  !
 ! A3    A(7,6,8)              107.1086         calculate D2E/DX2 analytically  !
 ! A4    A(4,7,6)              129.94           calculate D2E/DX2 analytically  !
 ! A5    A(4,7,9)              120.5013         calculate D2E/DX2 analytically  !
 ! A6    A(6,7,9)              109.5588         calculate D2E/DX2 analytically  !
 ! A7    A(6,8,10)             106.8611         calculate D2E/DX2 analytically  !
 ! A8    A(6,8,11)             134.3665         calculate D2E/DX2 analytically  !
 ! A9    A(10,8,11)            118.7724         calculate D2E/DX2 analytically  !
 ! A10   A(7,9,10)             109.3031         calculate D2E/DX2 analytically  !
 ! A11   A(7,9,16)             125.2103         calculate D2E/DX2 analytically  !
 ! A12   A(10,9,16)            125.4866         calculate D2E/DX2 analytically  !
 ! A13   A(8,10,9)             107.1685         calculate D2E/DX2 analytically  !
 ! A14   A(8,10,12)            122.2665         calculate D2E/DX2 analytically  !
 ! A15   A(9,10,12)            130.5649         calculate D2E/DX2 analytically  !
 ! A16   A(1,11,8)             120.4038         calculate D2E/DX2 analytically  !
 ! A17   A(1,11,13)            120.4939         calculate D2E/DX2 analytically  !
 ! A18   A(8,11,13)            119.1023         calculate D2E/DX2 analytically  !
 ! A19   A(2,12,10)            121.439          calculate D2E/DX2 analytically  !
 ! A20   A(2,12,14)            121.0263         calculate D2E/DX2 analytically  !
 ! A21   A(10,12,14)           117.5347         calculate D2E/DX2 analytically  !
 ! A22   A(11,13,14)           121.1294         calculate D2E/DX2 analytically  !
 ! A23   A(11,13,15)           119.699          calculate D2E/DX2 analytically  !
 ! A24   A(14,13,15)           119.1716         calculate D2E/DX2 analytically  !
 ! A25   A(3,14,12)            119.417          calculate D2E/DX2 analytically  !
 ! A26   A(3,14,13)            119.3884         calculate D2E/DX2 analytically  !
 ! A27   A(12,14,13)           121.1946         calculate D2E/DX2 analytically  !
 ! D1    D(5,6,7,4)              0.0001         calculate D2E/DX2 analytically  !
 ! D2    D(5,6,7,9)            180.0            calculate D2E/DX2 analytically  !
 ! D3    D(8,6,7,4)           -179.9999         calculate D2E/DX2 analytically  !
 ! D4    D(8,6,7,9)              0.0            calculate D2E/DX2 analytically  !
 ! D5    D(5,6,8,10)           180.0            calculate D2E/DX2 analytically  !
 ! D6    D(5,6,8,11)             0.0            calculate D2E/DX2 analytically  !
 ! D7    D(7,6,8,10)             0.0            calculate D2E/DX2 analytically  !
 ! D8    D(7,6,8,11)           180.0            calculate D2E/DX2 analytically  !
 ! D9    D(4,7,9,10)           179.9999         calculate D2E/DX2 analytically  !
 ! D10   D(4,7,9,16)            -0.0001         calculate D2E/DX2 analytically  !
 ! D11   D(6,7,9,10)             0.0            calculate D2E/DX2 analytically  !
 ! D12   D(6,7,9,16)           180.0            calculate D2E/DX2 analytically  !
 ! D13   D(6,8,10,9)             0.0            calculate D2E/DX2 analytically  !
 ! D14   D(6,8,10,12)          180.0            calculate D2E/DX2 analytically  !
 ! D15   D(11,8,10,9)          180.0            calculate D2E/DX2 analytically  !
 ! D16   D(11,8,10,12)           0.0            calculate D2E/DX2 analytically  !
 ! D17   D(6,8,11,1)             0.0            calculate D2E/DX2 analytically  !
 ! D18   D(6,8,11,13)          180.0            calculate D2E/DX2 analytically  !
 ! D19   D(10,8,11,1)          180.0            calculate D2E/DX2 analytically  !
 ! D20   D(10,8,11,13)           0.0            calculate D2E/DX2 analytically  !
 ! D21   D(7,9,10,8)             0.0            calculate D2E/DX2 analytically  !
 ! D22   D(7,9,10,12)          180.0            calculate D2E/DX2 analytically  !
 ! D23   D(16,9,10,8)          180.0            calculate D2E/DX2 analytically  !
 ! D24   D(16,9,10,12)           0.0            calculate D2E/DX2 analytically  !
 ! D25   D(8,10,12,2)          180.0            calculate D2E/DX2 analytically  !
 ! D26   D(8,10,12,14)           0.0            calculate D2E/DX2 analytically  !
 ! D27   D(9,10,12,2)            0.0            calculate D2E/DX2 analytically  !
 ! D28   D(9,10,12,14)         180.0            calculate D2E/DX2 analytically  !
 ! D29   D(1,11,13,14)         180.0            calculate D2E/DX2 analytically  !
 ! D30   D(1,11,13,15)          -0.0001         calculate D2E/DX2 analytically  !
 ! D31   D(8,11,13,14)           0.0            calculate D2E/DX2 analytically  !
 ! D32   D(8,11,13,15)         179.9999         calculate D2E/DX2 analytically  !
 ! D33   D(2,12,14,3)            0.0            calculate D2E/DX2 analytically  !
 ! D34   D(2,12,14,13)         180.0            calculate D2E/DX2 analytically  !
 ! D35   D(10,12,14,3)         180.0            calculate D2E/DX2 analytically  !
 ! D36   D(10,12,14,13)          0.0            calculate D2E/DX2 analytically  !
 ! D37   D(11,13,14,3)         180.0            calculate D2E/DX2 analytically  !
 ! D38   D(11,13,14,12)          0.0            calculate D2E/DX2 analytically  !
 ! D39   D(15,13,14,3)           0.0001         calculate D2E/DX2 analytically  !
 ! D40   D(15,13,14,12)       -179.9999         calculate D2E/DX2 analytically  !
 --------------------------------------------------------------------------------
 Trust Radius=3.00D-01 FncErr=1.00D-07 GrdErr=1.00D-07 EigMax=2.50D+02 EigMin=1.00D-04
 Number of steps in this run=      2 maximum allowed number of steps=      2.
 GradGradGradGradGradGradGradGradGradGradGradGradGradGradGradGradGradGrad

 Leave Link  103 at Sat Oct 22 11:18:40 2022, MaxMem=   134217728 cpu:               0.0 elap:               0.0
 (Enter /home/emanuele/chem_software/gaussian//gdv/l202.exe)
                          Input orientation:                          
 ---------------------------------------------------------------------
 Center     Atomic      Atomic             Coordinates (Angstroms)
 Number     Number       Type             X           Y           Z
 ---------------------------------------------------------------------
      1          1    20001033       -1.009677    2.505917    0.000000
      2          1    20001033       -0.917442   -2.495849    0.000000
      3          1    20001033       -3.061910   -1.262584    0.000000
      4          1    20001033        3.453102   -0.082375    0.000001
      5          1    20001033        1.993210    2.173240    0.000000
      6          6    20001003        1.620451    1.163136    0.000000
      7          6    20001003        2.382297    0.030455    0.000000
      8          6    20001003        0.248141    0.748383    0.000000
      9          7    20001015        1.561959   -1.077509    0.000000
     10          6    20001003        0.247035   -0.670140    0.000000
     11          6    20001003       -0.979704    1.423874    0.000000
     12          6    20001003       -0.932234   -1.413394    0.000000
     13          6    20001003       -2.151543    0.689333    0.000000
     14          6    20001003       -2.128208   -0.716107    0.000000
     15          1    20001033       -3.104872    1.200941    0.000001
     16          1    20001033        1.876463   -2.029966    0.000000
 ---------------------------------------------------------------------
                    Distance matrix (angstroms):
                    1          2          3          4          5
     1  H    0.000000
     2  H    5.002616   0.000000
     3  H    4.291067   2.473800   0.000000
     4  H    5.159036   4.992646   6.621048   0.000000
     5  H    3.021259   5.502026   6.112211   2.686835   0.000000
     6  C    2.953072   4.452985   5.273388   2.215831   1.076689
     7  C    4.199214   4.155778   5.595654   1.076733   2.177824
     8  C    2.161257   3.447263   3.873038   3.310881   2.252883
     9  N    4.410698   2.856417   4.627571   2.136987   3.279230
    10  C    3.415650   2.165461   3.361563   3.259499   3.336755
    11  C    1.082458   3.920217   3.398917   4.681726   3.065904
    12  C    3.920076   1.082556   2.135009   4.582879   4.628409
    13  C    2.145655   3.415902   2.153775   5.657524   4.402381
    14  C    3.410652   2.152542   1.081867   5.617173   5.033330
    15  H    2.468361   4.295475   2.463900   6.682359   5.189972
    16  H    5.376248   2.832482   4.997640   2.505774   4.204827
                    6          7          8          9         10
     6  C    0.000000
     7  C    1.365055   0.000000
     8  C    1.433616   2.251675   0.000000
     9  N    2.241408   1.378600   2.249444   0.000000
    10  C    2.290671   2.247260   1.418523   1.376581   0.000000
    11  C    2.613195   3.639322   1.401389   3.566086   2.426888
    12  C    3.626942   3.615358   2.463040   2.516708   1.393952
    13  C    3.801635   4.581465   2.400410   4.112399   2.757053
    14  C    4.193328   4.571872   2.791373   3.707822   2.375688
    15  H    4.725474   5.610620   3.383416   5.193327   3.838779
    16  H    3.203349   2.121604   3.220350   1.003039   2.122301
                   11         12         13         14         15
    11  C    0.000000
    12  C    2.837665   0.000000
    13  C    1.383025   2.430674   0.000000
    14  C    2.428699   1.384400   1.405634   0.000000
    15  H    2.136829   3.399280   1.081933   2.151498   0.000000
    16  H    4.481819   2.875576   4.859981   4.214690   5.937378
                   16
    16  H    0.000000
 Symmetry turned off by external request.
 Stoichiometry    C8H7N
 Framework group  C1[X(C8H7N)]
 Deg. of freedom    42
 Full point group                 C1      NOp   1
 Rotational constants (GHZ):           3.9068458           1.6424327           1.1563181
 Leave Link  202 at Sat Oct 22 11:18:40 2022, MaxMem=   134217728 cpu:               0.0 elap:               0.0
 (Enter /home/emanuele/chem_software/gaussian//gdv/l301.exe)
 Standard basis: Dummy (5D, 7F)
    16 basis functions,    16 primitive gaussians,    16 cartesian basis functions
    12 alpha electrons       12 beta electrons
       nuclear repulsion energy        57.2986836425 Hartrees.
 IExCor=       0 DFT=F Ex=HF Corr=None N6=None ScaHFX=  1.000000
 ScaDFX=  1.000000  1.000000  1.000000  1.000000  1.000000  0.000000
 ScaDFX=  0.000000  0.000000  0.000000  0.000000  0.000000  0.000000
 IRadAn=      5 IRanWt=     -1 IRanGd=            0 ICorTp=0 IEmpDi=  4
 NAtoms=   16 NActive=   16 NUniq=   16 SFac= 1.00D+00 NAtFMM=   60 NAOKFM=F Big=F
 Integral buffers will be    131072 words long.
 Raffenetti 1 integral format.
 Two-electron integral symmetry is turned off.
 Leave Link  301 at Sat Oct 22 11:18:40 2022, MaxMem=   134217728 cpu:               0.0 elap:               0.0
 (Enter /home/emanuele/chem_software/gaussian//gdv/l402.exe)
 AMBER calculation of energy, first and second derivatives.
 ****************************
 MOLECULAR MECHANICS FUNCTION
 ****************************
 Atomic parameters:
 Center  VDW
      1 1.4590 0.0150000
      2 1.4590 0.0150000
      3 1.4590 0.0150000
      4 1.4590 0.0150000
      5 1.4590 0.0150000
      6 1.9080 0.0860000
      7 1.9080 0.0860000
      8 1.9080 0.0860000
      9 1.8240 0.1700000
     10 1.9080 0.0860000
     11 1.9080 0.0860000
     12 1.9080 0.0860000
     13 1.9080 0.0860000
     14 1.9080 0.0860000
     15 1.4590 0.0150000
     16 1.4590 0.0150000
 Molecular mechanics terms:
 NBDir 3 1      0      0
 HrmStr1 11- 1    0.00 1.0820
 HrmStr1 12- 2    0.00 1.0820
 HrmStr1 14- 3    0.00 1.0820
 HrmStr1  7- 4    0.00 1.0820
 HrmStr1  6- 5    0.00 1.0820
 HrmStr1  6- 7    0.00 1.3980
 HrmStr1  6- 8    0.00 1.3980
 HrmStr1  7- 9    0.00 1.3790
 HrmStr1  8-10    0.00 1.3980
 HrmStr1  8-11    0.00 1.3980
 HrmStr1 10- 9    0.00 1.3790
 HrmStr1  9-16    0.00 1.0800
 HrmStr1 10-12    0.00 1.3980
 HrmStr1 11-13    0.00 1.3980
 HrmStr1 12-14    0.00 1.3980
 HrmStr1 13-14    0.00 1.3980
 HrmStr1 13-15    0.00 1.0820
 HrmBnd1  8-11- 1   0.00   1.00
 HrmBnd1 13-11- 1   0.00   1.00
 HrmBnd1 10-12- 2   0.00   1.00
 HrmBnd1 14-12- 2   0.00   1.00
 HrmBnd1 12-14- 3   0.00   1.00
 HrmBnd1 13-14- 3   0.00   1.00
 HrmBnd1  6- 7- 4   0.00   1.00
 HrmBnd1  4- 7- 9   0.00   1.00
 HrmBnd1  7- 6- 5   0.00   1.00
 HrmBnd1  8- 6- 5   0.00   1.00
 HrmBnd1  6- 7- 9   0.00   1.00
 HrmBnd1  6- 8-10   0.00   1.00
 HrmBnd1  6- 8-11   0.00   1.00
 HrmBnd1  7- 6- 8   0.00   1.00
 HrmBnd1  7- 9-10   0.00   1.00
 HrmBnd1  7- 9-16   0.00   1.00
 HrmBnd1  8-10- 9   0.00   1.00
 HrmBnd1  8-10-12   0.00   1.00
 HrmBnd1  8-11-13   0.00   1.00
 HrmBnd1 12-10- 9   0.00   1.00
 HrmBnd1 10- 8-11   0.00   1.00
 HrmBnd1 10- 9-16   0.00   1.00
 HrmBnd1 10-12-14   0.00   1.00
 HrmBnd1 11-13-14   0.00   1.00
 HrmBnd1 11-13-15   0.00   1.00
 HrmBnd1 12-14-13   0.00   1.00
 HrmBnd1 14-13-15   0.00   1.00
 NBPair 11- 1 3 1      0      0 -1.000 -1.000
 NBPair 12- 2 3 1      0      0 -1.000 -1.000
 NBPair 14- 3 3 1      0      0 -1.000 -1.000
 NBPair  7- 4 3 1      0      0 -1.000 -1.000
 NBPair  6- 5 3 1      0      0 -1.000 -1.000
 NBPair  7- 5 3 1      0      0 -1.000 -1.000
 NBPair  8- 5 3 1      0      0 -1.000 -1.000
 NBPair  7- 6 3 1      0      0 -1.000 -1.000
 NBPair  5- 4 3 1      0      0 -0.500 -0.167
 NBPair  9- 5 3 1      0      0 -0.500 -0.167
 NBPair  8- 7 3 1      0      0 -1.000 -1.000
 NBPair  8- 4 3 1      0      0 -0.500 -0.167
 NBPair  8- 6 3 1      0      0 -1.000 -1.000
 NBPair 10- 5 3 1      0      0 -0.500 -0.167
 NBPair 11- 5 3 1      0      0 -0.500 -0.167
 NBPair 11- 7 3 1      0      0 -0.500 -0.167
 NBPair  6- 4 3 1      0      0 -1.000 -1.000
 NBPair  9- 4 3 1      0      0 -1.000 -1.000
 NBPair  9- 6 3 1      0      0 -1.000 -1.000
 NBPair  9- 7 3 1      0      0 -1.000 -1.000
 NBPair 10- 4 3 1      0      0 -0.500 -0.167
 NBPair 16- 4 3 1      0      0 -0.500 -0.167
 NBPair 16- 6 3 1      0      0 -0.500 -0.167
 NBPair 10- 6 3 1      0      0 -1.000 -1.000
 NBPair 11- 6 3 1      0      0 -1.000 -1.000
 NBPair 10- 8 3 1      0      0 -1.000 -1.000
 NBPair 12- 6 3 1      0      0 -0.500 -0.167
 NBPair 11-10 3 1      0      0 -1.000 -1.000
 NBPair 11- 9 3 1      0      0 -0.500 -0.167
 NBPair 12-11 3 1      0      0 -0.500 -0.167
 NBPair 11- 8 3 1      0      0 -1.000 -1.000
 NBPair  6- 1 3 1      0      0 -0.500 -0.167
 NBPair 13- 6 3 1      0      0 -0.500 -0.167
 NBPair 10- 1 3 1      0      0 -0.500 -0.167
 NBPair 13-10 3 1      0      0 -0.500 -0.167
 NBPair 10- 7 3 1      0      0 -1.000 -1.000
 NBPair 16- 7 3 1      0      0 -1.000 -1.000
 NBPair 10- 9 3 1      0      0 -1.000 -1.000
 NBPair 12- 7 3 1      0      0 -0.500 -0.167
 NBPair 16-10 3 1      0      0 -1.000 -1.000
 NBPair 16- 8 3 1      0      0 -0.500 -0.167
 NBPair 16-12 3 1      0      0 -0.500 -0.167
 NBPair 16- 9 3 1      0      0 -1.000 -1.000
 NBPair  9- 8 3 1      0      0 -1.000 -1.000
 NBPair 12- 8 3 1      0      0 -1.000 -1.000
 NBPair 12- 9 3 1      0      0 -1.000 -1.000
 NBPair 12-10 3 1      0      0 -1.000 -1.000
 NBPair  8- 2 3 1      0      0 -0.500 -0.167
 NBPair 14- 8 3 1      0      0 -0.500 -0.167
 NBPair  9- 2 3 1      0      0 -0.500 -0.167
 NBPair 14- 9 3 1      0      0 -0.500 -0.167
 NBPair  8- 1 3 1      0      0 -1.000 -1.000
 NBPair 13- 1 3 1      0      0 -1.000 -1.000
 NBPair 13- 8 3 1      0      0 -1.000 -1.000
 NBPair 13-11 3 1      0      0 -1.000 -1.000
 NBPair 14- 1 3 1      0      0 -0.500 -0.167
 NBPair 15- 1 3 1      0      0 -0.500 -0.167
 NBPair 15- 8 3 1      0      0 -0.500 -0.167
 NBPair 10- 2 3 1      0      0 -1.000 -1.000
 NBPair 14- 2 3 1      0      0 -1.000 -1.000
 NBPair 14-10 3 1      0      0 -1.000 -1.000
 NBPair 14-12 3 1      0      0 -1.000 -1.000
 NBPair  3- 2 3 1      0      0 -0.500 -0.167
 NBPair 13- 2 3 1      0      0 -0.500 -0.167
 NBPair 10- 3 3 1      0      0 -0.500 -0.167
 NBPair 14-11 3 1      0      0 -1.000 -1.000
 NBPair 15-11 3 1      0      0 -1.000 -1.000
 NBPair 14-13 3 1      0      0 -1.000 -1.000
 NBPair 11- 3 3 1      0      0 -0.500 -0.167
 NBPair 15-14 3 1      0      0 -1.000 -1.000
 NBPair 15- 3 3 1      0      0 -0.500 -0.167
 NBPair 15-12 3 1      0      0 -0.500 -0.167
 NBPair 15-13 3 1      0      0 -1.000 -1.000
 NBPair 12- 3 3 1      0      0 -1.000 -1.000
 NBPair 13- 3 3 1      0      0 -1.000 -1.000
 NBPair 13-12 3 1      0      0 -1.000 -1.000
 Energy per function type:
 Direct Coulomb + vdW (small)                           0.027423719
 Direct Coulomb (large)                                -0.084921774
 Direct vdW (large)                                   659.234812090
 Non-direct Coulomb + vdW (small)                      -0.026913347
 Non-direct Coulomb (large)                             0.084921774
 Non-direct vdW (large)                              -659.234812090
 Energy per function class:
        Coulomb              -0.003890841
    Vanderwaals               0.004401213
 Energy=    5.103715821E-04 NIter=   0.
 Dipole moment=       0.538599      -0.476262       0.000000
 Leave Link  402 at Sat Oct 22 11:18:40 2022, MaxMem=   134217728 cpu:               0.0 elap:               0.0
 (Enter /home/emanuele/chem_software/gaussian//gdv/l716.exe)
 Dipole        = 5.38599394D-01-4.76261778D-01 3.80220455D-07
 Full mass-weighted force constant matrix:
 Low frequencies --- -129.7043 -117.2579  -90.4558  -78.0128  -77.3855  -74.6859
 Low frequencies ---  -72.6914  -68.9428  -68.4555
 ******   19 imaginary frequencies (negative Signs) ****** 
 Diagonal vibrational polarizability:
     1794.9014928    7898.4597458     733.8383758
 Harmonic frequencies (cm**-1), IR intensities (KM/Mole), Raman scattering
 activities (A**4/AMU), depolarization ratios for plane and unpolarized
 incident light, reduced masses (AMU), force constants (mDyne/A),
 and normal coordinates:
                      1                      2                      3
                      A                      A                      A
 Frequencies --   -129.1788              -117.0031               -90.4516
 Red. masses --      1.0171                 1.0391                 1.0111
 Frc consts  --      0.0100                 0.0084                 0.0049
 IR Inten    --      8.9238                38.5858                 0.7943
  Atom  AN      X      Y      Z        X      Y      Z        X      Y      Z
     1   1    -0.00   0.00   0.01    -0.02   0.03   0.00     0.00   0.00   0.23
     2   1     0.00  -0.00   0.23    -0.06  -0.30   0.00     0.00  -0.00  -0.36
     3   1     0.00  -0.00   0.01     0.04  -0.01   0.00    -0.00  -0.00   0.66
     4   1    -0.00  -0.00   0.76     0.49  -0.16  -0.00    -0.00   0.00   0.16
     5   1     0.00  -0.00  -0.05     0.07  -0.01   0.00     0.00  -0.00  -0.08
     6   6     0.00  -0.00  -0.02    -0.01  -0.02   0.00     0.00  -0.00   0.00
     7   6     0.00   0.00  -0.01    -0.00   0.01   0.00     0.00  -0.00  -0.00
     8   6    -0.00   0.00  -0.01    -0.00   0.01   0.00    -0.00   0.00  -0.00
     9   7     0.00  -0.00   0.00    -0.00  -0.01   0.00     0.00  -0.00  -0.01
    10   6     0.00   0.00  -0.00     0.02   0.01   0.00    -0.00  -0.00  -0.01
    11   6     0.00   0.00  -0.00     0.01   0.00  -0.00     0.00   0.00   0.01
    12   6    -0.00   0.00   0.00    -0.03   0.01   0.00    -0.00   0.00  -0.00
    13   6     0.00  -0.00   0.01     0.00  -0.01  -0.00     0.00   0.00   0.00
    14   6     0.00  -0.00   0.01     0.01  -0.01  -0.00     0.00  -0.00   0.01
    15   1     0.00  -0.00   0.02    -0.03  -0.00  -0.00    -0.00   0.00  -0.59
    16   1     0.00   0.00  -0.61    -0.41   0.68  -0.00    -0.00   0.00   0.07
                      4                      5                      6
                      A                      A                      A
 Frequencies --    -78.0126               -77.3303               -71.1519
 Red. masses --      1.0579                 1.0373                10.5976
 Frc consts  --      0.0038                 0.0037                 0.0316
 IR Inten    --      4.2518                 7.6970                 2.0226
  Atom  AN      X      Y      Z        X      Y      Z        X      Y      Z
     1   1    -0.07  -0.28  -0.00     0.00  -0.00   0.34     0.02   0.08   0.00
     2   1     0.10  -0.45  -0.00     0.00  -0.00   0.62    -0.00   0.05   0.00
     3   1     0.49   0.21  -0.00     0.00   0.00  -0.07     0.10   0.09  -0.00
     4   1    -0.22   0.30   0.00    -0.00   0.00  -0.39     0.05  -0.12   0.00
     5   1    -0.04   0.28  -0.00    -0.00   0.00   0.17     0.18   0.11   0.00
     6   6     0.02  -0.01   0.00     0.00   0.00  -0.01    -0.01  -0.01   0.00
     7   6     0.00  -0.00   0.00     0.00   0.00  -0.00     0.00  -0.04   0.00
     8   6    -0.00  -0.00  -0.00    -0.00  -0.00  -0.00     0.18  -0.27   0.00
     9   7    -0.03  -0.04  -0.00    -0.00  -0.00   0.03    -0.03  -0.03   0.00
    10   6     0.00  -0.00  -0.00    -0.00  -0.00   0.00     0.26   0.49  -0.00
    11   6     0.01   0.01  -0.00    -0.00  -0.00   0.01     0.06   0.02  -0.00
    12   6     0.01   0.01   0.00     0.00  -0.00  -0.03    -0.04   0.01   0.00
    13   6     0.01   0.01   0.00     0.00   0.00   0.01    -0.29  -0.48   0.00
    14   6    -0.01   0.01   0.00    -0.00   0.00  -0.01    -0.19   0.32  -0.00
    15   1    -0.39   0.19   0.00    -0.00   0.00  -0.50     0.05   0.05  -0.00
    16   1     0.09   0.07   0.00     0.00  -0.00  -0.27     0.07  -0.17   0.00
                      7                      8                      9
                      A                      A                      A
 Frequencies --    -70.0380               -65.9605               -65.4721
 Red. masses --     10.7257                 1.1506                 1.3958
 Frc consts  --      0.0310                 0.0029                 0.0035
 IR Inten    --      0.2539                10.2206                 1.0176
  Atom  AN      X      Y      Z        X      Y      Z        X      Y      Z
     1   1    -0.00  -0.00  -0.00    -0.05   0.23   0.00    -0.00  -0.00  -0.52
     2   1     0.00  -0.00  -0.13     0.05  -0.16   0.00     0.00  -0.00   0.13
     3   1     0.00   0.00   0.12    -0.15  -0.38  -0.00    -0.00  -0.00   0.61
     4   1     0.00  -0.00  -0.11    -0.26   0.38  -0.00    -0.00   0.00  -0.24
     5   1    -0.00  -0.00  -0.05     0.00   0.43  -0.00    -0.00   0.00   0.33
     6   6     0.00   0.00  -0.01    -0.02  -0.00   0.00    -0.00   0.00  -0.05
     7   6     0.00   0.00  -0.08     0.00  -0.00   0.00     0.00   0.00  -0.03
     8   6     0.00  -0.00  -0.17     0.00   0.00  -0.00     0.00  -0.00   0.12
     9   7    -0.00   0.00  -0.11    -0.01  -0.07  -0.00    -0.00  -0.00   0.03
    10   6     0.00   0.00   0.59    -0.00   0.00  -0.00    -0.00  -0.00   0.04
    11   6    -0.00  -0.00   0.34     0.07   0.01   0.00     0.00   0.00   0.01
    12   6     0.00  -0.00  -0.26    -0.04   0.01  -0.00     0.00   0.00  -0.01
    13   6    -0.00  -0.00  -0.49     0.00   0.02  -0.00     0.00   0.00  -0.02
    14   6    -0.00   0.00   0.24    -0.00   0.01   0.00    -0.00   0.00  -0.12
    15   1    -0.00   0.00   0.16     0.38  -0.38  -0.00     0.00  -0.00   0.23
    16   1     0.00  -0.00  -0.22     0.02   0.19   0.00     0.00   0.00  -0.28
                     10                     11                     12
                      A                      A                      A
 Frequencies --    -64.1863               -60.4622               -50.9487
 Red. masses --      5.6151                 3.1537                 1.2577
 Frc consts  --      0.0136                 0.0068                 0.0019
 IR Inten    --      2.1690                 1.4350                 9.8273
  Atom  AN      X      Y      Z        X      Y      Z        X      Y      Z
     1   1     0.09  -0.13  -0.00     0.00   0.00   0.55     0.10   0.59  -0.00
     2   1    -0.13   0.33   0.00     0.00  -0.00  -0.01     0.03  -0.40   0.00
     3   1    -0.12   0.25   0.00     0.00   0.00  -0.35     0.37   0.19   0.00
     4   1    -0.24  -0.08  -0.00    -0.00   0.00   0.09    -0.02  -0.12  -0.00
     5   1     0.27   0.22   0.00     0.00  -0.00  -0.59    -0.04  -0.24   0.00
     6   6     0.02  -0.06  -0.00    -0.00   0.00  -0.05    -0.02   0.05  -0.00
     7   6     0.00  -0.10  -0.00     0.00  -0.00  -0.12     0.01  -0.04   0.00
     8   6    -0.19   0.31   0.00    -0.00   0.00   0.28    -0.03   0.04  -0.00
     9   7     0.02  -0.05   0.00     0.00  -0.00  -0.10    -0.04  -0.05   0.00
    10   6     0.07   0.18   0.00     0.00   0.00   0.17     0.00   0.05  -0.00
    11   6     0.22   0.05   0.00     0.00   0.00  -0.05    -0.05  -0.01   0.00
    12   6    -0.19   0.04  -0.00    -0.00  -0.00   0.14     0.06  -0.01  -0.00
    13   6    -0.10  -0.13  -0.00    -0.00  -0.00  -0.05    -0.02   0.01  -0.00
    14   6     0.18  -0.28  -0.00     0.00  -0.00  -0.18     0.02  -0.04  -0.00
    15   1    -0.18   0.28   0.00     0.00  -0.00  -0.11     0.42   0.09  -0.00
    16   1    -0.11  -0.20  -0.00    -0.00  -0.00   0.11     0.04  -0.17  -0.00
                     13                     14                     15
                      A                      A                      A
 Frequencies --    -38.8665               -34.4650               -25.5841
 Red. masses --      5.1686                 1.6867                 1.2934
 Frc consts  --      0.0046                 0.0012                 0.0005
 IR Inten    --      0.7086                 0.0054                 0.0222
  Atom  AN      X      Y      Z        X      Y      Z        X      Y      Z
     1   1    -0.07   0.44  -0.00    -0.00   0.00   0.43     0.00  -0.00   0.53
     2   1     0.01  -0.04   0.00    -0.00   0.00  -0.29     0.00  -0.00   0.10
     3   1     0.30   0.36   0.00     0.00   0.00   0.04     0.00   0.00   0.37
     4   1    -0.10  -0.15   0.00    -0.00  -0.00  -0.12    -0.00   0.00  -0.16
     5   1     0.09  -0.17  -0.00     0.00   0.00   0.70    -0.00  -0.00  -0.46
     6   6    -0.18   0.23  -0.00    -0.00   0.00   0.09     0.00  -0.00   0.03
     7   6     0.00   0.14   0.00     0.00   0.00  -0.04    -0.00  -0.00   0.01
     8   6     0.06  -0.20   0.00    -0.00  -0.00  -0.03    -0.00   0.00  -0.01
     9   7     0.11   0.05   0.00     0.00  -0.00  -0.05     0.00   0.00   0.10
    10   6    -0.05  -0.16  -0.00    -0.00   0.00   0.03     0.00  -0.00  -0.08
    11   6     0.32  -0.02   0.00     0.00  -0.00  -0.16    -0.00   0.00  -0.00
    12   6    -0.28  -0.04  -0.00    -0.00  -0.00   0.12    -0.00   0.00  -0.03
    13   6     0.03  -0.02   0.00    -0.00   0.00  -0.06    -0.00  -0.00  -0.08
    14   6    -0.04  -0.04  -0.00    -0.00  -0.00   0.05    -0.00   0.00  -0.01
    15   1    -0.04   0.30  -0.00    -0.00   0.00   0.21     0.00  -0.00   0.55
    16   1    -0.08  -0.18   0.00     0.00  -0.00  -0.33     0.00   0.00  -0.11
                     16                     17                     18
                      A                      A                      A
 Frequencies --    -17.4407               -16.0296               -14.3386
 Red. masses --      3.0157                 4.1162                 2.2966
 Frc consts  --      0.0005                 0.0006                 0.0003
 IR Inten    --      0.0187                 3.1322                44.8343
  Atom  AN      X      Y      Z        X      Y      Z        X      Y      Z
     1   1    -0.00   0.00   0.26     0.29   0.30   0.00    -0.03  -0.37   0.00
     2   1    -0.00   0.00  -0.42     0.15  -0.14  -0.00     0.10  -0.36  -0.00
     3   1    -0.00   0.00  -0.36     0.35   0.19  -0.00     0.07  -0.39  -0.00
     4   1     0.00  -0.00   0.20    -0.15   0.31   0.00     0.12  -0.16   0.00
     5   1     0.00   0.00   0.61    -0.08  -0.00   0.00    -0.12  -0.42   0.00
     6   6    -0.00   0.00  -0.21     0.07  -0.34  -0.00     0.11   0.10  -0.00
     7   6     0.00   0.00  -0.13    -0.06   0.01  -0.00     0.03  -0.03  -0.00
     8   6     0.00   0.00   0.07    -0.01  -0.10   0.00    -0.05  -0.04   0.00
     9   7     0.00  -0.00   0.21     0.04   0.32   0.00    -0.09   0.04   0.00
    10   6     0.00   0.00  -0.13     0.01  -0.03  -0.00     0.00  -0.07  -0.00
    11   6    -0.00  -0.00   0.18    -0.03   0.06   0.00     0.06   0.17   0.00
    12   6     0.00  -0.00   0.04    -0.10   0.06   0.00    -0.01   0.17   0.00
    13   6     0.00   0.00  -0.12     0.01  -0.03  -0.00    -0.01  -0.09  -0.00
    14   6     0.00   0.00   0.02    -0.02  -0.08   0.00    -0.04  -0.06   0.00
    15   1    -0.00   0.00  -0.07     0.46   0.11  -0.00     0.03  -0.41  -0.00
    16   1    -0.00   0.00   0.14     0.10   0.10   0.00     0.13  -0.19   0.00
                     19                     20                     21
                      A                      A                      A
 Frequencies --     -4.4755                 3.7649                 6.0436
 Red. masses --      8.7123                 4.3783                 9.6511
 Frc consts  --      0.0001                 0.0000                 0.0002
 IR Inten    --      0.1733                 0.0011                 0.0006
  Atom  AN      X      Y      Z        X      Y      Z        X      Y      Z
     1   1     0.01  -0.24   0.00    -0.00  -0.00  -0.52     0.00   0.00  -0.32
     2   1    -0.03   0.04  -0.00    -0.00   0.00   0.48    -0.00  -0.00   0.23
     3   1    -0.10  -0.13   0.00    -0.00  -0.00   0.07     0.00   0.00   0.01
     4   1     0.16  -0.27  -0.00     0.00  -0.00   0.15    -0.00   0.00  -0.15
     5   1     0.26   0.12  -0.00     0.00   0.00  -0.15    -0.00   0.00  -0.10
     6   6     0.05  -0.04  -0.00    -0.00   0.00   0.36    -0.00  -0.00  -0.13
     7   6     0.07   0.18   0.00     0.00   0.00  -0.31    -0.00   0.00   0.34
     8   6    -0.06  -0.40  -0.00     0.00  -0.00   0.02     0.00   0.00   0.43
     9   7    -0.05  -0.08  -0.00    -0.00  -0.00  -0.00     0.00   0.00  -0.27
    10   6    -0.03   0.40   0.00    -0.00   0.00  -0.16     0.00  -0.00  -0.31
    11   6     0.05   0.01  -0.00     0.00  -0.00   0.09    -0.00   0.00  -0.05
    12   6     0.07   0.00  -0.00     0.00  -0.00   0.14    -0.00   0.00  -0.01
    13   6    -0.03   0.40   0.00    -0.00   0.00  -0.17     0.00  -0.00  -0.33
    14   6    -0.07  -0.39  -0.00    -0.00  -0.00   0.04     0.00   0.00   0.42
    15   1    -0.10  -0.10   0.00    -0.00   0.00  -0.28     0.00   0.00  -0.17
    16   1    -0.00  -0.13  -0.00    -0.00  -0.00   0.26    -0.00   0.00  -0.11
                     22                     23                     24
                      A                      A                      A
 Frequencies --     11.7436                14.1403                19.6895
 Red. masses --      7.1331                10.5563                 3.0070
 Frc consts  --      0.0006                 0.0012                 0.0007
 IR Inten    --      0.6374                 0.1671                19.1001
  Atom  AN      X      Y      Z        X      Y      Z        X      Y      Z
     1   1     0.31   0.03   0.00     0.00   0.00   0.11    -0.11  -0.24   0.00
     2   1    -0.16  -0.01   0.00     0.00   0.00   0.21     0.15  -0.36  -0.00
     3   1    -0.07   0.18  -0.00     0.00   0.00   0.15     0.19  -0.33  -0.00
     4   1    -0.01  -0.28  -0.00    -0.00   0.00  -0.16     0.03  -0.15  -0.00
     5   1     0.22  -0.08  -0.00    -0.00   0.00   0.00    -0.16  -0.46   0.00
     6   6     0.13  -0.24  -0.00    -0.00   0.00  -0.10     0.00  -0.08  -0.00
     7   6     0.07   0.57   0.00    -0.00  -0.00   0.33    -0.13   0.09   0.00
     8   6    -0.10   0.10  -0.00     0.00   0.00  -0.32     0.20   0.08  -0.00
     9   7    -0.10  -0.21  -0.00     0.00   0.00  -0.25     0.03  -0.01   0.00
    10   6    -0.03  -0.14  -0.00    -0.00  -0.00  -0.11    -0.11   0.08   0.00
    11   6     0.08   0.02   0.00    -0.00   0.00   0.40     0.02  -0.05  -0.00
    12   6     0.06   0.01   0.00    -0.00   0.00   0.53    -0.11  -0.06   0.00
    13   6    -0.03  -0.14  -0.00    -0.00  -0.00  -0.15    -0.12   0.07  -0.00
    14   6    -0.09   0.08  -0.00     0.00   0.00  -0.31     0.21   0.06   0.00
    15   1     0.29   0.17  -0.00     0.00   0.00   0.08    -0.06  -0.34   0.00
    16   1    -0.05  -0.21   0.00    -0.00   0.00  -0.18     0.13  -0.24  -0.00
                     25                     26                     27
                      A                      A                      A
 Frequencies --     20.6966                21.9115                35.8213
 Red. masses --      3.6613                10.8929                 6.4347
 Frc consts  --      0.0009                 0.0031                 0.0049
 IR Inten    --     12.1590                 0.6029                 0.5154
  Atom  AN      X      Y      Z        X      Y      Z        X      Y      Z
     1   1     0.18   0.12   0.00    -0.03   0.04  -0.00    -0.32   0.06   0.00
     2   1    -0.26   0.18   0.00    -0.00  -0.07  -0.00    -0.07   0.08   0.00
     3   1    -0.25   0.33  -0.00    -0.03   0.04  -0.00    -0.03  -0.04   0.00
     4   1    -0.21   0.07  -0.00    -0.03   0.11   0.00    -0.17   0.02  -0.00
     5   1     0.16   0.42  -0.00     0.06   0.05   0.00    -0.44  -0.29   0.00
     6   6     0.05   0.08   0.00    -0.10  -0.08   0.00    -0.34  -0.15  -0.00
     7   6    -0.10   0.02  -0.00     0.59  -0.12  -0.00     0.37   0.06   0.00
     8   6     0.21  -0.13   0.00     0.03   0.02   0.00     0.12  -0.00  -0.00
     9   7    -0.06  -0.07   0.00     0.03   0.13   0.00    -0.16  -0.05  -0.00
    10   6    -0.08  -0.09   0.00    -0.47  -0.04  -0.00     0.20   0.02   0.00
    11   6    -0.14   0.14  -0.00     0.15   0.00   0.00    -0.17   0.10  -0.00
    12   6     0.04   0.15  -0.00     0.22   0.00   0.00    -0.18   0.10   0.00
    13   6    -0.08  -0.09   0.00    -0.45  -0.01  -0.00     0.18  -0.00   0.00
    14   6     0.21  -0.12  -0.00     0.02   0.04   0.00     0.13  -0.03  -0.00
    15   1     0.08   0.36   0.00    -0.10   0.09  -0.00    -0.22  -0.09   0.00
    16   1    -0.22   0.12   0.00    -0.06   0.23   0.00    -0.04  -0.17  -0.00
                     28                     29                     30
                      A                      A                      A
 Frequencies --     41.6955                50.7236                63.1947
 Red. masses --      6.8531                10.3551                 1.1935
 Frc consts  --      0.0070                 0.0157                 0.0028
 IR Inten    --      0.2784                 2.4948                31.5888
  Atom  AN      X      Y      Z        X      Y      Z        X      Y      Z
     1   1     0.32  -0.15   0.00    -0.13   0.24  -0.00     0.21  -0.32   0.00
     2   1    -0.21  -0.19   0.00     0.22  -0.06   0.00    -0.03  -0.27  -0.00
     3   1    -0.13   0.07   0.00     0.10  -0.08  -0.00     0.07  -0.07  -0.00
     4   1    -0.25   0.01  -0.00     0.04   0.03   0.00    -0.08  -0.39  -0.00
     5   1     0.06   0.25  -0.00    -0.12  -0.17   0.00     0.59   0.33  -0.00
     6   6     0.37   0.21  -0.00     0.21   0.02  -0.00    -0.09   0.00   0.00
     7   6     0.25   0.03   0.00     0.17   0.01  -0.00     0.01  -0.01   0.00
     8   6     0.04   0.01  -0.00    -0.10  -0.02  -0.00    -0.00   0.02   0.00
     9   7    -0.22   0.14  -0.00     0.57  -0.25  -0.00     0.04   0.04   0.00
    10   6     0.02   0.02   0.00    -0.08   0.01  -0.00     0.01  -0.01   0.00
    11   6    -0.16  -0.22  -0.00    -0.37   0.13   0.00    -0.05   0.01   0.00
    12   6    -0.30  -0.22   0.00    -0.31   0.15  -0.00    -0.00   0.01  -0.00
    13   6     0.01   0.00   0.00    -0.08  -0.00  -0.00     0.02   0.01   0.00
    14   6     0.03   0.01  -0.00    -0.11   0.01   0.00    -0.01   0.02  -0.00
    15   1     0.29   0.05  -0.00    -0.16  -0.01   0.00     0.20  -0.11  -0.00
    16   1    -0.20  -0.02  -0.00     0.09  -0.03   0.00    -0.12  -0.26   0.00
                     31                     32                     33
                      A                      A                      A
 Frequencies --     81.6279                82.3619                97.6152
 Red. masses --      1.1074                 1.1186                 1.1004
 Frc consts  --      0.0043                 0.0045                 0.0062
 IR Inten    --    157.4916                93.7621                 9.5619
  Atom  AN      X      Y      Z        X      Y      Z        X      Y      Z
     1   1     0.00  -0.00   0.25     0.05  -0.02  -0.00    -0.50   0.51  -0.00
     2   1     0.00   0.00   0.46     0.35   0.42  -0.00     0.04   0.04   0.00
     3   1     0.00  -0.00   0.23     0.41   0.01  -0.00     0.12  -0.16   0.00
     4   1     0.00   0.00   0.35     0.52   0.04  -0.00    -0.06  -0.31   0.00
     5   1     0.00   0.00   0.36     0.17   0.24  -0.00     0.22   0.24  -0.00
     6   6    -0.00   0.00  -0.03    -0.01   0.01   0.00     0.07  -0.03   0.00
     7   6     0.00  -0.00  -0.01     0.01  -0.01   0.00    -0.00   0.00  -0.00
     8   6     0.00   0.00  -0.01     0.01   0.01   0.00     0.01   0.00   0.00
     9   7    -0.00  -0.00  -0.07    -0.06  -0.03   0.00    -0.03   0.03  -0.00
    10   6    -0.00  -0.00   0.00    -0.03  -0.02  -0.00    -0.00  -0.02  -0.00
    11   6    -0.00   0.00  -0.01    -0.02   0.00   0.00    -0.01   0.01   0.00
    12   6    -0.00   0.00  -0.04    -0.05   0.00   0.00     0.01   0.00  -0.00
    13   6    -0.00   0.00  -0.00    -0.02   0.00   0.00     0.01  -0.01   0.00
    14   6     0.00  -0.00  -0.02     0.01  -0.00   0.00     0.01   0.00  -0.00
    15   1     0.00  -0.00   0.20     0.13  -0.08  -0.00    -0.42  -0.17   0.00
    16   1     0.00  -0.00   0.61     0.38   0.03  -0.00    -0.11  -0.14   0.00
                     34                     35                     36
                      A                      A                      A
 Frequencies --    125.1087               134.9131               164.9458
 Red. masses --      1.0213                 1.0202                 1.0129
 Frc consts  --      0.0094                 0.0109                 0.0162
 IR Inten    --      9.4974                22.1228                 0.1329
  Atom  AN      X      Y      Z        X      Y      Z        X      Y      Z
     1   1     0.01   0.08  -0.00    -0.02  -0.17   0.00    -0.53  -0.16   0.00
     2   1     0.08   0.05  -0.00     0.05   0.42   0.00    -0.36  -0.05   0.00
     3   1    -0.02  -0.09  -0.00     0.49   0.05   0.00    -0.04   0.54   0.00
     4   1    -0.17   0.38  -0.00    -0.41  -0.13  -0.00     0.15   0.16   0.00
     5   1     0.70  -0.50   0.00    -0.10  -0.13   0.00     0.13  -0.04   0.00
     6   6    -0.00   0.01  -0.00     0.01   0.01  -0.00     0.01  -0.01   0.00
     7   6     0.00   0.00   0.00    -0.00   0.00  -0.00    -0.00   0.00  -0.00
     8   6     0.00  -0.00  -0.00    -0.00  -0.00   0.00     0.00   0.00   0.00
     9   7    -0.02  -0.01   0.00     0.00  -0.02  -0.00     0.01   0.00  -0.00
    10   6     0.00   0.00   0.00    -0.00   0.01   0.00    -0.00  -0.00   0.00
    11   6    -0.02  -0.00  -0.00    -0.00  -0.00  -0.00     0.00   0.00  -0.00
    12   6    -0.00  -0.00   0.00     0.02   0.01  -0.00    -0.00  -0.00   0.00
    13   6     0.00  -0.00  -0.00    -0.00   0.00   0.00    -0.00   0.00   0.00
    14   6     0.00  -0.00   0.00    -0.00   0.00  -0.00     0.00  -0.00   0.00
    15   1    -0.14   0.01   0.00     0.17  -0.27  -0.00     0.25  -0.34  -0.00
    16   1     0.06   0.19  -0.00    -0.45   0.19   0.00     0.11  -0.06  -0.00
                     37                     38                     39
                      A                      A                      A
 Frequencies --    200.9605               222.1351               230.5115
 Red. masses --      1.0109                 1.0093                11.8054
 Frc consts  --      0.0241                 0.0293                 0.3696
 IR Inten    --      1.5452                 3.3298                 0.1523
  Atom  AN      X      Y      Z        X      Y      Z        X      Y      Z
     1   1    -0.49  -0.18   0.00     0.29   0.10  -0.00     0.02   0.04  -0.00
     2   1     0.56  -0.06   0.00     0.45  -0.08   0.00    -0.03  -0.03   0.00
     3   1    -0.21   0.02  -0.00    -0.29   0.50   0.00    -0.02   0.01   0.00
     4   1    -0.17  -0.20  -0.00    -0.14  -0.18  -0.00     0.03  -0.01   0.00
     5   1     0.03  -0.03   0.00    -0.03  -0.00  -0.00     0.03   0.03  -0.00
     6   6     0.01  -0.00  -0.00    -0.00   0.00   0.00    -0.01  -0.00  -0.00
     7   6     0.00  -0.00  -0.00     0.00  -0.00   0.00    -0.01   0.00   0.00
     8   6     0.00  -0.00   0.00    -0.00  -0.00   0.00     0.00   0.00  -0.00
     9   7    -0.01  -0.00  -0.00    -0.01  -0.00  -0.00    -0.01   0.01   0.00
    10   6    -0.00   0.00   0.00    -0.00   0.00  -0.00     0.00  -0.00   0.00
    11   6    -0.00  -0.00  -0.00     0.00   0.00   0.00     0.02  -0.70  -0.00
    12   6    -0.00   0.00  -0.00    -0.00  -0.00  -0.00    -0.01   0.70  -0.00
    13   6     0.00  -0.00   0.00     0.00  -0.00   0.00    -0.00  -0.00  -0.00
    14   6    -0.00  -0.00  -0.00     0.00   0.00  -0.00    -0.00  -0.00   0.00
    15   1     0.33   0.40  -0.00    -0.22  -0.47  -0.00    -0.03  -0.02   0.00
    16   1     0.03   0.13   0.00     0.11   0.15   0.00     0.08  -0.06  -0.00
                     40                     41                     42
                      A                      A                      A
 Frequencies --    256.9104               258.0389               281.1485
 Red. masses --      1.0232                10.3124                11.9297
 Frc consts  --      0.0398                 0.4046                 0.5556
 IR Inten    --     31.9807                 0.0786                 1.3389
  Atom  AN      X      Y      Z        X      Y      Z        X      Y      Z
     1   1     0.00  -0.00   0.00    -0.01   0.01   0.00    -0.00   0.02  -0.00
     2   1    -0.37   0.03   0.00    -0.14   0.01   0.00     0.01   0.01   0.00
     3   1     0.08  -0.08  -0.00     0.03  -0.04  -0.00    -0.02  -0.01  -0.00
     4   1    -0.29  -0.41  -0.00    -0.09  -0.16  -0.00    -0.05  -0.03  -0.00
     5   1    -0.01  -0.02  -0.00     0.01   0.00  -0.00    -0.00  -0.01   0.00
     6   6    -0.00   0.00  -0.00    -0.00  -0.00  -0.00     0.00   0.00  -0.00
     7   6     0.00  -0.00   0.00     0.00  -0.00   0.00    -0.00   0.00   0.00
     8   6     0.02   0.01   0.00    -0.55  -0.34   0.00     0.00   0.00  -0.00
     9   7     0.00   0.00  -0.00    -0.00   0.00  -0.00     0.00  -0.00   0.00
    10   6    -0.00   0.00   0.00     0.00   0.00  -0.00     0.61  -0.35   0.00
    11   6    -0.00   0.00   0.00     0.00  -0.00   0.00    -0.00   0.00  -0.00
    12   6    -0.01  -0.00  -0.00    -0.00   0.00  -0.00    -0.00  -0.00  -0.00
    13   6     0.00  -0.00  -0.00     0.00  -0.00  -0.00    -0.61   0.35   0.00
    14   6    -0.02  -0.01  -0.00     0.56   0.34  -0.00    -0.00  -0.00  -0.00
    15   1     0.01   0.04   0.00     0.01   0.02   0.00    -0.01   0.00   0.00
    16   1     0.62   0.46   0.00     0.27   0.16   0.00     0.00   0.04   0.00

 -------------------
 - Thermochemistry -
 -------------------
 Temperature   298.150 Kelvin.  Pressure      1.00000 Atm.
 Atom     1 has atomic number  1 and mass   1.00783
 Atom     2 has atomic number  1 and mass   1.00783
 Atom     3 has atomic number  1 and mass   1.00783
 Atom     4 has atomic number  1 and mass   1.00783
 Atom     5 has atomic number  1 and mass   1.00783
 Atom     6 has atomic number  6 and mass  12.00000
 Atom     7 has atomic number  6 and mass  12.00000
 Atom     8 has atomic number  6 and mass  12.00000
 Atom     9 has atomic number  7 and mass  14.00307
 Atom    10 has atomic number  6 and mass  12.00000
 Atom    11 has atomic number  6 and mass  12.00000
 Atom    12 has atomic number  6 and mass  12.00000
 Atom    13 has atomic number  6 and mass  12.00000
 Atom    14 has atomic number  6 and mass  12.00000
 Atom    15 has atomic number  1 and mass   1.00783
 Atom    16 has atomic number  1 and mass   1.00783
 Molecular mass:   117.05785 amu.
 Principal axes and moments of inertia in atomic units:
                                 1                 2                 3
     Eigenvalues --          461.943286       1098.822026       1560.765312
           X                   1.000000          0.000779         -0.000000
           Y                  -0.000779          1.000000         -0.000000
           Z                   0.000000          0.000000          1.000000
 This molecule is an asymmetric top.
 Rotational symmetry number  1.
 Warning -- assumption of classical behavior for rotation
           may cause significant error
 Rotational temperatures (Kelvin)      0.18750     0.07882     0.05549
 Rotational constants (GHZ):           3.90685     1.64243     1.15632
   19 imaginary frequencies ignored.
 Zero-point vibrational energy      14508.9 (Joules/Mol)
                                    3.46772 (Kcal/Mol)
 Warning -- explicit consideration of  23 degrees of freedom as
           vibrations may cause significant error
 Vibrational temperatures:      5.42     8.70    16.90    20.34    28.33
          (Kelvin)             29.78    31.53    51.54    59.99    72.98
                               90.92   117.44   118.50   140.45   180.00
                              194.11   237.32   289.14   319.60   331.65
                              369.64   371.26   404.51
 
 Zero-point correction=                           0.005526 (Hartree/Particle)
 Thermal correction to Energy=                    0.025357
 Thermal correction to Enthalpy=                  0.026301
 Thermal correction to Gibbs Free Energy=        -0.055521
 Sum of electronic and zero-point Energies=              0.006037
 Sum of electronic and thermal Energies=                 0.025867
 Sum of electronic and thermal Enthalpies=               0.026811
 Sum of electronic and thermal Free Energies=           -0.055011
 
                     E (Thermal)             CV                S
                      KCal/Mol        Cal/Mol-Kelvin    Cal/Mol-Kelvin
 Total                   15.912             50.032            172.210
 Electronic               0.000              0.000              0.000
 Translational            0.889              2.981             40.187
 Rotational               0.889              2.981             28.162
 Vibrational             14.134             44.071            103.860
 Vibration     1          0.593              1.987              9.952
 Vibration     2          0.593              1.987              9.012
 Vibration     3          0.593              1.987              7.692
 Vibration     4          0.593              1.986              7.323
 Vibration     5          0.593              1.986              6.665
 Vibration     6          0.593              1.986              6.566
 Vibration     7          0.593              1.985              6.453
 Vibration     8          0.594              1.982              5.478
 Vibration     9          0.594              1.981              5.177
 Vibration    10          0.595              1.977              4.789
 Vibration    11          0.597              1.972              4.355
 Vibration    12          0.600              1.962              3.851
 Vibration    13          0.600              1.961              3.834
 Vibration    14          0.603              1.951              3.501
 Vibration    15          0.610              1.928              3.020
 Vibration    16          0.613              1.918              2.875
 Vibration    17          0.623              1.886              2.492
 Vibration    18          0.638              1.839              2.124
 Vibration    19          0.648              1.807              1.942
 Vibration    20          0.652              1.794              1.875
 Vibration    21          0.666              1.751              1.683
 Vibration    22          0.667              1.749              1.675
 Vibration    23          0.681              1.709              1.527
                       Q            Log10(Q)             Ln(Q)
 Total Bot       0.345131D+26         25.537984         58.803382
 Total V=0       0.120182D+29         28.079838         64.656216
 Vib (Bot)       0.217599D+13         12.337657         28.408506
 Vib (Bot)    1  0.550407D+02          1.740684          4.008073
 Vib (Bot)    2  0.342869D+02          1.535128          3.534764
 Vib (Bot)    3  0.176435D+02          1.246584          2.870365
 Vib (Bot)    4  0.146520D+02          1.165898          2.684580
 Vib (Bot)    5  0.105207D+02          1.022043          2.353341
 Vib (Bot)    6  0.100083D+02          1.000362          2.303418
 Vib (Bot)    7  0.945293D+01          0.975566          2.246324
 Vib (Bot)    8  0.577777D+01          0.761760          1.754017
 Vib (Bot)    9  0.496157D+01          0.695619          1.601723
 Vib (Bot)   10  0.407519D+01          0.610148          1.404918
 Vib (Bot)   11  0.326647D+01          0.514079          1.183711
 Vib (Bot)   12  0.252231D+01          0.401799          0.925175
 Vib (Bot)   13  0.249954D+01          0.397860          0.916107
 Vib (Bot)   14  0.210337D+01          0.322916          0.743542
 Vib (Bot)   15  0.163147D+01          0.212578          0.489479
 Vib (Bot)   16  0.150919D+01          0.178744          0.411574
 Vib (Bot)   17  0.122376D+01          0.087695          0.201925
 Vib (Bot)   18  0.991845D+00         -0.003556         -0.008188
 Vib (Bot)   19  0.889665D+00         -0.050774         -0.116910
 Vib (Bot)   20  0.854248D+00         -0.068416         -0.157533
 Vib (Bot)   21  0.757171D+00         -0.120806         -0.278166
 Vib (Bot)   22  0.753445D+00         -0.122948         -0.283099
 Vib (Bot)   23  0.683428D+00         -0.165307         -0.380633
 Vib (V=0)       0.757723D+15         14.879511         34.261340
 Vib (V=0)    1  0.555430D+02          1.744629          4.017157
 Vib (V=0)    2  0.347906D+02          1.541461          3.549346
 Vib (V=0)    3  0.181505D+02          1.258889          2.898700
 Vib (V=0)    4  0.151606D+02          1.180716          2.718698
 Vib (V=0)    5  0.110325D+02          1.042675          2.400848
 Vib (V=0)    6  0.105208D+02          1.022050          2.353356
 Vib (V=0)    7  0.996614D+01          0.998527          2.299193
 Vib (V=0)    8  0.629936D+01          0.799296          1.840448
 Vib (V=0)    9  0.548670D+01          0.739311          1.702328
 Vib (V=0)   10  0.460575D+01          0.663300          1.527306
 Vib (V=0)   11  0.380452D+01          0.580300          1.336190
 Vib (V=0)   12  0.307139D+01          0.487335          1.122130
 Vib (V=0)   13  0.304906D+01          0.484166          1.114833
 Vib (V=0)   14  0.266198D+01          0.425205          0.979072
 Vib (V=0)   15  0.220636D+01          0.343677          0.791346
 Vib (V=0)   16  0.208986D+01          0.320117          0.737097
 Vib (V=0)   17  0.182196D+01          0.260539          0.599913
 Vib (V=0)   18  0.161075D+01          0.207027          0.476697
 Vib (V=0)   19  0.152054D+01          0.181998          0.419066
 Vib (V=0)   20  0.148982D+01          0.173133          0.398654
 Vib (V=0)   21  0.140736D+01          0.148406          0.341718
 Vib (V=0)   22  0.140426D+01          0.147446          0.339508
 Vib (V=0)   23  0.134680D+01          0.129304          0.297733
 Electronic      0.100000D+01          0.000000          0.000000
 Translational   0.497800D+08          7.697055         17.723123
 Rotational      0.318620D+06          5.503272         12.671753
                           ----------------------------
                           ! Normal Mode     1        !
 --------------------------                            --------------------------
 ! Name  Definition              Value          Relative Weight (%)             !
 --------------------------------------------------------------------------------
 ! D1    D(5,6,7,4)              0.5003                 12.1                    !
 ! D3    D(8,6,7,4)              0.4955                 12.0                    !
 ! D9    D(4,7,9,10)            -0.4371                 10.6                    !
 ! D10   D(4,7,9,16)            -0.8362                 20.3                    !
 ! D12   D(6,7,9,16)            -0.3997                  9.7                    !
 ! D23   D(16,9,10,8)            0.3964                  9.6                    !
 ! D24   D(16,9,10,12)           0.3991                  9.7                    !
 ! D25   D(8,10,12,2)            0.1298                  3.1                    !
 ! D27   D(9,10,12,2)            0.1267                  3.1                    !
 ! D33   D(2,12,14,3)           -0.1348                  3.3                    !
 ! D34   D(2,12,14,13)          -0.1293                  3.1                    !
 --------------------------------------------------------------------------------
                           ----------------------------
                           ! Normal Mode     2        !
 --------------------------                            --------------------------
 ! Name  Definition              Value          Relative Weight (%)             !
 --------------------------------------------------------------------------------
 ! R1    R(1,11)                 0.029                   1.2                    !
 ! R2    R(2,12)                 0.3099                 12.7                    !
 ! R3    R(3,14)                -0.0278                  1.1                    !
 ! R4    R(4,7)                  0.5034                 20.7                    !
 ! R5    R(5,6)                  0.0308                  1.3                    !
 ! R7    R(6,8)                 -0.0161                  0.7                    !
 ! R12   R(9,16)                -0.7784                 32.0                    !
 ! R13   R(10,12)                0.0451                  1.9                    !
 ! R15   R(12,14)               -0.0508                  2.1                    !
 ! R17   R(13,15)                0.0307                  1.3                    !
 ! A1    A(5,6,7)               -0.0421                  1.7                    !
 ! A2    A(5,6,8)                0.0255                  1.0                    !
 ! A3    A(7,6,8)                0.0166                  0.7                    !
 ! A4    A(4,7,6)                0.0666                  2.7                    !
 ! A5    A(4,7,9)               -0.061                   2.5                    !
 ! A11   A(7,9,16)               0.0924                  3.8                    !
 ! A12   A(10,9,16)             -0.0813                  3.3                    !
 ! A13   A(8,10,9)               0.0153                  0.6                    !
 ! A14   A(8,10,12)             -0.0153                  0.6                    !
 --------------------------------------------------------------------------------
                           ----------------------------
                           ! Normal Mode     3        !
 --------------------------                            --------------------------
 ! Name  Definition              Value          Relative Weight (%)             !
 --------------------------------------------------------------------------------
 ! D1    D(5,6,7,4)              0.1565                  3.2                    !
 ! D3    D(8,6,7,4)              0.1046                  2.2                    !
 ! D9    D(4,7,9,10)            -0.0931                  1.9                    !
 ! D17   D(6,8,11,1)            -0.1169                  2.4                    !
 ! D19   D(10,8,11,1)           -0.12                    2.5                    !
 ! D25   D(8,10,12,2)           -0.2013                  4.1                    !
 ! D27   D(9,10,12,2)           -0.2077                  4.3                    !
 ! D29   D(1,11,13,14)           0.125                   2.6                    !
 ! D30   D(1,11,13,15)           0.4553                  9.4                    !
 ! D32   D(8,11,13,15)           0.3375                  6.9                    !
 ! D33   D(2,12,14,3)            0.5662                 11.6                    !
 ! D34   D(2,12,14,13)           0.2053                  4.2                    !
 ! D35   D(10,12,14,3)           0.3636                  7.5                    !
 ! D37   D(11,13,14,3)          -0.3684                  7.6                    !
 ! D39   D(15,13,14,3)          -0.6969                 14.3                    !
 ! D40   D(15,13,14,12)         -0.3361                  6.9                    !
 --------------------------------------------------------------------------------
                           ----------------------------
                           ! Normal Mode     4        !
 --------------------------                            --------------------------
 ! Name  Definition              Value          Relative Weight (%)             !
 --------------------------------------------------------------------------------
 ! R1    R(1,11)                -0.2854                  8.3                    !
 ! R2    R(2,12)                 0.4605                 13.3                    !
 ! R3    R(3,14)                -0.5311                 15.4                    !
 ! R4    R(4,7)                 -0.2555                  7.4                    !
 ! R5    R(5,6)                  0.249                   7.2                    !
 ! R8    R(7,9)                  0.0528                  1.5                    !
 ! R12   R(9,16)                -0.0707                  2.1                    !
 ! R17   R(13,15)                0.4387                 12.7                    !
 ! A1    A(5,6,7)                0.0777                  2.3                    !
 ! A2    A(5,6,8)               -0.0786                  2.3                    !
 ! A4    A(4,7,6)               -0.1359                  3.9                    !
 ! A5    A(4,7,9)                0.1314                  3.8                    !
 ! A11   A(7,9,16)              -0.0746                  2.2                    !
 ! A12   A(10,9,16)              0.0954                  2.8                    !
 ! A16   A(1,11,8)               0.0501                  1.5                    !
 ! A17   A(1,11,13)             -0.0448                  1.3                    !
 ! A19   A(2,12,10)             -0.0444                  1.3                    !
 ! A26   A(3,14,13)              0.0468                  1.4                    !
 --------------------------------------------------------------------------------
                           ----------------------------
                           ! Normal Mode     5        !
 --------------------------                            --------------------------
 ! Name  Definition              Value          Relative Weight (%)             !
 --------------------------------------------------------------------------------
 ! D1    D(5,6,7,4)             -0.3616                  6.6                    !
 ! D2    D(5,6,7,9)             -0.1234                  2.2                    !
 ! D3    D(8,6,7,4)             -0.2465                  4.5                    !
 ! D5    D(5,6,8,10)             0.1128                  2.1                    !
 ! D6    D(5,6,8,11)             0.1066                  1.9                    !
 ! D9    D(4,7,9,10)             0.2301                  4.2                    !
 ! D12   D(6,7,9,16)            -0.2066                  3.8                    !
 ! D17   D(6,8,11,1)            -0.1772                  3.2                    !
 ! D19   D(10,8,11,1)           -0.184                   3.3                    !
 ! D23   D(16,9,10,8)            0.2052                  3.7                    !
 ! D24   D(16,9,10,12)           0.2011                  3.7                    !
 ! D25   D(8,10,12,2)            0.369                   6.7                    !
 ! D27   D(9,10,12,2)            0.3736                  6.8                    !
 ! D29   D(1,11,13,14)           0.1779                  3.2                    !
 ! D30   D(1,11,13,15)           0.4615                  8.4                    !
 ! D32   D(8,11,13,15)           0.2896                  5.3                    !
 ! D33   D(2,12,14,3)           -0.4197                  7.6                    !
 ! D34   D(2,12,14,13)          -0.3742                  6.8                    !
 ! D39   D(15,13,14,3)          -0.2471                  4.5                    !
 ! D40   D(15,13,14,12)         -0.2925                  5.3                    !
 --------------------------------------------------------------------------------
                           ----------------------------
                           ! Normal Mode     6        !
 --------------------------                            --------------------------
 ! Name  Definition              Value          Relative Weight (%)             !
 --------------------------------------------------------------------------------
 ! R1    R(1,11)                 0.0664                  0.8                    !
 ! R3    R(3,14)                -0.1238                  1.6                    !
 ! R4    R(4,7)                  0.0563                  0.7                    !
 ! R5    R(5,6)                  0.1776                  2.2                    !
 ! R7    R(6,8)                 -0.1027                  1.3                    !
 ! R9    R(8,10)                -0.7616                  9.6                    !
 ! R10   R(8,11)                 0.2423                  3.1                    !
 ! R11   R(9,10)                -0.1206                  1.5                    !
 ! R12   R(9,16)                 0.1648                  2.1                    !
 ! R13   R(10,12)                0.5077                  6.4                    !
 ! R14   R(11,13)                0.5601                  7.1                    !
 ! R15   R(12,14)                0.2803                  3.5                    !
 ! R16   R(13,14)               -0.7989                 10.1                    !
 ! A1    A(5,6,7)               -0.0629                  0.8                    !
 ! A2    A(5,6,8)                0.1781                  2.2                    !
 ! A3    A(7,6,8)               -0.1153                  1.5                    !
 ! A7    A(6,8,10)               0.082                   1.0                    !
 ! A8    A(6,8,11)              -0.187                   2.4                    !
 ! A9    A(10,8,11)              0.1051                  1.3                    !
 ! A10   A(7,9,10)              -0.2106                  2.7                    !
 ! A12   A(10,9,16)              0.2476                  3.1                    !
 ! A13   A(8,10,9)               0.253                   3.2                    !
 ! A14   A(8,10,12)              0.0619                  0.8                    !
 ! A15   A(9,10,12)             -0.3148                  4.0                    !
 ! A16   A(1,11,8)               0.0941                  1.2                    !
 ! A17   A(1,11,13)              0.0716                  0.9                    !
 ! A18   A(8,11,13)             -0.1657                  2.1                    !
 ! A19   A(2,12,10)              0.0728                  0.9                    !
 ! A20   A(2,12,14)              0.0925                  1.2                    !
 ! A21   A(10,12,14)            -0.1653                  2.1                    !
 ! A23   A(11,13,15)            -0.3967                  5.0                    !
 ! A24   A(14,13,15)             0.3489                  4.4                    !
 ! A25   A(3,14,12)             -0.2431                  3.1                    !
 ! A26   A(3,14,13)              0.1267                  1.6                    !
 ! A27   A(12,14,13)             0.1163                  1.5                    !
 --------------------------------------------------------------------------------
                           ----------------------------
                           ! Normal Mode     7        !
 --------------------------                            --------------------------
 ! Name  Definition              Value          Relative Weight (%)             !
 --------------------------------------------------------------------------------
 ! D5    D(5,6,8,10)             0.2441                  1.5                    !
 ! D6    D(5,6,8,11)            -0.4022                  2.5                    !
 ! D7    D(7,6,8,10)             0.3668                  2.3                    !
 ! D8    D(7,6,8,11)            -0.2794                  1.7                    !
 ! D9    D(4,7,9,10)            -0.2695                  1.7                    !
 ! D11   D(6,7,9,10)            -0.2636                  1.6                    !
 ! D13   D(6,8,10,9)            -0.5225                  3.2                    !
 ! D14   D(6,8,10,12)            0.4129                  2.5                    !
 ! D16   D(11,8,10,12)           0.94                    5.8                    !
 ! D17   D(6,8,11,1)             0.5794                  3.6                    !
 ! D20   D(10,8,11,13)          -0.9009                  5.5                    !
 ! D21   D(7,9,10,8)             0.4894                  3.0                    !
 ! D22   D(7,9,10,12)           -0.5518                  3.4                    !
 ! D23   D(16,9,10,8)            0.2569                  1.6                    !
 ! D24   D(16,9,10,12)          -0.7842                  4.8                    !
 ! D25   D(8,10,12,2)           -0.2672                  1.6                    !
 ! D26   D(8,10,12,14)          -0.9286                  5.7                    !
 ! D27   D(9,10,12,2)            0.9092                  5.6                    !
 ! D28   D(9,10,12,14)           0.2479                  1.5                    !
 ! D30   D(1,11,13,15)          -0.9246                  5.7                    !
 ! D31   D(8,11,13,14)           0.9103                  5.6                    !
 ! D33   D(2,12,14,3)           -0.3692                  2.3                    !
 ! D34   D(2,12,14,13)           0.2469                  1.5                    !
 ! D35   D(10,12,14,3)           0.2892                  1.8                    !
 ! D36   D(10,12,14,13)          0.9054                  5.6                    !
 ! D37   D(11,13,14,3)          -0.313                   1.9                    !
 ! D38   D(11,13,14,12)         -0.929                   5.7                    !
 ! D39   D(15,13,14,3)           0.7409                  4.5                    !
 --------------------------------------------------------------------------------
                           ----------------------------
                           ! Normal Mode     8        !
 --------------------------                            --------------------------
 ! Name  Definition              Value          Relative Weight (%)             !
 --------------------------------------------------------------------------------
 ! R1    R(1,11)                 0.2225                  5.7                    !
 ! R2    R(2,12)                 0.1754                  4.5                    !
 ! R3    R(3,14)                 0.3284                  8.4                    !
 ! R4    R(4,7)                 -0.3036                  7.8                    !
 ! R5    R(5,6)                  0.4159                 10.6                    !
 ! R8    R(7,9)                  0.0593                  1.5                    !
 ! R10   R(8,11)                -0.0496                  1.3                    !
 ! R12   R(9,16)                -0.2391                  6.1                    !
 ! R14   R(11,13)                0.0535                  1.4                    !
 ! R17   R(13,15)               -0.5251                 13.4                    !
 ! A1    A(5,6,7)                0.0576                  1.5                    !
 ! A2    A(5,6,8)               -0.0641                  1.6                    !
 ! A4    A(4,7,6)               -0.1676                  4.3                    !
 ! A5    A(4,7,9)                0.1627                  4.2                    !
 ! A12   A(10,9,16)              0.0826                  2.1                    !
 ! A16   A(1,11,8)               0.068                   1.7                    !
 ! A17   A(1,11,13)             -0.0663                  1.7                    !
 ! A19   A(2,12,10)             -0.0527                  1.3                    !
 ! A20   A(2,12,14)              0.0505                  1.3                    !
 ! A23   A(11,13,15)             0.0986                  2.5                    !
 ! A24   A(14,13,15)            -0.0867                  2.2                    !
[...]
   D12        3.14159  -0.00000   0.00000  -0.00000  -0.00000   3.14159
   D13        0.00000   0.00000   0.00000   0.00000   0.00000   0.00000
   D14        3.14159   0.00000   0.00000   0.00000   0.00000  -3.14159
   D15        3.14159  -0.00000   0.00000  -0.00000   0.00000   3.14159
   D16        0.00000  -0.00000   0.00000  -0.00000  -0.00000  -0.00000
   D17        0.00000  -0.00000   0.00000  -0.00000  -0.00000  -0.00000
   D18        3.14159  -0.00000   0.00000  -0.00000   0.00000   3.14159
   D19        3.14159   0.00000   0.00000   0.00000   0.00000   3.14159
   D20        0.00000   0.00000   0.00000   0.00000   0.00000   0.00000
   D21        0.00000   0.00000   0.00000   0.00000   0.00000   0.00000
   D22        3.14159   0.00000   0.00000   0.00000   0.00000   3.14159
   D23        3.14159   0.00000   0.00000   0.00000   0.00000   3.14159
   D24        0.00000   0.00000   0.00000   0.00000  -0.00000  -0.00000
   D25        3.14159  -0.00000   0.00000  -0.00000   0.00000   3.14159
   D26        0.00000  -0.00000   0.00000  -0.00000  -0.00000  -0.00000
   D27        0.00000  -0.00000   0.00000  -0.00000   0.00000   0.00000
   D28        3.14159  -0.00000   0.00000  -0.00000   0.00000   3.14159
   D29        3.14159  -0.00000   0.00000  -0.00000  -0.00000   3.14159
   D30       -0.00000  -0.00000   0.00000  -0.00000  -0.00000  -0.00000
   D31        0.00000  -0.00000   0.00000  -0.00000  -0.00000  -0.00000
   D32        3.14159  -0.00000   0.00000  -0.00000  -0.00000   3.14159
   D33        0.00000  -0.00000   0.00000  -0.00000  -0.00000  -0.00000
   D34        3.14159   0.00000   0.00000   0.00000   0.00000   3.14159
   D35        3.14159  -0.00000   0.00000  -0.00000   0.00000   3.14159
   D36        0.00000   0.00000   0.00000   0.00000  -0.00000  -0.00000
   D37        3.14159   0.00000   0.00000   0.00000   0.00000  -3.14159
   D38        0.00000   0.00000   0.00000   0.00000   0.00000   0.00000
   D39        0.00000   0.00000   0.00000   0.00000   0.00000   0.00000
   D40       -3.14159   0.00000   0.00000   0.00000   0.00000  -3.14159
         Item               Value     Threshold  Converged?
 Maximum Force            0.006204     0.000450     NO 
 RMS     Force            0.001527     0.000300     NO 
 Maximum Displacement     0.153175     0.001800     NO 
 RMS     Displacement     0.048376     0.001200     NO 
 Predicted change in Energy=-2.930637D-03
                           ----------------------------
                           ! Non-Optimized Parameters !
                           ! (Angstroms and Degrees)  !
 --------------------------                            --------------------------
 ! Name  Definition              Value          Derivative Info.                !
 --------------------------------------------------------------------------------
 ! R1    R(1,11)                 1.0805         -DE/DX =    0.0                 !
 ! R2    R(2,12)                 1.074          -DE/DX =   -0.0003              !
 ! R3    R(3,14)                 1.0876         -DE/DX =    0.0003              !
 ! R4    R(4,7)                  1.1016         -DE/DX =    0.001               !
 ! R5    R(5,6)                  1.0729         -DE/DX =   -0.0001              !
 ! R6    R(6,7)                  1.3604         -DE/DX =    0.0001              !
 ! R7    R(6,8)                  1.4257         -DE/DX =   -0.0003              !
 ! R8    R(7,9)                  1.4032         -DE/DX =    0.0014              !
 ! R9    R(8,10)                 1.4566         -DE/DX =    0.0041              !
 ! R10   R(8,11)                 1.4598         -DE/DX =    0.0057              !
 ! R11   R(9,10)                 1.3633         -DE/DX =   -0.0005              !
 ! R12   R(9,16)                 0.9879         -DE/DX =   -0.0006              !
 ! R13   R(10,12)                1.4449         -DE/DX =    0.0052              !
 ! R14   R(11,13)                1.4476         -DE/DX =    0.0058              !
 ! R15   R(12,14)                1.4531         -DE/DX =    0.0062              !
 ! R16   R(13,14)                1.4665         -DE/DX =    0.0056              !
 ! R17   R(13,15)                1.0873         -DE/DX =    0.0003              !
 ! A1    A(5,6,7)              125.6793         -DE/DX =   -0.0002              !
 ! A2    A(5,6,8)              125.5995         -DE/DX =   -0.0006              !
 ! A3    A(7,6,8)              108.7212         -DE/DX =    0.0008              !
 ! A4    A(4,7,6)              128.249          -DE/DX =   -0.001               !
 ! A5    A(4,7,9)              123.4791         -DE/DX =    0.0011              !
 ! A6    A(6,7,9)              108.272          -DE/DX =   -0.0001              !
 ! A7    A(6,8,10)             106.2309         -DE/DX =   -0.0007              !
 ! A8    A(6,8,11)             134.5919         -DE/DX =    0.0004              !
 ! A9    A(10,8,11)            119.1772         -DE/DX =    0.0003              !
 ! A10   A(7,9,10)             110.4228         -DE/DX =    0.0004              !
 ! A11   A(7,9,16)             127.4079         -DE/DX =    0.001               !
 ! A12   A(10,9,16)            122.1692         -DE/DX =   -0.0013              !
 ! A13   A(8,10,9)             106.3531         -DE/DX =   -0.0004              !
 ! A14   A(8,10,12)            122.2925         -DE/DX =   -0.0006              !
 ! A15   A(9,10,12)            131.3544         -DE/DX =    0.001               !
 ! A16   A(1,11,8)             119.5335         -DE/DX =   -0.0007              !
 ! A17   A(1,11,13)            121.0866         -DE/DX =    0.0                 !
 ! A18   A(8,11,13)            119.3799         -DE/DX =    0.0007              !
 ! A19   A(2,12,10)            121.2328         -DE/DX =   -0.0005              !
 ! A20   A(2,12,14)            120.7066         -DE/DX =   -0.0004              !
 ! A21   A(10,12,14)           118.0606         -DE/DX =    0.0009              !
 ! A22   A(11,13,14)           120.4555         -DE/DX =   -0.001               !
 ! A23   A(11,13,15)           119.9164         -DE/DX =    0.0005              !
 ! A24   A(14,13,15)           119.6281         -DE/DX =    0.0005              !
 ! A25   A(3,14,12)            119.8783         -DE/DX =    0.0002              !
 ! A26   A(3,14,13)            119.4874         -DE/DX =    0.0001              !
 ! A27   A(12,14,13)           120.6343         -DE/DX =   -0.0003              !
 ! D1    D(5,6,7,4)              0.0001         -DE/DX =    0.0                 !
 ! D2    D(5,6,7,9)           -180.0            -DE/DX =    0.0                 !
 ! D3    D(8,6,7,4)           -179.9999         -DE/DX =    0.0                 !
 ! D4    D(8,6,7,9)              0.0            -DE/DX =    0.0                 !
 ! D5    D(5,6,8,10)           180.0            -DE/DX =    0.0                 !
 ! D6    D(5,6,8,11)             0.0            -DE/DX =    0.0                 !
 ! D7    D(7,6,8,10)             0.0            -DE/DX =    0.0                 !
 ! D8    D(7,6,8,11)           180.0            -DE/DX =    0.0                 !
 ! D9    D(4,7,9,10)           179.9999         -DE/DX =    0.0                 !
 ! D10   D(4,7,9,16)            -0.0001         -DE/DX =    0.0                 !
 ! D11   D(6,7,9,10)             0.0            -DE/DX =    0.0                 !
 ! D12   D(6,7,9,16)           180.0            -DE/DX =    0.0                 !
 ! D13   D(6,8,10,9)             0.0            -DE/DX =    0.0                 !
 ! D14   D(6,8,10,12)         -180.0            -DE/DX =    0.0                 !
 ! D15   D(11,8,10,9)          180.0            -DE/DX =    0.0                 !
 ! D16   D(11,8,10,12)           0.0            -DE/DX =    0.0                 !
 ! D17   D(6,8,11,1)             0.0            -DE/DX =    0.0                 !
 ! D18   D(6,8,11,13)          180.0            -DE/DX =    0.0                 !
 ! D19   D(10,8,11,1)          180.0            -DE/DX =    0.0                 !
 ! D20   D(10,8,11,13)           0.0            -DE/DX =    0.0                 !
 ! D21   D(7,9,10,8)             0.0            -DE/DX =    0.0                 !
 ! D22   D(7,9,10,12)          180.0            -DE/DX =    0.0                 !
 ! D23   D(16,9,10,8)          180.0            -DE/DX =    0.0                 !
 ! D24   D(16,9,10,12)           0.0            -DE/DX =    0.0                 !
 ! D25   D(8,10,12,2)          180.0            -DE/DX =    0.0                 !
 ! D26   D(8,10,12,14)           0.0            -DE/DX =    0.0                 !
 ! D27   D(9,10,12,2)            0.0            -DE/DX =    0.0                 !
 ! D28   D(9,10,12,14)         180.0            -DE/DX =    0.0                 !
 ! D29   D(1,11,13,14)         180.0            -DE/DX =    0.0                 !
 ! D30   D(1,11,13,15)          -0.0001         -DE/DX =    0.0                 !
 ! D31   D(8,11,13,14)           0.0            -DE/DX =    0.0                 !
 ! D32   D(8,11,13,15)         179.9999         -DE/DX =    0.0                 !
 ! D33   D(2,12,14,3)            0.0            -DE/DX =    0.0                 !
 ! D34   D(2,12,14,13)         180.0            -DE/DX =    0.0                 !
 ! D35   D(10,12,14,3)         180.0            -DE/DX =    0.0                 !
 ! D36   D(10,12,14,13)          0.0            -DE/DX =    0.0                 !
 ! D37   D(11,13,14,3)        -180.0            -DE/DX =    0.0                 !
 ! D38   D(11,13,14,12)          0.0            -DE/DX =    0.0                 !
 ! D39   D(15,13,14,3)           0.0001         -DE/DX =    0.0                 !
 ! D40   D(15,13,14,12)       -179.9999         -DE/DX =    0.0                 !
 --------------------------------------------------------------------------------
 GradGradGradGradGradGradGradGradGradGradGradGradGradGradGradGradGradGrad

 Leave Link  103 at Sat Oct 22 11:18:40 2022, MaxMem=   134217728 cpu:               0.0 elap:               0.0
 (Enter /home/emanuele/chem_software/gaussian//gdv/l9999.exe)
 Unable to Open any file for archive entry.
 1\1\GINC-EMANUELE-XPS-13-9343\Freq\AMBER\ZDO\C8H7N1\EMANUELE\22-Oct-20
 22\0\\#p Amber=(SoftOnly,Print) nosymm Freq=intmodes\\Title\\0,1\H,-1.
 009677,2.505917,0.\H,-0.917442,-2.495849,0.\H,-3.06191,-1.262584,0.\H,
 3.453102,-0.082375,0.000001\H,1.99321,2.17324,0.\C,1.620451,1.163136,0
 .\C,2.382297,0.030455,0.\C,0.248141,0.748383,0.\N,1.561959,-1.077509,0
 .\C,0.247035,-0.67014,0.\C,-0.979704,1.423874,0.\C,-0.932234,-1.413394
 ,0.\C,-2.151543,0.689333,0.\C,-2.128208,-0.716107,0.\H,-3.104872,1.200
 941,0.000001\H,1.876463,-2.029966,0.\\Version=ES64L-GDVRevJ.14\HF=0.00
 05104\RMSD=0.000e+00\RMSF=2.026e-03\ZeroPoint=0.0055262\Thermal=0.0253
 568\ETot=0.0258672\HTot=0.0268114\GTot=-0.0550109\Dipole=0.5385994,-0.
 4762618,0.0000004\DipoleDeriv=0.093932,0.,0.,0.,0.093932,0.,0.,0.,0.09
 3932,0.093275,0.,0.,0.,0.093275,0.,0.,0.,0.093275,0.090619,0.,0.,0.,0.
 090619,0.,0.,0.,0.090619,0.111621,0.,0.,0.,0.111621,0.,0.,0.,0.111621,
 0.096456,0.,0.,0.,0.096456,0.,0.,0.,0.096456,-0.131647,0.,0.,0.,-0.131
 647,0.,0.,0.,-0.131647,-0.001193,0.,0.,0.,-0.001193,0.,0.,0.,-0.001193
 ,-0.026843,0.,0.,0.,-0.026843,0.,0.,0.,-0.026843,-0.412282,0.,0.,0.,-0
 .412282,0.,0.,0.,-0.412282,0.087766,0.,0.,0.,0.087766,0.,0.,0.,0.08776
 6,-0.096803,0.,0.,0.,-0.096803,0.,0.,0.,-0.096803,-0.109301,0.,0.,0.,-
 0.109301,0.,0.,0.,-0.109301,-0.111902,0.,0.,0.,-0.111902,0.,0.,0.,-0.1
 11902,-0.106243,0.,0.,0.,-0.106243,0.,0.,0.,-0.106243,0.089583,0.,0.,0
 .,0.089583,0.,0.,0.,0.089583,0.332999,0.,0.,0.,0.332999,0.,0.,0.,0.332
 999\PG=C01 [X(C8H7N1)]\NImag=19\\0.00091621,0.00018417,0.00016303,0.,0
 .,-0.00007789,0.00001024,0.00000056,0.,0.00138358,0.00000056,-0.000019
 91,0.,-0.00007492,0.00008435,0.,0.,0.00001025,0.,0.,-0.00010434,0.0000
 0527,-0.00001892,0.,-0.00045121,0.00031636,0.,0.00039091,-0.00001892,-
 0.00001916,0.,0.00031636,-0.00008305,0.,-0.00035071,0.00076770,0.,0.,0
 .00001558,0.,0.,0.00009888,0.,0.,-0.00017852,-0.00001362,0.00001441,0.
 ,-0.00001549,-0.00001533,0.,-0.00000975,-0.00000270,0.,0.00037029,0.00
 001441,0.00000286,0.,-0.00001533,0.00000381,0.,-0.00000270,0.00000466,
 0.,0.00050796,0.00064998,0.,0.,0.00001122,0.,0.,0.00001227,0.,0.,0.000
 00515,0.,0.,-0.00039438,-0.00012067,0.00001861,0.,0.00000135,-0.000010
 58,0.,-0.00000586,-0.00000782,0.,-0.00002666,0.00015614,0.,0.00038463,
 0.00001861,0.00004528,0.,-0.00001058,-0.00000902,0.,-0.00000782,0.0000
 0033,0.,0.00015614,-0.00016685,0.,-0.00015048,0.00016206,0.,0.,0.00004
 734,0.,0.,0.00000795,0.,0.,0.00000565,0.,0.,0.00007439,0.,0.,-0.000021
 22,-0.00032652,0.00015123,0.,0.00000117,0.00003352,0.,0.00001863,0.000
 01612,0.,0.,0.,0.,0.,0.,0.,0.00077539,0.00015123,-0.00010751,0.,0.0000
 3352,0.00002625,0.,0.00001612,-0.00000414,0.,0.,0.,0.,0.,0.,0.,0.00007
 283,0.00001604,0.,0.,-0.00003030,0.,0.,-0.00002208,0.,0.,-0.00001249,0
 .,0.,0.,0.,0.,0.,0.,0.,0.00014183,0.00000618,-0.00000623,0.,0.00000597
 ,0.00000648,0.,0.00000191,0.00000054,0.,0.,0.,0.,0.,0.,0.,0.,0.,0.,0.0
 0037283,-0.00000623,0.00000219,0.,0.00000648,0.00000247,0.,0.00000054,
 -0.00000024,0.,0.,0.,0.,0.,0.,0.,0.,0.,0.,0.00001393,0.00006691,0.,0.,
 -0.00000235,0.,0.,-0.00000249,0.,0.,-0.00000037,0.,0.,0.,0.,0.,0.,0.,0
 .,0.,0.,0.,-0.00000258,0.,0.,0.,-0.00000922,-0.00000208,0.,0.00001216,
 0.00001307,0.,-0.00004857,0.00001021,0.,0.,0.,0.,0.,0.,0.,0.,0.,0.,0.0
 1072193,0.,0.,0.,-0.00000208,-0.00001427,0.,0.00001307,-0.00000141,0.,
 0.00001021,-0.00001181,0.,0.,0.,0.,0.,0.,0.,0.,0.,0.,0.00717065,0.0034
 4252,0.,0.,0.,0.,0.,-0.00000847,0.,0.,-0.00000935,0.,0.,-0.00000916,0.
 ,0.,0.,0.,0.,0.,0.,0.,0.,0.,0.,-0.00101822,0.00000388,-0.00010133,0.,-
 0.00039191,-0.00013615,0.,0.00012005,0.00000710,0.,0.,0.,0.,-0.0001332
 8,0.00004440,0.,0.,0.,0.,0.,0.,0.,0.,0.,0.,0.00108131,-0.00010133,0.00
 007236,0.,-0.00013615,-0.00023179,0.,0.00000710,-0.00005699,0.,0.,0.,0
 .,0.00004440,0.00019553,0.,0.,0.,0.,0.,0.,0.,0.,0.,0.,-0.00026213,0.00
 011170,0.,0.,-0.00006884,0.,0.,-0.00015390,0.,0.,-0.00005727,0.,0.,0.,
 0.,0.,-0.00013917,0.,0.,0.,0.,0.,0.,0.,0.,0.,0.,0.,0.00014375,0.000009
 59,0.00003876,0.,0.,0.,0.,-0.00010031,-0.00002260,0.,-0.00015995,-0.00
 003616,0.,-0.00001140,-0.00006521,0.,0.,0.,0.,0.,0.,0.,0.,0.,0.,0.,0.,
 0.,0.01350229,0.00003876,-0.00007303,0.,0.,0.,0.,-0.00002260,0.0000218
 9,0.,-0.00003616,0.00003067,0.,-0.00006521,-0.00007753,0.,0.,0.,0.,0.,
 0.,0.,0.,0.,0.,0.,0.,0.,-0.00812373,0.00350672,0.,0.,0.00002492,0.,0.,
 0.,0.,0.,0.00002594,0.,0.,0.00003730,0.,0.,0.00002865,0.,0.,0.,0.,0.,0
 .,0.,0.,0.,0.,0.,0.,0.,0.,-0.00136059,0.,0.,0.,-0.00002520,-0.00000125
 ,0.,-0.00001240,0.00002016,0.,0.00003191,-0.00001650,0.,-0.00019308,-0
 .00004200,0.,0.,0.,0.,-0.00020200,0.00008699,0.,0.,0.,0.,-0.00022300,0
 .00033675,0.,0.,0.,0.,-0.00027490,0.,0.,0.,-0.00000125,0.00005335,0.,0
 .00002016,-0.00000202,0.,-0.00001650,-0.00001104,0.,-0.00004200,-0.000
 03706,0.,0.,0.,0.,0.00008699,-0.00002816,0.,0.,0.,0.,0.00033675,-0.000
 21224,0.,0.,0.,0.,-0.00051578,0.01212072,0.,0.,0.,0.,0.,-0.00002522,0.
 ,0.,-0.00002802,0.,0.,-0.00001665,0.,0.,-0.00002647,0.,0.,0.,0.,0.,0.0
 0000790,0.,0.,0.,0.,0.,0.00011917,0.,0.,0.,0.,0.,-0.00086447,-0.000028
 23,-0.00000173,0.,0.,0.,0.,0.,0.,0.,0.00003924,0.00001798,0.,0.0000051
 4,0.00002701,0.,-0.00013890,-0.00018633,0.,-0.00022375,-0.00010168,0.,
 0.,0.,0.,0.,0.,0.,0.,0.,0.,0.00088465,0.00021445,0.,-0.00012433,-0.000
 00173,0.00005942,0.,0.,0.,0.,0.,0.,0.,0.00001798,-0.00001454,0.,0.0000
 2701,0.00001623,0.,-0.00018633,-0.00014237,0.,-0.00010168,-0.00003463,
 0.,0.,0.,0.,0.,0.,0.,0.,0.,0.,0.00021445,-0.01192922,0.,-0.00000194,0.
 01220035,0.,0.,-0.00002826,0.,0.,0.,0.,0.,0.,0.,0.,-0.00002000,0.,0.,-
 0.00001689,0.,0.,0.00004571,0.,0.,0.00000966,0.,0.,0.,0.,0.,0.,0.,0.,0
 .,0.,0.,0.00088824,0.,0.,-0.00070548,0.,0.,0.,-0.00002508,-0.00002036,
 0.,0.,0.,0.,0.00002155,-0.00000441,0.,0.00003866,0.00002112,0.,-0.0001
 6571,-0.00002502,0.,0.00001858,-0.00000338,0.,0.,0.,0.,-0.00014846,0.0
 0011292,0.,-0.01321784,0.00818676,0.,0.,0.,0.,0.,0.,0.,0.01342408,0.,0
 .,0.,-0.00002036,0.00001958,0.,0.,0.,0.,-0.00000441,-0.00000987,0.,0.0
 0002112,-0.00001277,0.,-0.00002502,0.00003034,0.,-0.00000338,-0.000004
 18,0.,0.,0.,0.,0.00011292,0.00003513,0.,0.00818676,-0.00341369,0.,0.,0
 .,0.,0.,0.,0.,-0.00819801,0.00335736,0.,0.,0.,0.,0.,-0.00003296,0.,0.,
 0.,0.,0.,-0.00001048,0.,0.,-0.00002033,0.,0.,0.00003348,0.,0.,-0.00000
 467,0.,0.,0.,0.,0.,0.00008886,0.,0.,0.00122643,0.,0.,0.,0.,0.,0.,0.,0.
 ,-0.00123142,-0.00002569,0.00001711,0.,0.,0.,0.,0.,0.,0.,0.00002123,0.
 00000357,0.,0.00001450,0.00001895,0.,-0.00004513,-0.00003349,0.,0.0000
 1838,0.00000383,0.,-0.01061028,-0.00720596,0.,-0.00036724,0.00004645,0
 .,0.,0.,0.,0.,0.,0.,0.,0.,0.,0.,0.,0.,0.01086559,0.00001711,0.00001767
 ,0.,0.,0.,0.,0.,0.,0.,0.00000357,-0.00000978,0.,0.00001895,0.00000076,
 0.,-0.00003349,0.00000489,0.,0.00000383,-0.00000410,0.,-0.00720596,-0.
 00335842,0.,0.00004645,0.00010254,0.,0.,0.,0.,0.,0.,0.,0.,0.,0.,0.,0.,
 0.,0.00721540,0.00329695,0.,0.,-0.00003163,0.,0.,0.,0.,0.,0.,0.,0.,-0.
 00001018,0.,0.,-0.00001253,0.,0.,0.00002168,0.,0.,-0.00000473,0.,0.,0.
 00108245,0.,0.,0.00010708,0.,0.,0.,0.,0.,0.,0.,0.,0.,0.,0.,0.,0.,0.,-0
 .00108003,-0.00044076,-0.00033693,0.,0.00000382,0.00001930,0.,0.000098
 90,0.00001325,0.,-0.00000930,0.00000279,0.,-0.00001676,-0.00000493,0.,
 0.00003909,-0.00000045,0.,0.00000190,-0.00000048,0.,-0.00003016,0.0000
 0300,0.,0.00005866,-0.00004801,0.,-0.00002238,0.00002218,0.,0.,0.,0.,-
 0.00001026,-0.00002522,0.,0.,0.,0.,0.,0.,0.,0.00035059,-0.00033693,-0.
 00010965,0.,0.00001930,-0.00001738,0.,0.00001325,-0.00066077,0.,0.0000
 0279,0.00000441,0.,-0.00000493,0.00000813,0.,-0.00000045,-0.00001754,0
 .,-0.00000048,-0.00000026,0.,0.00000300,-0.00000831,0.,-0.00004801,-0.
 00001623,0.,0.00002218,0.00000498,0.,0.,0.,0.,-0.00002522,-0.00000087,
 0.,0.,0.,0.,0.,0.,0.,0.00032669,0.00081109,0.,0.,0.00010021,0.,0.,0.00
 001524,0.,0.,0.00009913,0.,0.,0.00000495,0.,0.,0.00000907,0.,0.,-0.000
 01754,0.,0.,-0.00000036,0.,0.,-0.00000790,0.,0.,-0.00003967,0.,0.,0.00
 001736,0.,0.,0.,0.,0.,-0.00003122,0.,0.,0.,0.,0.,0.,0.,0.,-0.00017034,
 0.00000413,0.00004028,0.,-0.00048802,-0.00011554,0.,-0.00006831,0.0000
 1616,0.,-0.00020089,-0.00063796,0.,0.00006343,-0.00000524,0.,-0.000158
 01,-0.00002841,0.,0.,0.,0.,-0.00003585,0.00001111,0.,0.,0.,0.,0.,0.,0.
 ,0.00001401,-0.00008281,0.,-0.00040356,0.00005747,0.,0.00005422,-0.000
 06962,0.,0.00012863,-0.00006586,0.,-0.00002333,0.00002881,0.,0.0011135
 6,0.00004028,-0.00003355,0.,-0.00011554,0.00018561,0.,0.00001616,0.000
 03319,0.,-0.00063796,-0.00047249,0.,-0.00000524,-0.00012508,0.,-0.0000
 2841,0.00019403,0.,0.,0.,0.,0.00001111,-0.00004830,0.,0.,0.,0.,0.,0.,0
 .,-0.00008281,0.00004567,0.,0.00005747,-0.00015438,0.,-0.00006962,-0.0
 0000191,0.,-0.00006586,-0.00005050,0.,0.00002881,0.00000240,0.,0.00085
 160,0.00042531,0.,0.,0.00002976,0.,0.,0.00020488,0.,0.,0.00003570,0.,0
 .,0.00031556,0.,0.,0.00006357,0.,0.,-0.00016029,0.,0.,0.,0.,0.,-0.0000
 2934,0.,0.,0.,0.,0.,0.,0.,0.,-0.00005447,0.,0.,-0.00014176,0.,0.,-0.00
 004890,0.,0.,-0.00007211,0.,0.,0.00002109,0.,0.,-0.00016369\\-0.000308
 12,0.00001177,0.,-0.00002006,-0.00027397,0.,0.00028230,0.00011140,0.,-
 0.00111312,-0.00090086,0.,0.00025539,0.00006268,0.,-0.00016663,0.00076
 947,0.,0.00000784,-0.00000373,0.,-0.00487948,-0.00274650,0.,-0.0001501
 4,-0.00012629,0.,-0.00556982,0.00352800,0.,0.00022731,-0.00465205,0.,-
 0.00067785,0.00464817,0.,0.00566180,-0.00300364,0.,0.00490334,0.002898
 68,0.,0.00023649,-0.00017243,0.,0.00131073,-0.00015070,0.\\\@
 The archive entry for this job was punched.


 MEN HAVE BECOME THE TOOLS OF THEIR TOOLS... THOREAU   
 Job cpu time:       0 days  0 hours  0 minutes  0.5 seconds.
 Elapsed time:       0 days  0 hours  0 minutes  0.5 seconds.
 File lengths (MBytes):  RWF=      6 Int=      0 D2E=      0 Chk=      1 Scr=      1
 Normal termination of Gaussian DV at Sat Oct 22 11:18:40 2022.
