Title                                                                   
Freq      RAMBER                                                      ZDO                 
Number of atoms                            I               16
Info1-9                                    I   N=           9
          40          40           0           0           0         100
           6           8        1101
Full Title                                 C   N=           1
Title       
Route                                      C   N=           4
#p Amber=(SoftOnly,Print) nosymm Freq=intmodes  
Charge                                     I                0
Multiplicity                               I                1
Number of electrons                        I               24
Number of alpha electrons                  I               12
Number of beta electrons                   I               12
Number of basis functions                  I                0
Number of independent functions            I                0
Number of point charges in /Mol/           I                0
Number of translation vectors              I                0
Atomic numbers                             I   N=          16
           1           1           1           1           1           6
           6           6           7           6           6           6
           6           6           1           1
Nuclear charges                            R   N=          16
  1.00000000E+00  1.00000000E+00  1.00000000E+00  1.00000000E+00  1.00000000E+00
  2.00000000E+00  2.00000000E+00  2.00000000E+00  1.00000000E+00  2.00000000E+00
  2.00000000E+00  2.00000000E+00  2.00000000E+00  2.00000000E+00  1.00000000E+00
  1.00000000E+00
Current cartesian coordinates              R   N=          48
 -1.90801300E+00  4.73549682E+00  0.00000000E+00 -1.73371412E+00 -4.71647106E+00
  0.00000000E+00 -5.78617132E+00 -2.38593797E+00  0.00000000E+00  6.52541706E+00
 -1.55666190E-01  1.88972612E-06  3.76662101E+00  4.10682840E+00  0.00000000E+00
  3.06220859E+00  2.19800849E+00  0.00000000E+00  4.50188888E+00  5.75516091E-02
  0.00000000E+00  4.68918530E-01  1.41423891E+00  0.00000000E+00  2.95167473E+00
 -2.03619691E+00  0.00000000E+00  4.66828493E-01 -1.26638107E+00  0.00000000E+00
 -1.85137224E+00  2.69073190E+00  0.00000000E+00 -1.76166694E+00 -2.67092757E+00
  0.00000000E+00 -4.06582702E+00  1.30265058E+00  0.00000000E+00 -4.02173026E+00
 -1.35324611E+00  0.00000000E+00 -5.86735773E+00  2.26944958E+00  1.88972612E-06
  3.54600115E+00 -3.83607978E+00  0.00000000E+00
Number of symbols in /Mol/                 I                0
Redundant internal dimensions              I   N=           4
          84          17          27          40
Redundant internal coordinate indices      I   N=         336
           1          11           0           0           2          12
           0           0           3          14           0           0
           4           7           0           0           5           6
           0           0           6           7           0           0
           6           8           0           0           7           9
           0           0           8          10           0           0
           8          11           0           0           9          10
           0           0           9          16           0           0
          10          12           0           0          11          13
           0           0          12          14           0           0
          13          14           0           0          13          15
           0           0           5           6           7           0
           5           6           8           0           7           6
           8           0           4           7           6           0
           4           7           9           0           6           7
           9           0           6           8          10           0
           6           8          11           0          10           8
          11           0           7           9          10           0
           7           9          16           0          10           9
          16           0           8          10           9           0
           8          10          12           0           9          10
          12           0           1          11           8           0
           1          11          13           0           8          11
          13           0           2          12          10           0
           2          12          14           0          10          12
          14           0          11          13          14           0
          11          13          15           0          14          13
          15           0           3          14          12           0
           3          14          13           0          12          14
          13           0           5           6           7           4
           5           6           7           9           8           6
           7           4           8           6           7           9
           5           6           8          10           5           6
           8          11           7           6           8          10
           7           6           8          11           4           7
           9          10           4           7           9          16
           6           7           9          10           6           7
           9          16           6           8          10           9
           6           8          10          12          11           8
          10           9          11           8          10          12
           6           8          11           1           6           8
          11          13          10           8          11           1
          10           8          11          13           7           9
          10           8           7           9          10          12
          16           9          10           8          16           9
          10          12           8          10          12           2
           8          10          12          14           9          10
          12           2           9          10          12          14
           1          11          13          14           1          11
          13          15           8          11          13          14
           8          11          13          15           2          12
          14           3           2          12          14          13
          10          12          14           3          10          12
          14          13          11          13          14           3
          11          13          14          12          15          13
          14           3          15          13          14          12
Redundant internal coordinates             R   N=          84
  2.04554926E+00  2.04573447E+00  2.04443262E+00  2.03473048E+00  2.03464747E+00
  2.57958039E+00  2.70914158E+00  2.60517691E+00  2.68062079E+00  2.64824161E+00
  2.60136065E+00  1.89546888E+00  2.63418731E+00  2.61353777E+00  2.61613658E+00
  2.65626274E+00  2.04455698E+00  2.19596397E+00  2.21782430E+00  1.86939703E+00
  2.26788022E+00  2.10314398E+00  1.91216111E+00  1.86507725E+00  2.34513800E+00
  2.07297005E+00  1.90769888E+00  2.18533260E+00  2.19015383E+00  1.87044368E+00
  2.13395367E+00  2.27878796E+00  2.10144303E+00  2.10301548E+00  2.07872679E+00
  2.11950960E+00  2.11230773E+00  2.05136798E+00  2.11410696E+00  2.08914101E+00
  2.07993734E+00  2.08422006E+00  2.08372008E+00  2.11524517E+00  1.21130952E-06
  3.14159265E+00 -3.14159144E+00  0.00000000E+00  3.14159265E+00  0.00000000E+00
  0.00000000E+00  3.14159265E+00  3.14159158E+00 -1.07783921E-06  0.00000000E+00
  3.14159265E+00  0.00000000E+00  3.14159265E+00  3.14159265E+00  0.00000000E+00
  0.00000000E+00  3.14159265E+00  3.14159265E+00  0.00000000E+00  0.00000000E+00
  3.14159265E+00  3.14159265E+00  0.00000000E+00  3.14159265E+00  0.00000000E+00
  0.00000000E+00  3.14159265E+00  3.14159265E+00 -1.06394708E-06  0.00000000E+00
  3.14159159E+00  0.00000000E+00  3.14159265E+00  3.14159265E+00  0.00000000E+00
  3.14159265E+00  0.00000000E+00  1.05861188E-06 -3.14159159E+00
ZRed-IntVec                                I   N=          84
           0           0           0           0           0           0
           0           0           0           0           0           0
           0           0           0           0           0           0
           0           0           0           0           0           0
           0           0           0           0           0           0
           0           0           0           0           0           0
           0           0           0           0           0           0
           0           0           0           0           0           0
           0           0           0           0           0           0
           0           0           0           0           0           0
           0           0           0           0           0           0
           0           0           0           0           0           0
           0           0           0           0           0           0
           0           0           0           0           0           0
ZRed-FPVec                                 R   N=          84
  0.00000000E+00  0.00000000E+00  0.00000000E+00  0.00000000E+00  0.00000000E+00
  0.00000000E+00  0.00000000E+00  0.00000000E+00  0.00000000E+00  0.00000000E+00
  0.00000000E+00  0.00000000E+00  0.00000000E+00  0.00000000E+00  0.00000000E+00
  0.00000000E+00  0.00000000E+00  0.00000000E+00  0.00000000E+00  0.00000000E+00
  0.00000000E+00  0.00000000E+00  0.00000000E+00  0.00000000E+00  0.00000000E+00
  0.00000000E+00  0.00000000E+00  0.00000000E+00  0.00000000E+00  0.00000000E+00
  0.00000000E+00  0.00000000E+00  0.00000000E+00  0.00000000E+00  0.00000000E+00
  0.00000000E+00  0.00000000E+00  0.00000000E+00  0.00000000E+00  0.00000000E+00
  0.00000000E+00  0.00000000E+00  0.00000000E+00  0.00000000E+00  0.00000000E+00
  0.00000000E+00  0.00000000E+00  0.00000000E+00  0.00000000E+00  0.00000000E+00
  0.00000000E+00  0.00000000E+00  0.00000000E+00  0.00000000E+00  0.00000000E+00
  0.00000000E+00  0.00000000E+00  0.00000000E+00  0.00000000E+00  0.00000000E+00
  0.00000000E+00  0.00000000E+00  0.00000000E+00  0.00000000E+00  0.00000000E+00
  0.00000000E+00  0.00000000E+00  0.00000000E+00  0.00000000E+00  0.00000000E+00
  0.00000000E+00  0.00000000E+00  0.00000000E+00  0.00000000E+00  0.00000000E+00
  0.00000000E+00  0.00000000E+00  0.00000000E+00  0.00000000E+00  0.00000000E+00
  0.00000000E+00  0.00000000E+00  0.00000000E+00  0.00000000E+00
ZRed-Constraint1                           R   N=          84
  2.04554926E+00  2.04573447E+00  2.04443262E+00  2.03473048E+00  2.03464747E+00
  2.57958039E+00  2.70914158E+00  2.60517691E+00  2.68062079E+00  2.64824161E+00
  2.60136065E+00  1.89546888E+00  2.63418731E+00  2.61353777E+00  2.61613658E+00
  2.65626274E+00  2.04455698E+00  2.19596397E+00  2.21782430E+00  1.86939703E+00
  2.26788022E+00  2.10314398E+00  1.91216111E+00  1.86507725E+00  2.34513800E+00
  2.07297005E+00  1.90769888E+00  2.18533260E+00  2.19015383E+00  1.87044368E+00
  2.13395367E+00  2.27878796E+00  2.10144303E+00  2.10301548E+00  2.07872679E+00
  2.11950960E+00  2.11230773E+00  2.05136798E+00  2.11410696E+00  2.08914101E+00
  2.07993734E+00  2.08422006E+00  2.08372008E+00  2.11524517E+00  1.21130952E-06
  3.14159265E+00 -3.14159144E+00  0.00000000E+00  3.14159265E+00  0.00000000E+00
  0.00000000E+00  3.14159265E+00  3.14159158E+00 -1.07783921E-06  0.00000000E+00
  3.14159265E+00  0.00000000E+00  3.14159265E+00  3.14159265E+00  0.00000000E+00
  0.00000000E+00  3.14159265E+00  3.14159265E+00  0.00000000E+00  0.00000000E+00
  3.14159265E+00  3.14159265E+00  0.00000000E+00  3.14159265E+00  0.00000000E+00
  0.00000000E+00  3.14159265E+00  3.14159265E+00 -1.06394708E-06  0.00000000E+00
  3.14159159E+00  0.00000000E+00  3.14159265E+00  3.14159265E+00  0.00000000E+00
  3.14159265E+00  0.00000000E+00  1.05861188E-06 -3.14159159E+00
ZRed-Constraint2                           R   N=          84
  0.00000000E+00  0.00000000E+00  0.00000000E+00  0.00000000E+00  0.00000000E+00
  0.00000000E+00  0.00000000E+00  0.00000000E+00  0.00000000E+00  0.00000000E+00
  0.00000000E+00  0.00000000E+00  0.00000000E+00  0.00000000E+00  0.00000000E+00
  0.00000000E+00  0.00000000E+00  0.00000000E+00  0.00000000E+00  0.00000000E+00
  0.00000000E+00  0.00000000E+00  0.00000000E+00  0.00000000E+00  0.00000000E+00
  0.00000000E+00  0.00000000E+00  0.00000000E+00  0.00000000E+00  0.00000000E+00
  0.00000000E+00  0.00000000E+00  0.00000000E+00  0.00000000E+00  0.00000000E+00
  0.00000000E+00  0.00000000E+00  0.00000000E+00  0.00000000E+00  0.00000000E+00
  0.00000000E+00  0.00000000E+00  0.00000000E+00  0.00000000E+00  0.00000000E+00
  0.00000000E+00  0.00000000E+00  0.00000000E+00  0.00000000E+00  0.00000000E+00
  0.00000000E+00  0.00000000E+00  0.00000000E+00  0.00000000E+00  0.00000000E+00
  0.00000000E+00  0.00000000E+00  0.00000000E+00  0.00000000E+00  0.00000000E+00
  0.00000000E+00  0.00000000E+00  0.00000000E+00  0.00000000E+00  0.00000000E+00
  0.00000000E+00  0.00000000E+00  0.00000000E+00  0.00000000E+00  0.00000000E+00
  0.00000000E+00  0.00000000E+00  0.00000000E+00  0.00000000E+00  0.00000000E+00
  0.00000000E+00  0.00000000E+00  0.00000000E+00  0.00000000E+00  0.00000000E+00
  0.00000000E+00  0.00000000E+00  0.00000000E+00  0.00000000E+00
Force Field                                I                2
Atom Types                                 C   N=          16
#200HA      #200HA      #200HA      #200HA      #200HA      
#200CA      #200CA      #200CA      #200NA      #200CA      
#200CA      #200CA      #200CA      #200CA      #200HA      
#200HA      
Int Atom Types                             I   N=          16
    20001033    20001033    20001033    20001033    20001033    20001003
    20001003    20001003    20001015    20001003    20001003    20001003
    20001003    20001003    20001033    20001033
MM charges                                 R   N=          16
  4.94065646-324  4.94065646-324  4.94065646-324  4.94065646-324  4.94065646-324
  5.92878775-323  5.92878775-323  5.92878775-323  6.91691904-323  5.92878775-323
  5.92878775-323  5.92878775-323  5.92878775-323  5.92878775-323  4.94065646-324
  4.94065646-324
Integer atomic weights                     I   N=          16
           0           0           0           0           0           0
           0           0           0           0           0           0
           0           0           0           0
Real atomic weights                        R   N=          16
  0.00000000E+00  0.00000000E+00  0.00000000E+00  0.00000000E+00  0.00000000E+00
  0.00000000E+00  0.00000000E+00  0.00000000E+00  0.00000000E+00  0.00000000E+00
  0.00000000E+00  0.00000000E+00  0.00000000E+00  0.00000000E+00  0.00000000E+00
  0.00000000E+00
Atom fragment info                         I   N=          16
           0           0           0           0           0           0
           0           0           0           0           0           0
           0           0           0           0
Atom residue num                           I   N=          16
           0           0           0           0           0           0
           0           0           0           0           0           0
           0           0           0           0
Nuclear spins                              I   N=          16
           0           0           0           0           0           0
           0           0           0           0           0           0
           0           0           0           0
Nuclear ZEff                               R   N=          16
  0.00000000E+00  0.00000000E+00  0.00000000E+00  0.00000000E+00  0.00000000E+00
  0.00000000E+00  0.00000000E+00  0.00000000E+00  0.00000000E+00  0.00000000E+00
  0.00000000E+00  0.00000000E+00  0.00000000E+00  0.00000000E+00  0.00000000E+00
  0.00000000E+00
Nuclear ZNuc                               R   N=          16
  0.00000000E+00  0.00000000E+00  0.00000000E+00  0.00000000E+00  0.00000000E+00
  0.00000000E+00  0.00000000E+00  0.00000000E+00  0.00000000E+00  0.00000000E+00
  0.00000000E+00  0.00000000E+00  0.00000000E+00  0.00000000E+00  0.00000000E+00
  0.00000000E+00
Nuclear QMom                               R   N=          16
  0.00000000E+00  0.00000000E+00  0.00000000E+00  0.00000000E+00  0.00000000E+00
  0.00000000E+00  0.00000000E+00  0.00000000E+00  0.00000000E+00  0.00000000E+00
  0.00000000E+00  0.00000000E+00  0.00000000E+00  0.00000000E+00  0.00000000E+00
  0.00000000E+00
Nuclear GFac                               R   N=          16
  0.00000000E+00  0.00000000E+00  0.00000000E+00  0.00000000E+00  0.00000000E+00
  0.00000000E+00  0.00000000E+00  0.00000000E+00  0.00000000E+00  0.00000000E+00
  0.00000000E+00  0.00000000E+00  0.00000000E+00  0.00000000E+00  0.00000000E+00
  0.00000000E+00
MicOpt                                     I   N=          16
           0           0           0           0           0           0
           0           0           0           0           0           0
           0           0           0           0
PDB Atom names                             H   N=          16
                                                                  
                                                      
Number of residues                         I                0
Number of secondary structures             I                0
Number of contracted shells                I               16
Number of primitive shells                 I               16
Pure/Cartesian d shells                    I                0
Pure/Cartesian f shells                    I                0
Highest angular momentum                   I                0
Largest degree of contraction              I                1
Shell types                                I   N=          16
           0           0           0           0           0           0
           0           0           0           0           0           0
           0           0           0           0
Number of primitives per shell             I   N=          16
           1           1           1           1           1           1
           1           1           1           1           1           1
           1           1           1           1
Shell to atom map                          I   N=          16
           1           2           3           4           5           6
           7           8           9          10          11          12
          13          14          15          16
Primitive exponents                        R   N=          16
  1.00000000E+00  1.00000000E+00  1.00000000E+00  1.00000000E+00  1.00000000E+00
  1.00000000E+00  1.00000000E+00  1.00000000E+00  1.00000000E+00  1.00000000E+00
  1.00000000E+00  1.00000000E+00  1.00000000E+00  1.00000000E+00  1.00000000E+00
  1.00000000E+00
Contraction coefficients                   R   N=          16
  1.00000000E+00  1.00000000E+00  1.00000000E+00  1.00000000E+00  1.00000000E+00
  1.00000000E+00  1.00000000E+00  1.00000000E+00  1.00000000E+00  1.00000000E+00
  1.00000000E+00  1.00000000E+00  1.00000000E+00  1.00000000E+00  1.00000000E+00
  1.00000000E+00
Coordinates of each shell                  R   N=          48
 -1.90801300E+00  4.73549682E+00  0.00000000E+00 -1.73371412E+00 -4.71647106E+00
  0.00000000E+00 -5.78617132E+00 -2.38593797E+00  0.00000000E+00  6.52541706E+00
 -1.55666190E-01  1.88972612E-06  3.76662101E+00  4.10682840E+00  0.00000000E+00
  3.06220859E+00  2.19800849E+00  0.00000000E+00  4.50188888E+00  5.75516091E-02
  0.00000000E+00  4.68918530E-01  1.41423891E+00  0.00000000E+00  2.95167473E+00
 -2.03619691E+00  0.00000000E+00  4.66828493E-01 -1.26638107E+00  0.00000000E+00
 -1.85137224E+00  2.69073190E+00  0.00000000E+00 -1.76166694E+00 -2.67092757E+00
  0.00000000E+00 -4.06582702E+00  1.30265058E+00  0.00000000E+00 -4.02173026E+00
 -1.35324611E+00  0.00000000E+00 -5.86735773E+00  2.26944958E+00  1.88972612E-06
  3.54600115E+00 -3.83607978E+00  0.00000000E+00
Constraint Structure                       R   N=          48
 -1.90801300E+00  4.73549682E+00  0.00000000E+00 -1.73371412E+00 -4.71647106E+00
  0.00000000E+00 -5.78617132E+00 -2.38593797E+00  0.00000000E+00  6.52541706E+00
 -1.55666190E-01  1.88972612E-06  3.76662101E+00  4.10682840E+00  0.00000000E+00
  3.06220859E+00  2.19800849E+00  0.00000000E+00  4.50188888E+00  5.75516091E-02
  0.00000000E+00  4.68918530E-01  1.41423891E+00  0.00000000E+00  2.95167473E+00
 -2.03619691E+00  0.00000000E+00  4.66828493E-01 -1.26638107E+00  0.00000000E+00
 -1.85137224E+00  2.69073190E+00  0.00000000E+00 -1.76166694E+00 -2.67092757E+00
  0.00000000E+00 -4.06582702E+00  1.30265058E+00  0.00000000E+00 -4.02173026E+00
 -1.35324611E+00  0.00000000E+00 -5.86735773E+00  2.26944958E+00  1.88972612E-06
  3.54600115E+00 -3.83607978E+00  0.00000000E+00
Num ILSW                                   I              100
ILSW                                       I   N=         100
           0           0           0           0           0           0
           0           0           0           0           0          -1
           5           0           0           0           2           0
           0           0           0           0           1           0
           1           1           0           0           0           0
           0           0      100000           0          -1           0
           0           0           0           0           0           0
           0           0           0         101           0           0
           0 -2000000000           1           0           0           0
           0           0           4          41           0           0
           0           0           0           0           0           0
           0           0           0          16           0           1
           0           0           0           0           0           0
           0           0           0           0           0           0
           0           0           0           0           0           0
           0           0           0           0           0           0
           0           0           0           0
Num RLSW                                   I               41
RLSW                                       R   N=          41
  1.00000000E+00  1.00000000E+00  1.00000000E+00  1.00000000E+00  1.00000000E+00
  0.00000000E+00  0.00000000E+00  1.00000000E+00  0.00000000E+00  0.00000000E+00
  0.00000000E+00  0.00000000E+00  1.00000000E+00  0.00000000E+00  0.00000000E+00
  0.00000000E+00  0.00000000E+00  1.00000000E+00  0.00000000E+00  0.00000000E+00
  0.00000000E+00  0.00000000E+00  1.00000000E+00  0.00000000E+00  0.00000000E+00
  0.00000000E+00  0.00000000E+00  1.00000000E+00  0.00000000E+00  0.00000000E+00
  0.00000000E+00  0.00000000E+00  1.00000000E+00  0.00000000E+00  0.00000000E+00
  0.00000000E+00  0.00000000E+00  0.00000000E+00  1.00000000E+00  1.00000000E+00
  0.00000000E+00
MxBond                                     I                3
NBond                                      I   N=          16
           1           1           1           1           1           3
           3           3           3           3           3           3
           3           3           1           1
IBond                                      I   N=          48
          11           0           0          12           0           0
          14           0           0           7           0           0
           6           0           0           5           7           8
           4           6           9           6          10          11
           7          10          16           8           9          12
           1           8          13           2          10          14
          11          14          15           3          12          13
          13           0           0           9           0           0
RBond                                      R   N=          48
  1.00000000E+00  0.00000000E+00  0.00000000E+00  1.00000000E+00  0.00000000E+00
  0.00000000E+00  1.00000000E+00  0.00000000E+00  0.00000000E+00  1.00000000E+00
  0.00000000E+00  0.00000000E+00  1.00000000E+00  0.00000000E+00  0.00000000E+00
  1.00000000E+00  2.00000000E+00  1.00000000E+00  1.00000000E+00  2.00000000E+00
  1.00000000E+00  1.00000000E+00  1.50000000E+00  1.50000000E+00  1.00000000E+00
  1.00000000E+00  1.00000000E+00  1.50000000E+00  1.00000000E+00  1.50000000E+00
  1.00000000E+00  1.50000000E+00  1.50000000E+00  1.00000000E+00  1.50000000E+00
  1.50000000E+00  1.50000000E+00  1.50000000E+00  1.00000000E+00  1.00000000E+00
  1.50000000E+00  1.50000000E+00  1.00000000E+00  0.00000000E+00  0.00000000E+00
  1.00000000E+00  0.00000000E+00  0.00000000E+00
Virial Ratio                               R      0.000000000000000E+00
SCF Energy                                 R      5.103715820715814E-04
Total Energy                               R      5.103715820715814E-04
RMS Force                                  R      2.025723054279398E-03
External E-field                           R   N=         105
  0.00000000E+00  0.00000000E+00  0.00000000E+00  0.00000000E+00  0.00000000E+00
  0.00000000E+00  0.00000000E+00  0.00000000E+00  0.00000000E+00  0.00000000E+00
  0.00000000E+00  0.00000000E+00  0.00000000E+00  0.00000000E+00  0.00000000E+00
  0.00000000E+00  0.00000000E+00  0.00000000E+00  0.00000000E+00  0.00000000E+00
  0.00000000E+00  0.00000000E+00  0.00000000E+00  0.00000000E+00  0.00000000E+00
  0.00000000E+00  0.00000000E+00  0.00000000E+00  0.00000000E+00  0.00000000E+00
  0.00000000E+00  0.00000000E+00  0.00000000E+00  0.00000000E+00  0.00000000E+00
  0.00000000E+00  0.00000000E+00  0.00000000E+00  0.00000000E+00  0.00000000E+00
  0.00000000E+00  0.00000000E+00  0.00000000E+00  0.00000000E+00  0.00000000E+00
  0.00000000E+00  0.00000000E+00  0.00000000E+00  0.00000000E+00  0.00000000E+00
  0.00000000E+00  0.00000000E+00  0.00000000E+00  0.00000000E+00  0.00000000E+00
  0.00000000E+00  0.00000000E+00  0.00000000E+00  0.00000000E+00  0.00000000E+00
  0.00000000E+00  0.00000000E+00  0.00000000E+00  0.00000000E+00  0.00000000E+00
  0.00000000E+00  0.00000000E+00  0.00000000E+00  0.00000000E+00  0.00000000E+00
  0.00000000E+00  0.00000000E+00  0.00000000E+00  0.00000000E+00  0.00000000E+00
  0.00000000E+00  0.00000000E+00  0.00000000E+00  0.00000000E+00  0.00000000E+00
  0.00000000E+00  0.00000000E+00  0.00000000E+00  0.00000000E+00  0.00000000E+00
  0.00000000E+00  0.00000000E+00  0.00000000E+00  0.00000000E+00  0.00000000E+00
  0.00000000E+00  0.00000000E+00  0.00000000E+00  0.00000000E+00  0.00000000E+00
  0.00000000E+00  0.00000000E+00  0.00000000E+00  0.00000000E+00  0.00000000E+00
  0.00000000E+00  0.00000000E+00  0.00000000E+00  0.00000000E+00  0.00000000E+00
IOpCl                                      I                0
IROHF                                      I                0
Grdnt Energy                               R      5.103715820715814E-04
Grdnt NVar                                 I               84
Grdnt IGetFC                               I                4
Internal Forces                            R   N=          84
 -2.02965157E-05 -2.73674658E-04  2.99909475E-04  1.01258981E-03 -1.47224638E-04
  1.35594826E-04 -2.72255359E-04  1.41672196E-03  4.07632740E-03  5.73781714E-03
 -5.16987641E-04 -5.54080554E-04  5.21125937E-03  5.82112918E-03  6.20445534E-03
  5.55725452E-03  2.89914635E-04 -1.66853041E-04 -6.10198213E-04  7.77051255E-04
 -9.89175069E-04  1.07107048E-03 -8.18954102E-05 -6.60729258E-04  3.80225763E-04
  2.80503495E-04  3.65634750E-04  9.51982846E-04 -1.31761760E-03 -4.00061336E-04
 -6.02637187E-04  1.00269852E-03 -6.79120316E-04 -4.97501571E-05  7.28870473E-04
 -4.60718207E-04 -4.12034548E-04  8.72752755E-04 -9.85311771E-04  4.51652807E-04
  5.33658964E-04  1.94575360E-04  9.96024053E-05 -2.94177765E-04 -7.60977537E-10
  4.02574251E-10 -9.47212163E-10  2.16339624E-10 -3.86621076E-10 -2.22088457E-10
 -1.97355334E-10 -3.28227147E-11 -6.91387494E-10 -7.11783671E-10 -1.53924022E-10
 -1.74320199E-10  1.05620849E-10  9.78488084E-11 -2.85676094E-11 -3.63396497E-11
 -4.55029016E-11 -1.13293510E-10  1.34135013E-10  6.63444028E-11  2.46016936E-11
  3.32526040E-11  4.50677405E-11  5.37186511E-11 -3.26112391E-11 -1.18243205E-11
 -4.23861788E-11 -2.15992593E-11 -1.17962234E-10 -1.64633274E-10 -5.01089345E-11
 -9.67799736E-11 -3.46176483E-11  5.04298221E-11 -5.53139876E-11  2.97334855E-11
  8.59957666E-11  9.72254713E-13  1.75081648E-10  9.00581358E-11
Internal Force Constants                   R   N=        3570
  1.53409997E-04  1.99197784E-05  8.66440787E-05  2.58562715E-05  2.34195801E-04
  1.81267100E-04  1.44407885E-05  1.54582616E-05  9.72370515E-06  2.67490027E-04
  4.95750390E-05  1.19929540E-05  9.28969873E-06  1.47236826E-04  9.09901119E-05
 -4.18347005E-05 -1.97011950E-05 -1.33856550E-05  1.55440718E-04  1.30006507E-04
  4.92941949E-04  1.56232502E-04 -7.42908932E-06 -1.29286696E-05  5.92829946E-05
  1.31196850E-04  1.37843074E-04  1.08783777E-03 -1.84684918E-05 -3.13771437E-05
 -7.10030137E-06  5.86192999E-04 -2.78598510E-05  3.85364960E-05  1.10886220E-05
  1.36092119E-03  4.47464986E-05  1.54076905E-05 -4.09662722E-06  6.98457347E-05
  4.97927823E-05  2.39551961E-04  1.24408367E-04  1.92009669E-04  4.49795737E-03
  1.98040847E-04 -2.01818022E-05 -1.33890822E-05 -1.88220364E-05  1.02488899E-04
  8.19989039E-04  9.91181537E-04  2.90279981E-04  4.62446202E-03  7.45035228E-03
 -4.02051940E-05  2.25298450E-04 -3.81202609E-05  9.36319042E-05  1.54966163E-06