 Entering Gaussian System, Link 0=g16
 Input=indole_qm_15227.gjf
 Output=/home/e.falbo/results/force_field/indole/indole_qm.log
 Initial command:
 /cm/shared/gaussian/versions/g16.c01/intel64-sandybridge/g16/l1.exe "/local/scratch/e.falbo/gaurun15227/Gau-28388.inp" -scrdir="/local/scratch/e.falbo/gaurun15227/"
 Entering Link 1 = /cm/shared/gaussian/versions/g16.c01/intel64-sandybridge/g16/l1.exe PID=     28389.
  
 Copyright (c) 1988-2019, Gaussian, Inc.  All Rights Reserved.
  
 This is part of the Gaussian(R) 16 program.  It is based on
 the Gaussian(R) 09 system (copyright 2009, Gaussian, Inc.),
 the Gaussian(R) 03 system (copyright 2003, Gaussian, Inc.),
 the Gaussian(R) 98 system (copyright 1998, Gaussian, Inc.),
 the Gaussian(R) 94 system (copyright 1995, Gaussian, Inc.),
 the Gaussian 92(TM) system (copyright 1992, Gaussian, Inc.),
 the Gaussian 90(TM) system (copyright 1990, Gaussian, Inc.),
 the Gaussian 88(TM) system (copyright 1988, Gaussian, Inc.),
 the Gaussian 86(TM) system (copyright 1986, Carnegie Mellon
 University), and the Gaussian 82(TM) system (copyright 1983,
 Carnegie Mellon University). Gaussian is a federally registered
 trademark of Gaussian, Inc.
  
 This software contains proprietary and confidential information,
 including trade secrets, belonging to Gaussian, Inc.
  
 This software is provided under written license and may be
 used, copied, transmitted, or stored only in accord with that
 written license.
  
 The following legend is applicable only to US Government
 contracts under FAR:
  
                    RESTRICTED RIGHTS LEGEND
  
 Use, reproduction and disclosure by the US Government is
 subject to restrictions as set forth in subparagraphs (a)
 and (c) of the Commercial Computer Software - Restricted
 Rights clause in FAR 52.227-19.
  
 Gaussian, Inc.
 340 Quinnipiac St., Bldg. 40, Wallingford CT 06492
  
  
 ---------------------------------------------------------------
 Warning -- This program may not be used in any manner that
 competes with the business of Gaussian, Inc. or will provide
 assistance to any competitor of Gaussian, Inc.  The licensee
 of this program is prohibited from giving any competitor of
 Gaussian, Inc. access to this program.  By using this program,
 the user acknowledges that Gaussian, Inc. is engaged in the
 business of creating and licensing software in the field of
 computational chemistry and represents and warrants to the
 licensee that it is not a competitor of Gaussian, Inc. and that
 it will not use this program in any manner prohibited above.
 ---------------------------------------------------------------
  

 Cite this work as:
 Gaussian 16, Revision C.01,
 M. J. Frisch, G. W. Trucks, H. B. Schlegel, G. E. Scuseria, 
 M. A. Robb, J. R. Cheeseman, G. Scalmani, V. Barone, 
 G. A. Petersson, H. Nakatsuji, X. Li, M. Caricato, A. V. Marenich, 
 J. Bloino, B. G. Janesko, R. Gomperts, B. Mennucci, H. P. Hratchian, 
 J. V. Ortiz, A. F. Izmaylov, J. L. Sonnenberg, D. Williams-Young, 
 F. Ding, F. Lipparini, F. Egidi, J. Goings, B. Peng, A. Petrone, 
 T. Henderson, D. Ranasinghe, V. G. Zakrzewski, J. Gao, N. Rega, 
 G. Zheng, W. Liang, M. Hada, M. Ehara, K. Toyota, R. Fukuda, 
 J. Hasegawa, M. Ishida, T. Nakajima, Y. Honda, O. Kitao, H. Nakai, 
 T. Vreven, K. Throssell, J. A. Montgomery, Jr., J. E. Peralta, 
 F. Ogliaro, M. J. Bearpark, J. J. Heyd, E. N. Brothers, K. N. Kudin, 
 V. N. Staroverov, T. A. Keith, R. Kobayashi, J. Normand, 
 K. Raghavachari, A. P. Rendell, J. C. Burant, S. S. Iyengar, 
 J. Tomasi, M. Cossi, J. M. Millam, M. Klene, C. Adamo, R. Cammi, 
 J. W. Ochterski, R. L. Martin, K. Morokuma, O. Farkas, 
 J. B. Foresman, and D. J. Fox, Gaussian, Inc., Wallingford CT, 2019.
 
 ******************************************
 Gaussian 16:  ES64L-G16RevC.01  3-Jul-2019
                26-Sep-2022 
 ******************************************
 %Mem=58GB
 %NProcShared=16
 Will use up to   16 processors via shared memory.
 %Chk=indole_qm.chk
 ----------------------------------------------------------------------
 #p opt=(calcall,tight,maxstep=7,maxcycles=100) freq b3lyp def2tzvpp po
 p=cm5
 ----------------------------------------------------------------------
 1/6=100,7=10,8=7,10=4,18=20,19=15,26=3,38=1/1,3;
 2/9=110,12=2,17=6,18=5,40=1/2;
 3/5=44,7=202,11=2,25=1,30=1,71=2,74=-5,140=1/1,2,3;
 4//1;
 5/5=2,38=5/2;
 8/6=4,10=90,11=11/1;
 11/6=1,8=1,9=11,15=111,16=1/1,2,10;
 10/6=1/2;
 6/7=2,8=2,9=2,10=2,18=1,28=1,79=1/1;
 7/10=1,25=1/1,2,3,16;
 1/6=100,7=10,8=7,10=4,18=20,19=15,26=3/3(3);
 2/9=110/2;
 7/8=1,9=1,25=1,44=-1/16;
 99//99;
 2/9=110/2;
 3/5=44,7=202,11=2,25=1,30=1,71=2,74=-5,140=1/1,2,3;
 4/5=5,16=3,69=1/1;
 5/5=2,38=5/2;
 8/6=4,10=90,11=11/1;
 11/6=1,8=1,9=11,15=111,16=1/1,2,10;
 10/6=1/2;
 7/10=1,25=1/1,2,3,16;
 1/6=100,7=10,8=7,10=4,18=20,19=15,26=3/3(-8);
 2/9=110/2;
 6/7=2,8=2,9=2,10=2,18=1,19=2,28=1,79=1/1;
 7/8=1,9=1,25=1,44=-1/16;
 99//99;
 Leave Link    1 at Mon Sep 26 11:24:01 2022, MaxMem=  7784628224 cpu:               0.6 elap:               0.0
 (Enter /cm/shared/gaussian/versions/g16.c01/intel64-sandybridge/g16/l101.exe)
 -------------------
 Title Card Required
 -------------------
 Symbolic Z-matrix:
 Charge =  0 Multiplicity = 1
 H-HA                     0.61919   2.20938  -0.25388 
 H-HA                     4.56939  -0.8092    0.4748 
 H-HA                     4.77636   1.65738   0.73303 
 H-HA                     0.23147  -2.93293  -0.80679 
 H-HA                    -0.81002  -0.42527  -0.81221 
 C-CA                     0.22384  -0.71508  -0.5923 
 C-CA                     0.72634  -1.99821  -0.57861 
 C-CA                     1.32415   0.15321  -0.24086 
 N-NA                     2.06344  -1.98018  -0.24565 
 C-CA                     2.46187  -0.67762  -0.0319 
 C-CA                     1.46527   1.54597  -0.09336 
 C-CA                     3.71368  -0.1581    0.31973 
 C-CA                     2.70655   2.06587   0.25502 
 C-CA                     3.81897   1.22148   0.46098 
 H-HA                     2.82597   3.13967   0.37071 
 H-HA                     2.6553   -2.79513  -0.1771 
 
 ITRead=  0  0  0  0  0  0  0  0  0  0  0  0  0  0  0  0
 MicOpt= -1 -1 -1 -1 -1 -1 -1 -1 -1 -1 -1 -1 -1 -1 -1 -1
 NAtoms=     16 NQM=       16 NQMF=       0 NMMI=      0 NMMIF=      0
                NMic=       0 NMicF=      0.
                    Isotopes and Nuclear Properties:
 (Nuclear quadrupole moments (NQMom) in fm**2, nuclear magnetic moments (NMagM)
  in nuclear magnetons)

  Atom         1           2           3           4           5           6           7           8           9          10
 IAtWgt=           1           1           1           1           1          12          12          12          14          12
 AtmWgt=   1.0078250   1.0078250   1.0078250   1.0078250   1.0078250  12.0000000  12.0000000  12.0000000  14.0030740  12.0000000
 NucSpn=           1           1           1           1           1           0           0           0           2           0
 AtZEff=  -0.0000000  -0.0000000  -0.0000000  -0.0000000  -0.0000000  -0.0000000  -0.0000000  -0.0000000  -0.0000000  -0.0000000
 NQMom=    0.0000000   0.0000000   0.0000000   0.0000000   0.0000000   0.0000000   0.0000000   0.0000000   2.0440000   0.0000000
 NMagM=    2.7928460   2.7928460   2.7928460   2.7928460   2.7928460   0.0000000   0.0000000   0.0000000   0.4037610   0.0000000
 AtZNuc=   1.0000000   1.0000000   1.0000000   1.0000000   1.0000000   6.0000000   6.0000000   6.0000000   7.0000000   6.0000000

  Atom        11          12          13          14          15          16
 IAtWgt=          12          12          12          12           1           1
 AtmWgt=  12.0000000  12.0000000  12.0000000  12.0000000   1.0078250   1.0078250
 NucSpn=           0           0           0           0           1           1
 AtZEff=  -0.0000000  -0.0000000  -0.0000000  -0.0000000  -0.0000000  -0.0000000
 NQMom=    0.0000000   0.0000000   0.0000000   0.0000000   0.0000000   0.0000000
 NMagM=    0.0000000   0.0000000   0.0000000   0.0000000   2.7928460   2.7928460
 AtZNuc=   6.0000000   6.0000000   6.0000000   6.0000000   1.0000000   1.0000000
 Leave Link  101 at Mon Sep 26 11:24:02 2022, MaxMem=  7784628224 cpu:               5.4 elap:               0.4
 (Enter /cm/shared/gaussian/versions/g16.c01/intel64-sandybridge/g16/l103.exe)

 GradGradGradGradGradGradGradGradGradGradGradGradGradGradGradGradGradGrad
 Berny optimization.
 Initialization pass.
                           ----------------------------
                           !    Initial Parameters    !
                           ! (Angstroms and Degrees)  !
 --------------------------                            --------------------------
 ! Name  Definition              Value          Derivative Info.                !
 --------------------------------------------------------------------------------
 ! R1    R(1,11)                 1.0871         calculate D2E/DX2 analytically  !
 ! R2    R(2,12)                 1.0864         calculate D2E/DX2 analytically  !
 ! R3    R(3,14)                 1.0866         calculate D2E/DX2 analytically  !
 ! R4    R(4,7)                  1.082          calculate D2E/DX2 analytically  !
 ! R5    R(5,6)                  1.096          calculate D2E/DX2 analytically  !
 ! R6    R(6,7)                  1.3781         calculate D2E/DX2 analytically  !
 ! R7    R(6,8)                  1.445          calculate D2E/DX2 analytically  !
 ! R8    R(7,9)                  1.3781         calculate D2E/DX2 analytically  !
 ! R9    R(8,10)                 1.4242         calculate D2E/DX2 analytically  !
 ! R10   R(8,11)                 1.4076         calculate D2E/DX2 analytically  !
 ! R11   R(9,10)                 1.3788         calculate D2E/DX2 analytically  !
 ! R12   R(9,16)                 1.0095         calculate D2E/DX2 analytically  !
 ! R13   R(10,12)                1.4002         calculate D2E/DX2 analytically  !
 ! R14   R(11,13)                1.3901         calculate D2E/DX2 analytically  !
 ! R15   R(12,14)                1.3908         calculate D2E/DX2 analytically  !
 ! R16   R(13,14)                1.4117         calculate D2E/DX2 analytically  !
 ! R17   R(13,15)                1.0866         calculate D2E/DX2 analytically  !
 ! A1    A(5,6,7)              126.3105         calculate D2E/DX2 analytically  !
 ! A2    A(5,6,8)              127.4582         calculate D2E/DX2 analytically  !
 ! A3    A(7,6,8)              106.225          calculate D2E/DX2 analytically  !
 ! A4    A(4,7,6)              129.4576         calculate D2E/DX2 analytically  !
 ! A5    A(4,7,9)              120.4007         calculate D2E/DX2 analytically  !
 ! A6    A(6,7,9)              110.1219         calculate D2E/DX2 analytically  !
 ! A7    A(6,8,10)             107.0633         calculate D2E/DX2 analytically  !
 ! A8    A(6,8,11)             134.1348         calculate D2E/DX2 analytically  !
 ! A9    A(10,8,11)            118.799          calculate D2E/DX2 analytically  !
 ! A10   A(7,9,10)             109.2808         calculate D2E/DX2 analytically  !
 ! A11   A(7,9,16)             125.0785         calculate D2E/DX2 analytically  !
 ! A12   A(10,9,16)            125.6393         calculate D2E/DX2 analytically  !
 ! A13   A(8,10,9)             107.3087         calculate D2E/DX2 analytically  !
 ! A14   A(8,10,12)            122.3157         calculate D2E/DX2 analytically  !
 ! A15   A(9,10,12)            130.3751         calculate D2E/DX2 analytically  !
 ! A16   A(1,11,8)             120.6851         calculate D2E/DX2 analytically  !
 ! A17   A(1,11,13)            120.2478         calculate D2E/DX2 analytically  !
 ! A18   A(8,11,13)            119.0663         calculate D2E/DX2 analytically  !
 ! A19   A(2,12,10)            121.1761         calculate D2E/DX2 analytically  !
 ! A20   A(2,12,14)            121.3574         calculate D2E/DX2 analytically  !
 ! A21   A(10,12,14)           117.4665         calculate D2E/DX2 analytically  !
 ! A22   A(11,13,14)           121.0971         calculate D2E/DX2 analytically  !
 ! A23   A(11,13,15)           119.6308         calculate D2E/DX2 analytically  !
 ! A24   A(14,13,15)           119.272          calculate D2E/DX2 analytically  !
 ! A25   A(3,14,12)            119.3456         calculate D2E/DX2 analytically  !
 ! A26   A(3,14,13)            119.3994         calculate D2E/DX2 analytically  !
 ! A27   A(12,14,13)           121.2549         calculate D2E/DX2 analytically  !
 ! D1    D(5,6,7,4)              2.3523         calculate D2E/DX2 analytically  !
 ! D2    D(5,6,7,9)           -179.2912         calculate D2E/DX2 analytically  !
 ! D3    D(8,6,7,4)           -178.5047         calculate D2E/DX2 analytically  !
 ! D4    D(8,6,7,9)             -0.1482         calculate D2E/DX2 analytically  !
 ! D5    D(5,6,8,10)           179.2658         calculate D2E/DX2 analytically  !
 ! D6    D(5,6,8,11)            -1.3948         calculate D2E/DX2 analytically  !
 ! D7    D(7,6,8,10)             0.1358         calculate D2E/DX2 analytically  !
 ! D8    D(7,6,8,11)           179.4752         calculate D2E/DX2 analytically  !
 ! D9    D(4,7,9,10)           178.6338         calculate D2E/DX2 analytically  !
 ! D10   D(4,7,9,16)            -0.9522         calculate D2E/DX2 analytically  !
 ! D11   D(6,7,9,10)             0.1049         calculate D2E/DX2 analytically  !
 ! D12   D(6,7,9,16)          -179.4811         calculate D2E/DX2 analytically  !
 ! D13   D(6,8,10,9)            -0.0751         calculate D2E/DX2 analytically  !
 ! D14   D(6,8,10,12)          179.7022         calculate D2E/DX2 analytically  !
 ! D15   D(11,8,10,9)         -179.5341         calculate D2E/DX2 analytically  !
 ! D16   D(11,8,10,12)           0.2432         calculate D2E/DX2 analytically  !
 ! D17   D(6,8,11,1)             0.1966         calculate D2E/DX2 analytically  !
 ! D18   D(6,8,11,13)         -179.4833         calculate D2E/DX2 analytically  !
 ! D19   D(10,8,11,1)          179.476          calculate D2E/DX2 analytically  !
 ! D20   D(10,8,11,13)          -0.2039         calculate D2E/DX2 analytically  !
 ! D21   D(7,9,10,8)            -0.0147         calculate D2E/DX2 analytically  !
 ! D22   D(7,9,10,12)         -179.7677         calculate D2E/DX2 analytically  !
 ! D23   D(16,9,10,8)          179.5684         calculate D2E/DX2 analytically  !
 ! D24   D(16,9,10,12)          -0.1846         calculate D2E/DX2 analytically  !
 ! D25   D(8,10,12,2)          179.9922         calculate D2E/DX2 analytically  !
 ! D26   D(8,10,12,14)          -0.0782         calculate D2E/DX2 analytically  !
 ! D27   D(9,10,12,2)           -0.2868         calculate D2E/DX2 analytically  !
 ! D28   D(9,10,12,14)         179.6428         calculate D2E/DX2 analytically  !
 ! D29   D(1,11,13,14)        -179.6699         calculate D2E/DX2 analytically  !
 ! D30   D(1,11,13,15)           0.2805         calculate D2E/DX2 analytically  !
 ! D31   D(8,11,13,14)           0.0114         calculate D2E/DX2 analytically  !
 ! D32   D(8,11,13,15)         179.9618         calculate D2E/DX2 analytically  !
 ! D33   D(2,12,14,3)           -0.0645         calculate D2E/DX2 analytically  !
 ! D34   D(2,12,14,13)         179.807          calculate D2E/DX2 analytically  !
 ! D35   D(10,12,14,3)        -179.994          calculate D2E/DX2 analytically  !
 ! D36   D(10,12,14,13)         -0.1225         calculate D2E/DX2 analytically  !
 ! D37   D(11,13,14,3)        -179.9697         calculate D2E/DX2 analytically  !
 ! D38   D(11,13,14,12)          0.1588         calculate D2E/DX2 analytically  !
 ! D39   D(15,13,14,3)           0.0797         calculate D2E/DX2 analytically  !
 ! D40   D(15,13,14,12)       -179.7917         calculate D2E/DX2 analytically  !
 --------------------------------------------------------------------------------
 Trust Radius=7.00D-02 FncErr=1.00D-07 GrdErr=1.00D-06 EigMax=2.50D+02 EigMin=1.00D-04
 Number of steps in this run=    100 maximum allowed number of steps=    100.
 GradGradGradGradGradGradGradGradGradGradGradGradGradGradGradGradGradGrad

 Leave Link  103 at Mon Sep 26 11:24:02 2022, MaxMem=  7784628224 cpu:               0.3 elap:               0.0
 (Enter /cm/shared/gaussian/versions/g16.c01/intel64-sandybridge/g16/l202.exe)
                          Input orientation:                          
 ---------------------------------------------------------------------
 Center     Atomic      Atomic             Coordinates (Angstroms)
 Number     Number       Type             X           Y           Z
 ---------------------------------------------------------------------
      1          1           0        0.619190    2.209380   -0.253880
      2          1           0        4.569390   -0.809200    0.474800
      3          1           0        4.776360    1.657380    0.733030
      4          1           0        0.231470   -2.932930   -0.806790
      5          1           0       -0.810020   -0.425270   -0.812210
      6          6           0        0.223840   -0.715080   -0.592300
      7          6           0        0.726340   -1.998210   -0.578610
      8          6           0        1.324150    0.153210   -0.240860
      9          7           0        2.063440   -1.980180   -0.245650
     10          6           0        2.461870   -0.677620   -0.031900
     11          6           0        1.465270    1.545970   -0.093360
     12          6           0        3.713680   -0.158100    0.319730
     13          6           0        2.706550    2.065870    0.255020
     14          6           0        3.818970    1.221480    0.460980
     15          1           0        2.825970    3.139670    0.370710
     16          1           0        2.655300   -2.795130   -0.177100
 ---------------------------------------------------------------------
                    Distance matrix (angstroms):
                    1          2          3          4          5
     1  H    0.000000
     2  H    5.024627   0.000000
     3  H    4.308220   2.488682   0.000000
     4  H    5.186462   4.997024   6.640634   0.000000
     5  H    3.048894   5.544533   6.158964   2.715343   0.000000
     6  C    2.970403   4.475641   5.301934   2.228211   1.096000
     7  C    4.221462   4.158419   5.611274   1.081972   2.211133
     8  C    2.173700   3.459767   3.889568   3.322422   2.283804
     9  N    4.431517   2.858326   4.642154   2.139795   3.315947
    10  C    3.432130   2.171566   3.375531   3.265205   3.373104
    11  C    1.087074   3.937663   3.414476   4.700190   3.095073
    12  C    3.938256   1.086378   2.143845   4.592877   4.670817
    13  C    2.153287   3.432856   2.163209   5.678157   4.439710
    14  C    3.424261   2.164944   1.086561   5.633518   5.075465
    15  H    2.474961   4.317861   2.476385   6.707787   5.227669
    16  H    5.403403   2.834190   5.015185   2.508077   4.245944
                    6          7          8          9         10
     6  C    0.000000
     7  C    1.378084   0.000000
     8  C    1.445033   2.258331   0.000000
     9  N    2.259374   1.378051   2.257859   0.000000
    10  C    2.307429   2.248314   1.424201   1.378803   0.000000
    11  C    2.627249   3.652766   1.407640   3.579767   2.437487
    12  C    3.649796   3.621770   2.474071   2.522483   1.400205
    13  C    3.823020   4.597055   2.411472   4.127321   2.769283
    14  C    4.217182   4.583832   2.803196   3.719118   2.385630
    15  H    4.749481   5.630938   3.398297   5.212889   3.855693
    16  H    3.226608   2.125365   3.235542   1.009525   2.131278
                   11         12         13         14         15
    11  C    0.000000
    12  C    2.851288   0.000000
    13  C    1.390123   2.442241   0.000000
    14  C    2.439773   1.390783   1.411698   0.000000
    15  H    2.146333   3.415540   1.086596   2.161863   0.000000
    16  H    4.502037   2.884603   4.880438   4.230181   5.962472
                   16
    16  H    0.000000
 Stoichiometry    C8H7N
 Framework group  C1[X(C8H7N)]
 Deg. of freedom    42
 Full point group                 C1      NOp   1
 Largest Abelian subgroup         C1      NOp   1
 Largest concise Abelian subgroup C1      NOp   1
                         Standard orientation:                         
 ---------------------------------------------------------------------
 Center     Atomic      Atomic             Coordinates (Angstroms)
 Number     Number       Type             X           Y           Z
 ---------------------------------------------------------------------
      1          1           0       -1.018822    2.517177    0.007808
      2          1           0       -0.913565   -2.506340   -0.000696
      3          1           0       -3.073230   -1.269660    0.002296
      4          1           0        3.462433   -0.093838    0.026123
      5          1           0        2.013725    2.202451   -0.011174
      6          6           0        1.631251    1.175409   -0.000419
      7          6           0        2.387097    0.023102    0.000826
      8          6           0        0.249645    0.752019   -0.005564
      9          7           0        1.565169   -1.082999    0.000144
     10          6           0        0.248997   -0.672182   -0.003953
     11          6           0       -0.983565    1.430701    0.000295
     12          6           0       -0.934678   -1.420168   -0.001774
     13          6           0       -2.161059    0.691823    0.003129
     14          6           0       -2.136157   -0.719653    0.000471
     15          1           0       -3.118122    1.206310    0.008282
     16          1           0        1.882216   -2.041412    0.008285
 ---------------------------------------------------------------------
 Rotational constants (GHZ):           3.8623224           1.6305708           1.1465432
 Leave Link  202 at Mon Sep 26 11:24:02 2022, MaxMem=  7784628224 cpu:               0.2 elap:               0.0
 (Enter /cm/shared/gaussian/versions/g16.c01/intel64-sandybridge/g16/l301.exe)
 Standard basis: def2TZVPP (5D, 7F)
 Ernie: Thresh=  0.10000D-02 Tol=  0.10000D-05 Strict=F.
 There are   429 symmetry adapted cartesian basis functions of A   symmetry.
 There are   377 symmetry adapted basis functions of A   symmetry.
   377 basis functions,   578 primitive gaussians,   429 cartesian basis functions
    31 alpha electrons       31 beta electrons
       nuclear repulsion energy       399.4501375770 Hartrees.
 IExCor=  402 DFT=T Ex+Corr=B3LYP ExCW=0 ScaHFX=  0.200000
 ScaDFX=  0.800000  0.720000  1.000000  0.810000 ScalE2=  1.000000  1.000000
 IRadAn=      5 IRanWt=     -1 IRanGd=            0 ICorTp=0 IEmpDi=  4
 NAtoms=   16 NActive=   16 NUniq=   16 SFac= 1.00D+00 NAtFMM=   60 NAOKFM=F Big=F
 Integral buffers will be    131072 words long.
 Raffenetti 2 integral format.
 Two-electron integral symmetry is turned on.
 Leave Link  301 at Mon Sep 26 11:24:02 2022, MaxMem=  7784628224 cpu:               0.9 elap:               0.1
 (Enter /cm/shared/gaussian/versions/g16.c01/intel64-sandybridge/g16/l302.exe)
 NPDir=0 NMtPBC=     1 NCelOv=     1 NCel=       1 NClECP=     1 NCelD=      1
         NCelK=      1 NCelE2=     1 NClLst=     1 CellRange=     0.0.
 One-electron integrals computed using PRISM.
 One-electron integral symmetry used in STVInt
   1 Symmetry operations used in ECPInt.
 ECPInt:  NShTT=   10011 NPrTT=   28185 LenC2=    9737 LenP2D=   22359.
 LDataN:  DoStor=T MaxTD1= 6 Len=  172
 NBasis=   377 RedAO= T EigKep=  8.91D-06  NBF=   377
 NBsUse=   377 1.00D-06 EigRej= -1.00D+00 NBFU=   377
 Precomputing XC quadrature grid using
 IXCGrd= 4 IRadAn=           5 IRanWt=          -1 IRanGd=           0 AccXCQ= 0.00D+00.
 Generated NRdTot=       0 NPtTot=           0 NUsed=           0 NTot=          32
 NSgBfM=   428   428   428   428   428 MxSgAt=    16 MxSgA2=    16.
 Leave Link  302 at Mon Sep 26 11:24:02 2022, MaxMem=  7784628224 cpu:               6.0 elap:               0.4
 (Enter /cm/shared/gaussian/versions/g16.c01/intel64-sandybridge/g16/l303.exe)
 DipDrv:  MaxL=1.
 Leave Link  303 at Mon Sep 26 11:24:02 2022, MaxMem=  7784628224 cpu:               0.9 elap:               0.1
 (Enter /cm/shared/gaussian/versions/g16.c01/intel64-sandybridge/g16/l401.exe)
 ExpMin= 9.52D-02 ExpMax= 1.97D+04 ExpMxC= 6.73D+02 IAcc=3 IRadAn=         5 AccDes= 0.00D+00
 Harris functional with IExCor=  402 and IRadAn=       5 diagonalized for initial guess.
 HarFok:  IExCor=  402 AccDes= 0.00D+00 IRadAn=         5 IDoV= 1 UseB2=F ITyADJ=14
 ICtDFT=  3500011 ScaDFX=  1.000000  1.000000  1.000000  1.000000
 FoFCou: FMM=F IPFlag=           0 FMFlag=      100000 FMFlg1=           0
         NFxFlg=           0 DoJE=T BraDBF=F KetDBF=T FulRan=T
         wScrn=  0.000000 ICntrl=       500 IOpCl=  0 I1Cent=   200000004 NGrid=           0
         NMat0=    1 NMatS0=      1 NMatT0=    0 NMatD0=    1 NMtDS0=    0 NMtDT0=    0
 Petite list used in FoFCou.
 Harris En= -363.988416234146    
 JPrj=0 DoOrth=F DoCkMO=F.
 Leave Link  401 at Mon Sep 26 11:24:04 2022, MaxMem=  7784628224 cpu:              24.1 elap:               1.6
 (Enter /cm/shared/gaussian/versions/g16.c01/intel64-sandybridge/g16/l502.exe)
 Integral symmetry usage will be decided dynamically.
 Closed shell SCF:
 Using DIIS extrapolation, IDIIS=  1040.
 NGot=  7784628224 LenX=  7784249188 LenY=  7784064706
 Requested convergence on RMS density matrix=1.00D-08 within 128 cycles.
 Requested convergence on MAX density matrix=1.00D-06.
 Requested convergence on             energy=1.00D-06.
 No special actions if energy rises.
 Fock matrices will be formed incrementally for  20 cycles.
 Integral accuracy reduced to 1.0D-05 until final iterations.

 Cycle   1  Pass 0  IDiag  1:
 FoFJK:  IHMeth= 1 ICntrl=       0 DoSepK=F KAlg= 0 I1Cent=           0 FoldK=F
 IRaf= 940000000 NMat=       1 IRICut=       1 DoRegI=T DoRafI=F ISym2E= 0 IDoP0=0 IntGTp=1.
 FoFCou: FMM=F IPFlag=           0 FMFlag=      100000 FMFlg1=           0
         NFxFlg=           0 DoJE=F BraDBF=F KetDBF=F FulRan=T
         wScrn=  0.000000 ICntrl=         0 IOpCl=  0 I1Cent=           0 NGrid=           0
         NMat0=    1 NMatS0=      1 NMatT0=    0 NMatD0=    1 NMtDS0=    0 NMtDT0=    0
 Symmetry not used in FoFCou.
 E= -363.714751342379    
 DIIS: error= 2.99D-02 at cycle   1 NSaved=   1.
 NSaved= 1 IEnMin= 1 EnMin= -363.714751342379     IErMin= 1 ErrMin= 2.99D-02
 ErrMax= 2.99D-02  0.00D+00 EMaxC= 1.00D-01 BMatC= 2.38D-01 BMatP= 2.38D-01
 IDIUse=3 WtCom= 7.01D-01 WtEn= 2.99D-01
 Coeff-Com:  0.100D+01
 Coeff-En:   0.100D+01
 Coeff:      0.100D+01
 Gap=     0.205 Goal=   None    Shift=    0.000
 GapD=    0.205 DampG=1.000 DampE=0.500 DampFc=0.5000 IDamp=-1.
 Damping current iteration by 5.00D-01
 RMSDP=2.93D-03 MaxDP=8.69D-02              OVMax= 2.63D-01

 Cycle   2  Pass 0  IDiag  1:
 RMSU=  1.45D-03    CP:  9.71D-01
 E= -363.810250904490     Delta-E=       -0.095499562111 Rises=F Damp=T
 DIIS: error= 7.76D-03 at cycle   2 NSaved=   2.
 NSaved= 2 IEnMin= 2 EnMin= -363.810250904490     IErMin= 2 ErrMin= 7.76D-03
 ErrMax= 7.76D-03  0.00D+00 EMaxC= 1.00D-01 BMatC= 1.92D-02 BMatP= 2.38D-01
 IDIUse=3 WtCom= 9.22D-01 WtEn= 7.76D-02
 Coeff-Com:  0.738D-01 0.926D+00
 Coeff-En:   0.193D+00 0.807D+00
 Coeff:      0.830D-01 0.917D+00
 Gap=     0.252 Goal=   None    Shift=    0.000
 RMSDP=1.02D-03 MaxDP=4.10D-02 DE=-9.55D-02 OVMax= 2.38D-01

 Cycle   3  Pass 0  IDiag  1:
 RMSU=  7.78D-04    CP:  9.66D-01  5.40D-01
 E= -363.935432444964     Delta-E=       -0.125181540474 Rises=F Damp=F
 DIIS: error= 1.13D-02 at cycle   3 NSaved=   3.
 NSaved= 3 IEnMin= 3 EnMin= -363.935432444964     IErMin= 2 ErrMin= 7.76D-03
 ErrMax= 1.13D-02  0.00D+00 EMaxC= 1.00D-01 BMatC= 2.11D-02 BMatP= 1.92D-02
 IDIUse=3 WtCom= 8.87D-01 WtEn= 1.13D-01
 Coeff-Com: -0.232D-01 0.520D+00 0.503D+00
 Coeff-En:   0.000D+00 0.000D+00 0.100D+01
 Coeff:     -0.205D-01 0.461D+00 0.559D+00
 Gap=     0.194 Goal=   None    Shift=    0.000
 RMSDP=4.42D-04 MaxDP=2.10D-02 DE=-1.25D-01 OVMax= 1.06D-01

 Cycle   4  Pass 0  IDiag  1:
 RMSU=  3.65D-04    CP:  9.66D-01  6.50D-01  7.54D-01
 E= -363.950146840643     Delta-E=       -0.014714395679 Rises=F Damp=F
 DIIS: error= 6.91D-03 at cycle   4 NSaved=   4.
 NSaved= 4 IEnMin= 4 EnMin= -363.950146840643     IErMin= 4 ErrMin= 6.91D-03
 ErrMax= 6.91D-03  0.00D+00 EMaxC= 1.00D-01 BMatC= 7.52D-03 BMatP= 1.92D-02
 IDIUse=3 WtCom= 9.31D-01 WtEn= 6.91D-02
 Coeff-Com: -0.279D-01 0.146D+00 0.388D+00 0.494D+00
 Coeff-En:   0.000D+00 0.000D+00 0.296D+00 0.704D+00
 Coeff:     -0.259D-01 0.136D+00 0.381D+00 0.509D+00
 Gap=     0.190 Goal=   None    Shift=    0.000
 RMSDP=1.93D-04 MaxDP=8.92D-03 DE=-1.47D-02 OVMax= 4.39D-02

 Cycle   5  Pass 0  IDiag  1:
 RMSU=  9.66D-05    CP:  9.64D-01  6.21D-01  8.52D-01  6.11D-01
 E= -363.957640990865     Delta-E=       -0.007494150222 Rises=F Damp=F
 DIIS: error= 9.35D-04 at cycle   5 NSaved=   5.
 NSaved= 5 IEnMin= 5 EnMin= -363.957640990865     IErMin= 5 ErrMin= 9.35D-04
 ErrMax= 9.35D-04  0.00D+00 EMaxC= 1.00D-01 BMatC= 1.91D-04 BMatP= 7.52D-03
 IDIUse=3 WtCom= 9.91D-01 WtEn= 9.35D-03
 Coeff-Com: -0.115D-01 0.357D-01 0.146D+00 0.242D+00 0.588D+00
 Coeff-En:   0.000D+00 0.000D+00 0.000D+00 0.000D+00 0.100D+01
 Coeff:     -0.114D-01 0.353D-01 0.144D+00 0.240D+00 0.592D+00
 Gap=     0.190 Goal=   None    Shift=    0.000
 RMSDP=3.87D-05 MaxDP=1.74D-03 DE=-7.49D-03 OVMax= 6.57D-03

 Cycle   6  Pass 0  IDiag  1:
 RMSU=  2.80D-05    CP:  9.65D-01  6.21D-01  8.56D-01  6.54D-01  7.77D-01
 E= -363.957793473792     Delta-E=       -0.000152482928 Rises=F Damp=F
 DIIS: error= 4.32D-04 at cycle   6 NSaved=   6.
 NSaved= 6 IEnMin= 6 EnMin= -363.957793473792     IErMin= 6 ErrMin= 4.32D-04
 ErrMax= 4.32D-04  0.00D+00 EMaxC= 1.00D-01 BMatC= 4.32D-05 BMatP= 1.91D-04
 IDIUse=3 WtCom= 9.96D-01 WtEn= 4.32D-03
 Coeff-Com: -0.389D-02 0.505D-02 0.451D-01 0.899D-01 0.370D+00 0.493D+00
 Coeff-En:   0.000D+00 0.000D+00 0.000D+00 0.000D+00 0.192D+00 0.808D+00
 Coeff:     -0.387D-02 0.503D-02 0.449D-01 0.895D-01 0.370D+00 0.495D+00
 Gap=     0.190 Goal=   None    Shift=    0.000
 RMSDP=1.39D-05 MaxDP=6.38D-04 DE=-1.52D-04 OVMax= 2.61D-03

 Cycle   7  Pass 0  IDiag  1:
 RMSU=  8.40D-06    CP:  9.65D-01  6.21D-01  8.60D-01  6.50D-01  8.20D-01
                    CP:  6.55D-01
 E= -363.957837213560     Delta-E=       -0.000043739768 Rises=F Damp=F
 DIIS: error= 4.44D-05 at cycle   7 NSaved=   7.
 NSaved= 7 IEnMin= 7 EnMin= -363.957837213560     IErMin= 7 ErrMin= 4.44D-05
 ErrMax= 4.44D-05  0.00D+00 EMaxC= 1.00D-01 BMatC= 1.02D-06 BMatP= 4.32D-05
 IDIUse=1 WtCom= 1.00D+00 WtEn= 0.00D+00
 Coeff-Com: -0.120D-02 0.567D-03 0.146D-01 0.304D-01 0.146D+00 0.231D+00
 Coeff-Com:  0.578D+00
 Coeff:     -0.120D-02 0.567D-03 0.146D-01 0.304D-01 0.146D+00 0.231D+00
 Coeff:      0.578D+00
 Gap=     0.190 Goal=   None    Shift=    0.000
 RMSDP=4.07D-06 MaxDP=1.30D-04 DE=-4.37D-05 OVMax= 5.55D-04

 Initial convergence to 1.0D-05 achieved.  Increase integral accuracy.
 Cycle   8  Pass 1  IDiag  1:
 E= -363.957841069356     Delta-E=       -0.000003855796 Rises=F Damp=F
 DIIS: error= 1.16D-04 at cycle   1 NSaved=   1.
 NSaved= 1 IEnMin= 1 EnMin= -363.957841069356     IErMin= 1 ErrMin= 1.16D-04
 ErrMax= 1.16D-04  0.00D+00 EMaxC= 1.00D-01 BMatC= 4.11D-06 BMatP= 4.11D-06
 IDIUse=3 WtCom= 9.99D-01 WtEn= 1.16D-03
 Coeff-Com:  0.100D+01
 Coeff-En:   0.100D+01
 Coeff:      0.100D+01
 Gap=     0.190 Goal=   None    Shift=    0.000
 RMSDP=4.07D-06 MaxDP=1.30D-04 DE=-3.86D-06 OVMax= 5.23D-04

 Cycle   9  Pass 1  IDiag  1:
 RMSU=  9.83D-05    CP:  1.00D+00
 E= -363.957841722639     Delta-E=       -0.000000653283 Rises=F Damp=F
 DIIS: error= 5.29D-05 at cycle   2 NSaved=   2.
 NSaved= 2 IEnMin= 2 EnMin= -363.957841722639     IErMin= 2 ErrMin= 5.29D-05
 ErrMax= 5.29D-05  0.00D+00 EMaxC= 1.00D-01 BMatC= 7.46D-07 BMatP= 4.11D-06
 IDIUse=1 WtCom= 1.00D+00 WtEn= 0.00D+00
 Coeff-Com:  0.202D+00 0.798D+00
 Coeff:      0.202D+00 0.798D+00
 Gap=     0.190 Goal=   None    Shift=    0.000
 RMSDP=4.05D-06 MaxDP=2.07D-04 DE=-6.53D-07 OVMax= 8.06D-04

 Cycle  10  Pass 1  IDiag  1:
 RMSU=  3.87D-06    CP:  1.00D+00  1.01D+00
 E= -363.957841187903     Delta-E=        0.000000534736 Rises=F Damp=F
 DIIS: error= 7.76D-05 at cycle   3 NSaved=   3.
 NSaved= 3 IEnMin= 2 EnMin= -363.957841722639     IErMin= 2 ErrMin= 5.29D-05
 ErrMax= 7.76D-05  0.00D+00 EMaxC= 1.00D-01 BMatC= 1.22D-06 BMatP= 7.46D-07
 IDIUse=1 WtCom= 1.00D+00 WtEn= 0.00D+00
 Coeff-Com:  0.105D-02 0.561D+00 0.438D+00
 Coeff:      0.105D-02 0.561D+00 0.438D+00
 Gap=     0.190 Goal=   None    Shift=    0.000
 RMSDP=2.33D-06 MaxDP=1.21D-04 DE= 5.35D-07 OVMax= 4.96D-04

 Cycle  11  Pass 1  IDiag  1:
 RMSU=  6.70D-07    CP:  1.00D+00  1.02D+00  4.32D-01
 E= -363.957842484554     Delta-E=       -0.000001296651 Rises=F Damp=F
 DIIS: error= 9.38D-06 at cycle   4 NSaved=   4.
 NSaved= 4 IEnMin= 4 EnMin= -363.957842484554     IErMin= 4 ErrMin= 9.38D-06
 ErrMax= 9.38D-06  0.00D+00 EMaxC= 1.00D-01 BMatC= 1.84D-08 BMatP= 7.46D-07
 IDIUse=1 WtCom= 1.00D+00 WtEn= 0.00D+00
 Coeff-Com: -0.175D-02 0.350D+00 0.280D+00 0.372D+00
 Coeff:     -0.175D-02 0.350D+00 0.280D+00 0.372D+00
 Gap=     0.190 Goal=   None    Shift=    0.000
 RMSDP=2.70D-07 MaxDP=1.52D-05 DE=-1.30D-06 OVMax= 5.93D-05

 Cycle  12  Pass 1  IDiag  1:
 RMSU=  1.98D-07    CP:  1.00D+00  1.02D+00  4.61D-01  7.82D-01
 E= -363.957842503694     Delta-E=       -0.000000019140 Rises=F Damp=F
 DIIS: error= 9.38D-07 at cycle   5 NSaved=   5.
 NSaved= 5 IEnMin= 5 EnMin= -363.957842503694     IErMin= 5 ErrMin= 9.38D-07
 ErrMax= 9.38D-07  0.00D+00 EMaxC= 1.00D-01 BMatC= 2.11D-10 BMatP= 1.84D-08
 IDIUse=1 WtCom= 1.00D+00 WtEn= 0.00D+00
 Coeff-Com: -0.103D-02 0.192D+00 0.154D+00 0.215D+00 0.440D+00
 Coeff:     -0.103D-02 0.192D+00 0.154D+00 0.215D+00 0.440D+00
 Gap=     0.190 Goal=   None    Shift=    0.000
 RMSDP=3.35D-08 MaxDP=1.67D-06 DE=-1.91D-08 OVMax= 6.54D-06

 Cycle  13  Pass 1  IDiag  1:
 RMSU=  3.09D-08    CP:  1.00D+00  1.02D+00  4.60D-01  7.92D-01  9.50D-01
 E= -363.957842503877     Delta-E=       -0.000000000184 Rises=F Damp=F
 DIIS: error= 2.49D-07 at cycle   6 NSaved=   6.
 NSaved= 6 IEnMin= 6 EnMin= -363.957842503877     IErMin= 6 ErrMin= 2.49D-07
 ErrMax= 2.49D-07  0.00D+00 EMaxC= 1.00D-01 BMatC= 1.75D-11 BMatP= 2.11D-10
 IDIUse=1 WtCom= 1.00D+00 WtEn= 0.00D+00
 Coeff-Com: -0.339D-03 0.610D-01 0.488D-01 0.719D-01 0.248D+00 0.571D+00
 Coeff:     -0.339D-03 0.610D-01 0.488D-01 0.719D-01 0.248D+00 0.571D+00
 Gap=     0.190 Goal=   None    Shift=    0.000
 RMSDP=1.14D-08 MaxDP=5.00D-07 DE=-1.84D-10 OVMax= 2.01D-06

 Cycle  14  Pass 1  IDiag  1:
 RMSU=  6.97D-09    CP:  1.00D+00  1.02D+00  4.60D-01  7.98D-01  9.70D-01
                    CP:  8.27D-01
 E= -363.957842503895     Delta-E=       -0.000000000018 Rises=F Damp=F
 DIIS: error= 5.46D-08 at cycle   7 NSaved=   7.
 NSaved= 7 IEnMin= 7 EnMin= -363.957842503895     IErMin= 7 ErrMin= 5.46D-08
 ErrMax= 5.46D-08  0.00D+00 EMaxC= 1.00D-01 BMatC= 1.02D-12 BMatP= 1.75D-11
 IDIUse=1 WtCom= 1.00D+00 WtEn= 0.00D+00
 Coeff-Com: -0.733D-04 0.125D-01 0.996D-02 0.160D-01 0.735D-01 0.264D+00
 Coeff-Com:  0.624D+00
 Coeff:     -0.733D-04 0.125D-01 0.996D-02 0.160D-01 0.735D-01 0.264D+00
 Coeff:      0.624D+00
 Gap=     0.190 Goal=   None    Shift=    0.000
 RMSDP=3.98D-09 MaxDP=1.13D-07 DE=-1.78D-11 OVMax= 5.24D-07

 SCF Done:  E(RB3LYP) =  -363.957842504     A.U. after   14 cycles
            NFock= 14  Conv=0.40D-08     -V/T= 2.0058
 KE= 3.618448861530D+02 PE=-1.643777455313D+03 EE= 5.185245890786D+02
 Leave Link  502 at Mon Sep 26 11:25:04 2022, MaxMem=  7784628224 cpu:             958.2 elap:              60.0
 (Enter /cm/shared/gaussian/versions/g16.c01/intel64-sandybridge/g16/l801.exe)
 DoSCS=F DFT=T ScalE2(SS,OS)=  1.000000  1.000000
 Range of M.O.s used for correlation:     1   377
 NBasis=   377 NAE=    31 NBE=    31 NFC=     0 NFV=     0
 NROrb=    377 NOA=    31 NOB=    31 NVA=   346 NVB=   346

 **** Warning!!: The largest alpha MO coefficient is  0.75504877D+02

 Leave Link  801 at Mon Sep 26 11:25:04 2022, MaxMem=  7784628224 cpu:               0.5 elap:               0.0
 (Enter /cm/shared/gaussian/versions/g16.c01/intel64-sandybridge/g16/l1101.exe)
 Using compressed storage, NAtomX=    16.
 Will process     17 centers per pass.
   1 Symmetry operations used in ECPInt.
 ECPInt:  NShTT=   10011 NPrTT=   28185 LenC2=    9737 LenP2D=   22359.
 LDataN:  DoStor=T MaxTD1= 7 Len=  274
 Leave Link 1101 at Mon Sep 26 11:25:05 2022, MaxMem=  7784628224 cpu:               8.4 elap:               0.6
 (Enter /cm/shared/gaussian/versions/g16.c01/intel64-sandybridge/g16/l1102.exe)
 Symmetrizing basis deriv contribution to polar:
 IMax=3 JMax=2 DiffMx= 0.00D+00
 Leave Link 1102 at Mon Sep 26 11:25:05 2022, MaxMem=  7784628224 cpu:               0.9 elap:               0.1
 (Enter /cm/shared/gaussian/versions/g16.c01/intel64-sandybridge/g16/l1110.exe)
 Forming Gx(P) for the SCF density, NAtomX=    16.
 Integral derivatives from FoFJK, PRISM(SPDF).
 Do as many integral derivatives as possible in FoFJK.
 G2DrvN: MDV=    7784626472.
 G2DrvN: will do    17 centers at a time, making    1 passes.
 Calling FoFCou, ICntrl=  3107 FMM=F I1Cent=   0 AccDes= 0.00D+00.
 FoFJK:  IHMeth= 1 ICntrl=    3107 DoSepK=F KAlg= 0 I1Cent=           0 FoldK=F
 IRaf=         0 NMat=       1 IRICut=       1 DoRegI=T DoRafI=F ISym2E= 0 IDoP0=0 IntGTp=1.
 FoFCou: FMM=F IPFlag=           0 FMFlag=      100000 FMFlg1=           0
         NFxFlg=           0 DoJE=F BraDBF=F KetDBF=F FulRan=T
         wScrn=  0.000000 ICntrl=      3107 IOpCl=  0 I1Cent=           0 NGrid=           0
         NMat0=    1 NMatS0=      1 NMatT0=    0 NMatD0=    1 NMtDS0=    0 NMtDT0=    0
 Symmetry not used in FoFCou.
 End of G2Drv F.D. properties file   721 does not exist.
 End of G2Drv F.D. properties file   722 does not exist.
 End of G2Drv F.D. properties file   788 does not exist.
 Leave Link 1110 at Mon Sep 26 11:26:42 2022, MaxMem=  7784628224 cpu:            1553.3 elap:              97.2
 (Enter /cm/shared/gaussian/versions/g16.c01/intel64-sandybridge/g16/l1002.exe)
 Minotr:  Closed shell wavefunction.
          IDoAtm=1111111111111111
          Direct CPHF calculation.
          Differentiating once with respect to electric field.
                with respect to dipole field.
          Differentiating once with respect to nuclear coordinates.
          Requested convergence is 1.0D-08 RMS, and 1.0D-07 maximum.
          Secondary convergence is 1.0D-12 RMS, and 1.0D-12 maximum.
          NewPWx=T KeepS1=F KeepF1=F KeepIn=T MapXYZ=F SortEE=F KeepMc=T.
         4797 words used for storage of precomputed grid.
 Keep R1 ints in memory in canonical form, NReq=2578293684.
 FoFCou: FMM=F IPFlag=           0 FMFlag=           0 FMFlg1=           0
         NFxFlg=           0 DoJE=F BraDBF=F KetDBF=F FulRan=T
         wScrn=  0.000000 ICntrl=       600 IOpCl=  0 I1Cent=           0 NGrid=           0
         NMat0=    1 NMatS0=  71253 NMatT0=    0 NMatD0=    1 NMtDS0=    0 NMtDT0=    0
 Symmetry not used in FoFCou.
 Two-electron integral symmetry not used.
          MDV=    7784628224 using IRadAn=       1.
          Solving linear equations simultaneously, MaxMat=       0.
          There are    51 degrees of freedom in the 1st order CPHF.  IDoFFX=6 NUNeed=     3.
     48 vectors produced by pass  0 Test12= 2.10D-14 1.96D-09 XBig12= 2.01D+02 7.97D+00.
 AX will form    48 AO Fock derivatives at one time.
     48 vectors produced by pass  1 Test12= 2.10D-14 1.96D-09 XBig12= 2.91D+01 8.10D-01.
     48 vectors produced by pass  2 Test12= 2.10D-14 1.96D-09 XBig12= 3.96D-01 1.12D-01.
     48 vectors produced by pass  3 Test12= 2.10D-14 1.96D-09 XBig12= 1.09D-03 5.10D-03.
     48 vectors produced by pass  4 Test12= 2.10D-14 1.96D-09 XBig12= 2.30D-06 2.54D-04.
     46 vectors produced by pass  5 Test12= 2.10D-14 1.96D-09 XBig12= 3.10D-09 1.08D-05.
      9 vectors produced by pass  6 Test12= 2.10D-14 1.96D-09 XBig12= 3.32D-12 2.71D-07.
      3 vectors produced by pass  7 Test12= 2.10D-14 1.96D-09 XBig12= 4.45D-15 1.35D-08.
 InvSVY:  IOpt=1 It=  1 EMax= 1.07D-14
 Solved reduced A of dimension   298 with    51 vectors.
 FullF1:  Do perturbations      1 to       3.
 Isotropic polarizability for W=    0.000000       98.25 Bohr**3.
 End of Minotr F.D. properties file   721 does not exist.
 End of Minotr F.D. properties file   722 does not exist.
 End of Minotr F.D. properties file   788 does not exist.
 Leave Link 1002 at Mon Sep 26 11:29:03 2022, MaxMem=  7784628224 cpu:            2250.6 elap:             140.9
 (Enter /cm/shared/gaussian/versions/g16.c01/intel64-sandybridge/g16/l601.exe)
 Copying SCF densities to generalized density rwf, IOpCl= 0 IROHF=0.

 **********************************************************************

            Population analysis using the SCF Density.

 **********************************************************************

 Orbital symmetries:
       Occupied  (A) (A) (A) (A) (A) (A) (A) (A) (A) (A) (A) (A)
                 (A) (A) (A) (A) (A) (A) (A) (A) (A) (A) (A) (A)
                 (A) (A) (A) (A) (A) (A) (A)
       Virtual   (A) (A) (A) (A) (A) (A) (A) (A) (A) (A) (A) (A)
                 (A) (A) (A) (A) (A) (A) (A) (A) (A) (A) (A) (A)
                 (A) (A) (A) (A) (A) (A) (A) (A) (A) (A) (A) (A)
                 (A) (A) (A) (A) (A) (A) (A) (A) (A) (A) (A) (A)
                 (A) (A) (A) (A) (A) (A) (A) (A) (A) (A) (A) (A)
                 (A) (A) (A) (A) (A) (A) (A) (A) (A) (A) (A) (A)
                 (A) (A) (A) (A) (A) (A) (A) (A) (A) (A) (A) (A)
                 (A) (A) (A) (A) (A) (A) (A) (A) (A) (A) (A) (A)
                 (A) (A) (A) (A) (A) (A) (A) (A) (A) (A) (A) (A)
                 (A) (A) (A) (A) (A) (A) (A) (A) (A) (A) (A) (A)
                 (A) (A) (A) (A) (A) (A) (A) (A) (A) (A) (A) (A)
                 (A) (A) (A) (A) (A) (A) (A) (A) (A) (A) (A) (A)
                 (A) (A) (A) (A) (A) (A) (A) (A) (A) (A) (A) (A)
                 (A) (A) (A) (A) (A) (A) (A) (A) (A) (A) (A) (A)
                 (A) (A) (A) (A) (A) (A) (A) (A) (A) (A) (A) (A)
                 (A) (A) (A) (A) (A) (A) (A) (A) (A) (A) (A) (A)
                 (A) (A) (A) (A) (A) (A) (A) (A) (A) (A) (A) (A)
                 (A) (A) (A) (A) (A) (A) (A) (A) (A) (A) (A) (A)
                 (A) (A) (A) (A) (A) (A) (A) (A) (A) (A) (A) (A)
                 (A) (A) (A) (A) (A) (A) (A) (A) (A) (A) (A) (A)
                 (A) (A) (A) (A) (A) (A) (A) (A) (A) (A) (A) (A)
                 (A) (A) (A) (A) (A) (A) (A) (A) (A) (A) (A) (A)
                 (A) (A) (A) (A) (A) (A) (A) (A) (A) (A) (A) (A)
                 (A) (A) (A) (A) (A) (A) (A) (A) (A) (A) (A) (A)
                 (A) (A) (A) (A) (A) (A) (A) (A) (A) (A) (A) (A)
                 (A) (A) (A) (A) (A) (A) (A) (A) (A) (A) (A) (A)
                 (A) (A) (A) (A) (A) (A) (A) (A) (A) (A) (A) (A)
                 (A) (A) (A) (A) (A) (A) (A) (A) (A) (A) (A) (A)
                 (A) (A) (A) (A) (A) (A) (A) (A) (A) (A)
 The electronic state is 1-A.
 Alpha  occ. eigenvalues --  -14.36343 -10.20848 -10.20657 -10.17564 -10.17356
 Alpha  occ. eigenvalues --  -10.17063 -10.17000 -10.16627 -10.16531  -0.98237
 Alpha  occ. eigenvalues --   -0.83888  -0.78169  -0.73600  -0.71716  -0.62536
 Alpha  occ. eigenvalues --   -0.59534  -0.58316  -0.54144  -0.48459  -0.47234
 Alpha  occ. eigenvalues --   -0.44028  -0.43169  -0.42594  -0.41356  -0.39369
 Alpha  occ. eigenvalues --   -0.35830  -0.33904  -0.33835  -0.28286  -0.22821
 Alpha  occ. eigenvalues --   -0.21131
 Alpha virt. eigenvalues --   -0.02091   0.01511   0.02639   0.04822   0.05813
 Alpha virt. eigenvalues --    0.07165   0.08405   0.09219   0.11225   0.11539
 Alpha virt. eigenvalues --    0.11992   0.15426   0.16586   0.17642   0.18475
 Alpha virt. eigenvalues --    0.19098   0.19996   0.21646   0.22669   0.23291
 Alpha virt. eigenvalues --    0.24280   0.25156   0.25498   0.27223   0.28928
 Alpha virt. eigenvalues --    0.29175   0.30449   0.30562   0.32101   0.34125
 Alpha virt. eigenvalues --    0.34604   0.35464   0.37036   0.37149   0.37895
 Alpha virt. eigenvalues --    0.39318   0.41021   0.41171   0.41488   0.41940
 Alpha virt. eigenvalues --    0.44005   0.44343   0.45736   0.46283   0.46394
 Alpha virt. eigenvalues --    0.48008   0.48529   0.50114   0.50771   0.51772
 Alpha virt. eigenvalues --    0.54614   0.55629   0.58424   0.59866   0.61640
 Alpha virt. eigenvalues --    0.61973   0.63084   0.66326   0.67448   0.68310
 Alpha virt. eigenvalues --    0.68690   0.69703   0.70120   0.71393   0.72649
 Alpha virt. eigenvalues --    0.75037   0.75690   0.78249   0.78677   0.79985
 Alpha virt. eigenvalues --    0.80846   0.84230   0.86851   0.88000   0.89940
 Alpha virt. eigenvalues --    0.91890   0.92163   0.94316   0.95963   0.97197
 Alpha virt. eigenvalues --    0.97865   0.98681   0.99535   1.01089   1.02814
 Alpha virt. eigenvalues --    1.06058   1.06831   1.08220   1.09951   1.12439
 Alpha virt. eigenvalues --    1.12762   1.15214   1.16211   1.17715   1.18812
 Alpha virt. eigenvalues --    1.20732   1.22364   1.22525   1.23761   1.25869
 Alpha virt. eigenvalues --    1.25918   1.27557   1.28312   1.30344   1.32620
 Alpha virt. eigenvalues --    1.33557   1.34763   1.36060   1.36982   1.37488
 Alpha virt. eigenvalues --    1.40197   1.41253   1.41594   1.45011   1.46293
 Alpha virt. eigenvalues --    1.47914   1.48854   1.49865   1.52430   1.53292
 Alpha virt. eigenvalues --    1.56372   1.57201   1.58517   1.61591   1.63663
 Alpha virt. eigenvalues --    1.65071   1.66752   1.68101   1.70995   1.71765
 Alpha virt. eigenvalues --    1.74308   1.74676   1.76364   1.76707   1.78371
 Alpha virt. eigenvalues --    1.85333   1.85579   1.87588   1.89914   1.91798
 Alpha virt. eigenvalues --    1.94662   1.97472   1.98763   2.01636   2.03511
 Alpha virt. eigenvalues --    2.06285   2.07684   2.08174   2.16304   2.20475
 Alpha virt. eigenvalues --    2.21279   2.24048   2.28349   2.30037   2.31305
 Alpha virt. eigenvalues --    2.32556   2.37907   2.38951   2.39994   2.47732
 Alpha virt. eigenvalues --    2.50459   2.50719   2.56476   2.60265   2.60964
 Alpha virt. eigenvalues --    2.63902   2.66354   2.68601   2.70372   2.70670
 Alpha virt. eigenvalues --    2.71199   2.72983   2.73794   2.76995   2.79085
 Alpha virt. eigenvalues --    2.80291   2.81072   2.81779   2.83102   2.87272
 Alpha virt. eigenvalues --    2.88972   2.89758   2.92039   2.93003   2.94350
 Alpha virt. eigenvalues --    2.95620   2.98721   2.98996   2.99540   3.01331
 Alpha virt. eigenvalues --    3.01656   3.02123   3.05289   3.08201   3.08204
 Alpha virt. eigenvalues --    3.09059   3.10184   3.10869   3.13443   3.14914
 Alpha virt. eigenvalues --    3.16402   3.16798   3.18440   3.19304   3.20170
 Alpha virt. eigenvalues --    3.21223   3.21807   3.23155   3.25340   3.26679
 Alpha virt. eigenvalues --    3.27546   3.29892   3.30500   3.32157   3.32885
 Alpha virt. eigenvalues --    3.34908   3.37201   3.37619   3.38444   3.39761
 Alpha virt. eigenvalues --    3.40446   3.43919   3.46197   3.47236   3.47984
 Alpha virt. eigenvalues --    3.49898   3.50004   3.53303   3.53400   3.55761
 Alpha virt. eigenvalues --    3.57211   3.58052   3.60493   3.60561   3.64543
 Alpha virt. eigenvalues --    3.68496   3.69320   3.69999   3.70792   3.72754
 Alpha virt. eigenvalues --    3.73956   3.76271   3.76604   3.77712   3.80354
 Alpha virt. eigenvalues --    3.81677   3.82420   3.83860   3.84278   3.84406
 Alpha virt. eigenvalues --    3.87045   3.87771   3.90973   3.92080   3.93974
 Alpha virt. eigenvalues --    3.94127   3.95873   3.98620   4.02828   4.03593
 Alpha virt. eigenvalues --    4.05461   4.08650   4.09489   4.10984   4.15674
 Alpha virt. eigenvalues --    4.16680   4.17128   4.21527   4.22233   4.23814
 Alpha virt. eigenvalues --    4.24933   4.26505   4.27931   4.30331   4.31767
 Alpha virt. eigenvalues --    4.32963   4.33901   4.35469   4.37077   4.39794
 Alpha virt. eigenvalues --    4.42649   4.42831   4.43874   4.48449   4.52939
 Alpha virt. eigenvalues --    4.53178   4.55792   4.64322   4.65044   4.66704
 Alpha virt. eigenvalues --    4.67220   4.70354   4.71025   4.72331   4.75684
 Alpha virt. eigenvalues --    4.76139   4.78256   4.80737   4.83692   4.88033
 Alpha virt. eigenvalues --    4.88773   4.93277   4.94678   4.97971   5.01713
 Alpha virt. eigenvalues --    5.02019   5.07952   5.12638   5.13888   5.15133
 Alpha virt. eigenvalues --    5.16847   5.19847   5.21753   5.23826   5.26966
 Alpha virt. eigenvalues --    5.28814   5.38742   5.40027   5.40505   5.44140
 Alpha virt. eigenvalues --    5.45009   5.51573   5.55281   5.62526   5.68374
 Alpha virt. eigenvalues --    5.71109   5.73303   5.74719   5.86253   5.89101
 Alpha virt. eigenvalues --    6.04958   6.09462   6.11185   6.27676   6.49385
 Alpha virt. eigenvalues --    6.81919   6.89345  22.66778  22.97831  23.10396
 Alpha virt. eigenvalues --   23.12803  23.24126  23.38568  23.51054  24.01414
 Alpha virt. eigenvalues --   32.93761
          Condensed to atoms (all electrons):
               1          2          3          4          5          6
     1  H    0.530714   0.000104  -0.000456  -0.000008   0.002898   0.002259
     2  H    0.000104   0.539690  -0.004827  -0.000005   0.000024  -0.000868
     3  H   -0.000456  -0.004827   0.533906  -0.000000  -0.000002  -0.000004
     4  H   -0.000008  -0.000005  -0.000000   0.489175  -0.000210  -0.013678
     5  H    0.002898   0.000024  -0.000002  -0.000210   0.500015   0.403787
     6  C    0.002259  -0.000868  -0.000004  -0.013678   0.403787   4.936066
     7  C   -0.001199  -0.000092   0.000059   0.401871  -0.026677   0.622332
     8  C   -0.029288   0.004958   0.000052   0.002092  -0.020698   0.466482
     9  N   -0.000306  -0.001518  -0.000174  -0.025507   0.003152  -0.101196
    10  C    0.008341  -0.034401   0.009287   0.008644   0.008009  -0.043383
    11  C    0.396962   0.000654   0.005517  -0.000271   0.002841  -0.064872
    12  C    0.000265   0.396089  -0.035113  -0.000486  -0.000655   0.005607
    13  C   -0.025731   0.003749  -0.031511   0.000013  -0.000555   0.003057
    14  C    0.004816  -0.012556   0.410140   0.000067   0.000104   0.002580
    15  H   -0.004383  -0.000418  -0.003421  -0.000001  -0.000007  -0.000460
    16  H    0.000032   0.003232  -0.000015  -0.004138  -0.000152   0.008298
               7          8          9         10         11         12
     1  H   -0.001199  -0.029288  -0.000306   0.008341   0.396962   0.000265
     2  H   -0.000092   0.004958  -0.001518  -0.034401   0.000654   0.396089
     3  H    0.000059   0.000052  -0.000174   0.009287   0.005517  -0.035113
     4  H    0.401871   0.002092  -0.025507   0.008644  -0.000271  -0.000486
     5  H   -0.026677  -0.020698   0.003152   0.008009   0.002841  -0.000655
     6  C    0.622332   0.466482  -0.101196  -0.043383  -0.064872   0.005607
     7  C    4.899749  -0.107028   0.412010  -0.143427   0.004837   0.009349
     8  C   -0.107028   4.879643  -0.078895   0.467744   0.493475  -0.018672
     9  N    0.412010  -0.078895   6.194778   0.393908   0.000859  -0.029765
    10  C   -0.143427   0.467744   0.393908   5.028817  -0.056879   0.455490
    11  C    0.004837   0.493475   0.000859  -0.056879   4.911121  -0.029065
    12  C    0.009349  -0.018672  -0.029765   0.455490  -0.029065   4.890261
    13  C   -0.000019  -0.080383   0.002065  -0.044141   0.576999  -0.054001
    14  C   -0.001434  -0.033410  -0.000056  -0.090769  -0.061397   0.579315
    15  H    0.000063   0.007363   0.000031   0.000145  -0.031242   0.006750
    16  H   -0.042309   0.009004   0.397479  -0.043321  -0.000515  -0.002016
              13         14         15         16
     1  H   -0.025731   0.004816  -0.004383   0.000032
     2  H    0.003749  -0.012556  -0.000418   0.003232
     3  H   -0.031511   0.410140  -0.003421  -0.000015
     4  H    0.000013   0.000067  -0.000001  -0.004138
     5  H   -0.000555   0.000104  -0.000007  -0.000152
     6  C    0.003057   0.002580  -0.000460   0.008298
     7  C   -0.000019  -0.001434   0.000063  -0.042309
     8  C   -0.080383  -0.033410   0.007363   0.009004
     9  N    0.002065  -0.000056   0.000031   0.397479
    10  C   -0.044141  -0.090769   0.000145  -0.043321
    11  C    0.576999  -0.061397  -0.031242  -0.000515
    12  C   -0.054001   0.579315   0.006750  -0.002016
    13  C    4.844633   0.526793   0.409084   0.000052
    14  C    0.526793   4.828693  -0.034896  -0.000046
    15  H    0.409084  -0.034896   0.536045  -0.000003
    16  H    0.000052  -0.000046  -0.000003   0.520175
 Mulliken charges:
               1
     1  H    0.114980
     2  H    0.106185
     3  H    0.116562
     4  H    0.142441
     5  H    0.128125
     6  C   -0.226006
     7  C   -0.028085
     8  C    0.037560
     9  N   -0.166863
    10  C    0.075935
    11  C   -0.149025
    12  C   -0.173352
    13  C   -0.130104
    14  C   -0.117945
    15  H    0.115349
    16  H    0.154244
 Sum of Mulliken charges =  -0.00000
 Mulliken charges with hydrogens summed into heavy atoms:
               1
     6  C   -0.097882
     7  C    0.114356
     8  C    0.037560
     9  N   -0.012618
    10  C    0.075935
    11  C   -0.034045
    12  C   -0.067167
    13  C   -0.014755
    14  C   -0.001384
 APT charges:
               1
     1  H    0.027836
     2  H    0.029012
     3  H    0.027974
     4  H    0.068544
     5  H    0.058592
     6  C   -0.152225
     7  C    0.103642
     8  C   -0.006343
     9  N   -0.418144
    10  C    0.125747
    11  C    0.046249
    12  C    0.005071
    13  C   -0.093192
    14  C   -0.064290
    15  H    0.024476
    16  H    0.217052
 Sum of APT charges =   0.00000
 APT charges with hydrogens summed into heavy atoms:
               1
     6  C   -0.093634
     7  C    0.172186
     8  C   -0.006343
     9  N   -0.201092
    10  C    0.125747
    11  C    0.074085
    12  C    0.034083
    13  C   -0.068716
    14  C   -0.036316
 Electronic spatial extent (au):  <R**2>=           1013.3608
 Charge=             -0.0000 electrons
 Dipole moment (field-independent basis, Debye):
    X=              1.5241    Y=             -1.5591    Z=              0.0334  Tot=              2.1806
 Quadrupole moment (field-independent basis, Debye-Ang):
   XX=            -45.8426   YY=            -44.7712   ZZ=            -58.1202
   XY=             -3.2035   XZ=              0.0676   YZ=             -0.0362
 Traceless Quadrupole moment (field-independent basis, Debye-Ang):
   XX=              3.7354   YY=              4.8068   ZZ=             -8.5421
   XY=             -3.2035   XZ=              0.0676   YZ=             -0.0362
 Octapole moment (field-independent basis, Debye-Ang**2):
  XXX=             14.6184  YYY=            -10.4243  ZZZ=              0.0422  XYY=              8.2296
  XXY=             -8.1503  XXZ=              0.4048  XZZ=              2.0792  YZZ=             -2.1622
  YYZ=              0.0705  XYZ=             -0.1472
 Hexadecapole moment (field-independent basis, Debye-Ang**3):
 XXXX=           -825.5088 YYYY=           -373.9170 ZZZZ=            -68.4766 XXXY=            -21.8073
 XXXZ=              1.0740 YYYX=            -19.5325 YYYZ=             -0.1771 ZZZX=              0.0735
 ZZZY=             -0.0280 XXYY=           -197.9162 XXZZ=           -186.4779 YYZZ=            -92.4516
 XXYZ=             -0.1885 YYXZ=             -0.0699 ZZXY=             -4.1242
 N-N= 3.994501375770D+02 E-N=-1.643777458534D+03  KE= 3.618448861530D+02
 There are a total of      359906 grid points.
 ElSum from          density=       61.9999637572
 ElSum from atomic densities=       61.9999136313
 Hirshfeld populations at iteration   1 (CA, CB, DipXYZ):
               1          2          3          4          5
     1  H    0.480878   0.480878  -0.005914   0.150449   0.001319
     2  H    0.481909   0.481909  -0.001098  -0.150839   0.000165
     3  H    0.482419   0.482419  -0.131257  -0.075054   0.000245
     4  H    0.475808   0.475808   0.160685  -0.015438   0.004663
     5  H    0.478614   0.478614   0.051450   0.151300  -0.001952
     6  C    3.044347   3.044347  -0.016513   0.085453  -0.000230
     7  C    3.006919   3.006919   0.050732  -0.094022   0.000814
     8  C    3.014017   3.014017  -0.010017   0.027953  -0.000732
     9  N    3.529319   3.529319   0.004671  -0.041222   0.001083
    10  C    2.986264   2.986264   0.057055  -0.049101  -0.000119
    11  C    3.022463   3.022463   0.020480   0.053205   0.000223
    12  C    3.030406   3.030406   0.017521  -0.049186   0.000094
    13  C    3.028418   3.028418  -0.045096   0.008796   0.000323
    14  C    3.025691   3.025691  -0.044892  -0.010800  -0.000086
    15  H    0.482921   0.482921  -0.132937   0.071102   0.000758
    16  H    0.429588   0.429588   0.065182  -0.191222   0.001768
       Tot  30.999982  30.999982   0.040052  -0.128627   0.008336

 Dip from Atomic Chgs              0.559522  -0.484785   0.004813
         Total Dipole              0.599574  -0.613412   0.013150

 Hirshfeld charges, spin densities, dipoles, and CM5 charges using IRadAn=      5:
              Q-H        S-H        Dx         Dy         Dz        Q-CM5   
     1  H    0.038244   0.000000  -0.005914   0.150449   0.001319   0.093932
     2  H    0.036181   0.000000  -0.001098  -0.150839   0.000165   0.093275
     3  H    0.035161   0.000000  -0.131257  -0.075054   0.000245   0.090619
     4  H    0.048383   0.000000   0.160685  -0.015438   0.004663   0.111621
     5  H    0.042773   0.000000   0.051450   0.151300  -0.001952   0.096456
     6  C   -0.088695   0.000000  -0.016513   0.085453  -0.000230  -0.131647
     7  C   -0.013838   0.000000   0.050732  -0.094022   0.000814  -0.001193
     8  C   -0.028034   0.000000  -0.010017   0.027953  -0.000732  -0.026843
     9  N   -0.058638   0.000000   0.004671  -0.041222   0.001083  -0.412282
    10  C    0.027472   0.000000   0.057055  -0.049101  -0.000119   0.087766
    11  C   -0.044926   0.000000   0.020480   0.053205   0.000223  -0.096803
    12  C   -0.060812   0.000000   0.017521  -0.049186   0.000094  -0.109301
    13  C   -0.056835   0.000000  -0.045096   0.008796   0.000323  -0.111902
    14  C   -0.051381   0.000000  -0.044892  -0.010800  -0.000086  -0.106243
    15  H    0.034159   0.000000  -0.132937   0.071102   0.000758   0.089583
    16  H    0.140823   0.000000   0.065182  -0.191222   0.001768   0.332999
       Tot   0.000036   0.000000   0.040052  -0.128627   0.008336   0.000036
 Hirshfeld charges with hydrogens summed into heavy atoms:
              Q-H       Q-CM5   
     6  C   -0.045922  -0.035192
     7  C    0.034545   0.110428
     8  C   -0.028034  -0.026843
     9  N    0.082185  -0.079283
    10  C    0.027472   0.087766
    11  C   -0.006682  -0.002871
    12  C   -0.024631  -0.016025
    13  C   -0.022676  -0.022319
    14  C   -0.016220  -0.015625
 
 EQQ= 0.000000000000E+00 EQD= 0.000000000000E+00 EDD= 0.830141807847E-02
 EQQ+QD+DD= 0.830141807847E-02
 
  Exact polarizability:     137.283       0.382     104.029      -0.038       0.002      53.449
 Approx polarizability:     225.747      -4.970     184.003      -0.189       0.077      85.570
 No NMR shielding tensors so no spin-rotation constants.
 Leave Link  601 at Mon Sep 26 11:29:04 2022, MaxMem=  7784628224 cpu:              17.8 elap:               1.2
 (Enter /cm/shared/gaussian/versions/g16.c01/intel64-sandybridge/g16/l701.exe)
 ... and contract with generalized density number  0.
 Compute integral second derivatives.
   1 Symmetry operations used in ECPInt.
 ECPInt:  NShTT=   10011 NPrTT=   28185 LenC2=    9737 LenP2D=   22359.
 LDataN:  DoStor=T MaxTD1= 8 Len=  415
 Leave Link  701 at Mon Sep 26 11:29:04 2022, MaxMem=  7784628224 cpu:               5.3 elap:               0.4
 (Enter /cm/shared/gaussian/versions/g16.c01/intel64-sandybridge/g16/l702.exe)
 L702 exits ... SP integral derivatives will be done elsewhere.
 Leave Link  702 at Mon Sep 26 11:29:04 2022, MaxMem=  7784628224 cpu:               0.4 elap:               0.1
 (Enter /cm/shared/gaussian/versions/g16.c01/intel64-sandybridge/g16/l703.exe)
 Integral derivatives from FoFJK, PRISM(SPDF).
 Compute integral second derivatives, UseDBF=F ICtDFT=           0.
 Calling FoFJK, ICntrl=    100127 FMM=F ISym2X=0 I1Cent= 0 IOpClX= 0 NMat=1 NMatS=1 NMatT=0.
 FoFJK:  IHMeth= 1 ICntrl=  100127 DoSepK=F KAlg= 0 I1Cent=           0 FoldK=F
 IRaf=         0 NMat=       1 IRICut=       1 DoRegI=T DoRafI=F ISym2E= 0 IDoP0=0 IntGTp=1.
 FoFCou: FMM=F IPFlag=           0 FMFlag=      100000 FMFlg1=         800
         NFxFlg=           0 DoJE=F BraDBF=F KetDBF=F FulRan=T
         wScrn=  0.000000 ICntrl=    100127 IOpCl=  0 I1Cent=           0 NGrid=           0
         NMat0=    1 NMatS0=      1 NMatT0=    0 NMatD0=    1 NMtDS0=    0 NMtDT0=    0
 Symmetry not used in FoFCou.
 Leave Link  703 at Mon Sep 26 11:33:00 2022, MaxMem=  7784628224 cpu:            3766.5 elap:             235.7
 (Enter /cm/shared/gaussian/versions/g16.c01/intel64-sandybridge/g16/l716.exe)
 Dipole        = 5.99634428D-01-6.13415212D-01 1.31477575D-02
 Polarizability= 1.37283275D+02 3.82415165D-01 1.04028892D+02
                -3.78305370D-02 1.76717317D-03 5.34486579D+01
 ***** Axes restored to original set *****
 -------------------------------------------------------------------
 Center     Atomic                   Forces (Hartrees/Bohr)
 Number     Number              X              Y              Z
 -------------------------------------------------------------------
      1        1           0.002183204   -0.002448934    0.000590004
      2        1          -0.001826100    0.002070167   -0.000262908
      3        1          -0.002867341   -0.001218936   -0.000828433
      4        1           0.001503860    0.002839952    0.001638868
      5        1           0.012614662   -0.003705585    0.002125488
      6        6           0.002687994   -0.003764323    0.001528053
      7        6          -0.007417966    0.005621652   -0.002864750
      8        6          -0.002672048   -0.000379787   -0.001166935
      9        7           0.000985739   -0.000648230    0.000219416
     10        6           0.000794130    0.003237222    0.000400435
     11        6           0.003589131   -0.000872141    0.000779841
     12        6          -0.003396489    0.002310240   -0.000516580
     13        6          -0.001339976   -0.003106953   -0.000474512
     14        6          -0.001376887   -0.001477995   -0.000517406
     15        1          -0.000191446   -0.003254763   -0.000307954
     16        1          -0.003270467    0.004798415   -0.000342628
 -------------------------------------------------------------------
 Cartesian Forces:  Max     0.012614662 RMS     0.003066910
 FormGI is forming the generalized inverse of G from B-inverse, IUseBI=4.
 Leave Link  716 at Mon Sep 26 11:33:00 2022, MaxMem=  7784628224 cpu:               0.5 elap:               0.1
 (Enter /cm/shared/gaussian/versions/g16.c01/intel64-sandybridge/g16/l103.exe)

 GradGradGradGradGradGradGradGradGradGradGradGradGradGradGradGradGradGrad
 Berny optimization.
 Red2BG is reusing G-inverse.
 Internal  Forces:  Max     0.013305887 RMS     0.002970127
 Search for a local minimum.
 Step number   1 out of a maximum of  100
 All quantities printed in internal units (Hartrees-Bohrs-Radians)
 RMS Force = .29701D-02 SwitMx=.10000D-02 MixMth= 1
 Mixed Optimization -- RFO/linear search
 Second derivative matrix not updated -- analytic derivatives used.
 ITU=  0
     Eigenvalues ---    0.00267   0.01037   0.01221   0.01557   0.01575
     Eigenvalues ---    0.01786   0.01927   0.01943   0.02312   0.02800
     Eigenvalues ---    0.02955   0.03533   0.04663   0.09401   0.10501
     Eigenvalues ---    0.10706   0.10851   0.11069   0.12059   0.12221
     Eigenvalues ---    0.16472   0.19007   0.19237   0.21544   0.22426
     Eigenvalues ---    0.24998   0.30361   0.32855   0.33342   0.34403
     Eigenvalues ---    0.34800   0.34908   0.34983   0.36265   0.37960
     Eigenvalues ---    0.38683   0.39711   0.41564   0.44872   0.46239
     Eigenvalues ---    0.47528   0.49517
 RFO step:  Lambda=-1.86487643D-03 EMin= 2.66609451D-03
 Linear search not attempted -- first point.
 Iteration  1 RMS(Cart)=  0.01298161 RMS(Int)=  0.00008712
 Iteration  2 RMS(Cart)=  0.00010056 RMS(Int)=  0.00003070
 Iteration  3 RMS(Cart)=  0.00000001 RMS(Int)=  0.00003070
 ITry= 1 IFail=0 DXMaxC= 7.25D-02 DCOld= 1.00D+10 DXMaxT= 7.00D-02 DXLimC= 3.00D+00 Rises=F
 Variable       Old X    -DE/DX   Delta X   Delta X   Delta X     New X
                                 (Linear)    (Quad)   (Total)
    R1        2.05427  -0.00328   0.00000  -0.00879  -0.00879   2.04548
    R2        2.05296  -0.00272   0.00000  -0.00726  -0.00726   2.04569
    R3        2.05330  -0.00322   0.00000  -0.00894  -0.00894   2.04437
    R4        2.04463  -0.00349   0.00000  -0.00999  -0.00999   2.03464
    R5        2.07114  -0.01331   0.00000  -0.03838  -0.03838   2.03276
    R6        2.60420  -0.01194   0.00000  -0.02548  -0.02544   2.57876
    R7        2.73072  -0.00756   0.00000  -0.02207  -0.02204   2.70868
    R8        2.60414  -0.00193   0.00000   0.00100   0.00099   2.60513
    R9        2.69135  -0.00636   0.00000  -0.01091  -0.01093   2.68042
   R10        2.66005  -0.00596   0.00000  -0.01197  -0.01196   2.64809
   R11        2.60556  -0.00264   0.00000  -0.00421  -0.00426   2.60130
   R12        1.90773  -0.00581   0.00000  -0.01248  -0.01248   1.89525
   R13        2.64600  -0.00578   0.00000  -0.01198  -0.01198   2.63402
   R14        2.62695  -0.00652   0.00000  -0.01361  -0.01361   2.61334
   R15        2.62820  -0.00638   0.00000  -0.01223  -0.01224   2.61596
   R16        2.66772  -0.00563   0.00000  -0.01161  -0.01161   2.65611
   R17        2.05337  -0.00327   0.00000  -0.00888  -0.00888   2.04449
    A1        2.20453  -0.00240   0.00000  -0.00855  -0.00863   2.19591
    A2        2.22456  -0.00190   0.00000  -0.00675  -0.00683   2.21773
    A3        1.85398   0.00431   0.00000   0.01550   0.01557   1.86954
    A4        2.25946   0.00135   0.00000   0.00849   0.00836   2.26782
    A5        2.10139   0.00101   0.00000   0.00186   0.00173   2.10312
    A6        1.92199  -0.00235   0.00000  -0.00972  -0.00975   1.91224
    A7        1.86861  -0.00064   0.00000  -0.00351  -0.00349   1.86512
    A8        2.34109   0.00094   0.00000   0.00408   0.00404   2.34514
    A9        2.07343  -0.00029   0.00000  -0.00048  -0.00050   2.07293
   A10        1.90731   0.00016   0.00000   0.00028   0.00026   1.90757
   A11        2.18303   0.00009   0.00000   0.00233   0.00233   2.18536
   A12        2.19282  -0.00025   0.00000  -0.00257  -0.00256   2.19025
   A13        1.87289  -0.00148   0.00000  -0.00254  -0.00258   1.87031
   A14        2.13481   0.00025   0.00000  -0.00083  -0.00081   2.13400
   A15        2.27547   0.00123   0.00000   0.00339   0.00340   2.27888
   A16        2.10635  -0.00060   0.00000  -0.00487  -0.00488   2.10148
   A17        2.09872   0.00052   0.00000   0.00425   0.00425   2.10297
   A18        2.07810   0.00008   0.00000   0.00064   0.00064   2.07874
   A19        2.11492   0.00056   0.00000   0.00456   0.00456   2.11948
   A20        2.11809  -0.00058   0.00000  -0.00574  -0.00574   2.11235
   A21        2.05018   0.00003   0.00000   0.00118   0.00117   2.05135
   A22        2.11354   0.00028   0.00000   0.00057   0.00057   2.11412
   A23        2.08795   0.00004   0.00000   0.00118   0.00118   2.08913
   A24        2.08169  -0.00032   0.00000  -0.00175  -0.00175   2.07994
   A25        2.08297   0.00025   0.00000   0.00125   0.00125   2.08423
   A26        2.08391   0.00009   0.00000  -0.00019  -0.00019   2.08373
   A27        2.11630  -0.00034   0.00000  -0.00106  -0.00107   2.11523
    D1        0.04106  -0.00048   0.00000  -0.03646  -0.03650   0.00455
    D2       -3.12922  -0.00009   0.00000  -0.01059  -0.01056  -3.13979
    D3       -3.11550  -0.00039   0.00000  -0.02351  -0.02357  -3.13907
    D4       -0.00259   0.00000   0.00000   0.00237   0.00236  -0.00022
    D5        3.12878   0.00010   0.00000   0.01106   0.01104   3.13982
    D6       -0.02434   0.00023   0.00000   0.02116   0.02115  -0.00319
    D7        0.00237   0.00001   0.00000  -0.00207  -0.00208   0.00029
    D8        3.13243   0.00014   0.00000   0.00803   0.00803   3.14046
    D9        3.11775   0.00035   0.00000   0.02153   0.02147   3.13921
   D10       -0.01662   0.00025   0.00000   0.01530   0.01524  -0.00138
   D11        0.00183  -0.00001   0.00000  -0.00178  -0.00177   0.00007
   D12       -3.13254  -0.00011   0.00000  -0.00801  -0.00800  -3.14053
   D13       -0.00131  -0.00001   0.00000   0.00107   0.00106  -0.00025
   D14        3.13640   0.00006   0.00000   0.00460   0.00457   3.14096
   D15       -3.13346  -0.00013   0.00000  -0.00724  -0.00722  -3.14068
   D16        0.00425  -0.00005   0.00000  -0.00371  -0.00371   0.00053
   D17        0.00343   0.00003   0.00000  -0.00262  -0.00265   0.00078
   D18       -3.13257  -0.00009   0.00000  -0.00786  -0.00787  -3.14044
   D19        3.13245   0.00017   0.00000   0.00838   0.00837   3.14082
   D20       -0.00356   0.00005   0.00000   0.00315   0.00315  -0.00041
   D21       -0.00026   0.00002   0.00000   0.00038   0.00038   0.00012
   D22       -3.13754  -0.00006   0.00000  -0.00352  -0.00351  -3.14105
   D23        3.13406   0.00012   0.00000   0.00668   0.00666   3.14071
   D24       -0.00322   0.00004   0.00000   0.00278   0.00276  -0.00046
   D25        3.14146  -0.00001   0.00000   0.00004   0.00004   3.14149
   D26       -0.00136  -0.00000   0.00000   0.00110   0.00110  -0.00027
   D27       -0.00501   0.00007   0.00000   0.00444   0.00443  -0.00057
   D28        3.13536   0.00008   0.00000   0.00550   0.00549   3.14085
   D29       -3.13583  -0.00011   0.00000  -0.00533  -0.00535  -3.14118
   D30        0.00490  -0.00010   0.00000  -0.00458  -0.00459   0.00030
   D31        0.00020  -0.00000   0.00000  -0.00015  -0.00015   0.00005
   D32        3.14093   0.00001   0.00000   0.00060   0.00061   3.14153
   D33       -0.00113   0.00001   0.00000   0.00099   0.00099  -0.00014
   D34        3.13822   0.00007   0.00000   0.00309   0.00309   3.14131
   D35       -3.14149   0.00000   0.00000  -0.00008  -0.00008  -3.14156
   D36       -0.00214   0.00006   0.00000   0.00203   0.00203  -0.00011
   D37       -3.14106  -0.00000   0.00000  -0.00044  -0.00044  -3.14151
   D38        0.00277  -0.00006   0.00000  -0.00255  -0.00255   0.00022
   D39        0.00139  -0.00002   0.00000  -0.00120  -0.00120   0.00019
   D40       -3.13796  -0.00007   0.00000  -0.00330  -0.00331  -3.14126
         Item               Value     Threshold  Converged?
 Maximum Force            0.013306     0.000015     NO 
 RMS     Force            0.002970     0.000010     NO 
 Maximum Displacement     0.072506     0.000060     NO 
 RMS     Displacement     0.013030     0.000040     NO 
 Predicted change in Energy=-9.404382D-04
 Lowest energy point so far.  Saving SCF results.
 GradGradGradGradGradGradGradGradGradGradGradGradGradGradGradGradGradGrad

 Leave Link  103 at Mon Sep 26 11:33:00 2022, MaxMem=  7784628224 cpu:               1.8 elap:               0.2
 (Enter /cm/shared/gaussian/versions/g16.c01/intel64-sandybridge/g16/l202.exe)
                          Input orientation:                          
 ---------------------------------------------------------------------
 Center     Atomic      Atomic             Coordinates (Angstroms)
 Number     Number       Type             X           Y           Z
 ---------------------------------------------------------------------
      1          1           0        0.620975    2.194542   -0.247869
      2          1           0        4.563351   -0.799497    0.471267
      3          1           0        4.763387    1.652433    0.730769
      4          1           0        0.222436   -2.919982   -0.787814
      5          1           0       -0.771652   -0.425205   -0.815225
      6          6           0        0.240187   -0.713442   -0.591146
      7          6           0        0.723437   -1.989597   -0.581344
      8          6           0        1.329106    0.152671   -0.246676
      9          7           0        2.061212   -1.974069   -0.248791
     10          6           0        2.462350   -0.674323   -0.037510
     11          6           0        1.468200    1.538673   -0.093961
     12          6           0        3.707244   -0.155695    0.314793
     13          6           0        2.702038    2.056416    0.255397
     14          6           0        3.811234    1.217247    0.458042
     15          1           0        2.820287    3.125069    0.375807
     16          1           0        2.647978   -2.783998   -0.174129
 ---------------------------------------------------------------------
                    Distance matrix (angstroms):
                    1          2          3          4          5
     1  H    0.000000
     2  H    5.002374   0.000000
     3  H    4.290826   2.473725   0.000000
     4  H    5.158365   4.992522   6.620673   0.000000
     5  H    3.020659   5.500673   6.110919   2.685679   0.000000
     6  C    2.952831   4.452625   5.272965   2.215358   1.075691
     7  C    4.198657   4.155631   5.595286   1.076684   2.176537
     8  C    2.161177   3.447087   3.872851   3.310399   2.251748
     9  N    4.410397   2.856362   4.627397   2.136912   3.277948
    10  C    3.415450   2.165347   3.361372   3.259318   3.335516
    11  C    1.082424   3.920010   3.398732   4.681128   3.064959
    12  C    3.919855   1.082535   2.134901   4.582675   4.627104
    13  C    2.145502   3.415746   2.153681   5.656964   4.401272
    14  C    3.410450   2.152466   1.081832   5.616787   5.032068
    15  H    2.468162   4.295300   2.463796   6.681727   5.188933
    16  H    5.375876   2.832566   4.997571   2.505665   4.203425
                    6          7          8          9         10
     6  C    0.000000
     7  C    1.364623   0.000000
     8  C    1.433372   2.251255   0.000000
     9  N    2.241097   1.378577   2.249224   0.000000
    10  C    2.290425   2.247113   1.418419   1.376550   0.000000
    11  C    2.612897   3.638805   1.401310   3.565809   2.426700
    12  C    3.626609   3.615158   2.462901   2.516651   1.393864
    13  C    3.801244   4.580962   2.400263   4.112137   2.756842
    14  C    4.192939   4.571506   2.791221   3.707653   2.375521
    15  H    4.725048   5.610055   3.383231   5.193026   3.838532
    16  H    3.202899   2.121499   3.220049   1.002923   2.122228
                   11         12         13         14         15
    11  C    0.000000
    12  C    2.837479   0.000000
    13  C    1.382919   2.430515   0.000000
    14  C    2.428546   1.384307   1.405555   0.000000
    15  H    2.136697   3.399092   1.081897   2.151400   0.000000
    16  H    4.481494   2.875599   4.859735   4.214590   5.937103
                   16
    16  H    0.000000
 Stoichiometry    C8H7N
 Framework group  C1[X(C8H7N)]
 Deg. of freedom    42
 Full point group                 C1      NOp   1
 RotChk:  IX=0 Diff= 9.19D-04
 Largest Abelian subgroup         C1      NOp   1
 Largest concise Abelian subgroup C1      NOp   1
                         Standard orientation:                         
 ---------------------------------------------------------------------
 Center     Atomic      Atomic             Coordinates (Angstroms)
 Number     Number       Type             X           Y           Z
 ---------------------------------------------------------------------
      1          1           0       -1.009516    2.505779    0.000610
      2          1           0       -0.917438   -2.495748   -0.000176
      3          1           0       -3.061787   -1.262426    0.000317
      4          1           0        3.452799   -0.081975    0.002751
      5          1           0        1.992655    2.172096   -0.001446
      6          6           0        1.620296    1.162910    0.000018
      7          6           0        2.382028    0.030672    0.000202
      8          6           0        0.248206    0.748275   -0.000655
      9          7           0        1.561911   -1.077427   -0.000029
     10          6           0        0.246992   -0.670143   -0.000454
     11          6           0       -0.979546    1.423770    0.000022
     12          6           0       -0.932225   -1.413314   -0.000235
     13          6           0       -2.151334    0.689346    0.000371
     14          6           0       -2.128086   -0.716017    0.000112
     15          1           0       -3.104598    1.200998    0.000951
     16          1           0        1.876530   -2.029724    0.000910
 ---------------------------------------------------------------------
 Rotational constants (GHZ):           3.9076202           1.6427061           1.1565216
 Leave Link  202 at Mon Sep 26 11:33:00 2022, MaxMem=  7784628224 cpu:               0.3 elap:               0.0
 (Enter /cm/shared/gaussian/versions/g16.c01/intel64-sandybridge/g16/l301.exe)
 Standard basis: def2TZVPP (5D, 7F)
 Ernie: Thresh=  0.10000D-02 Tol=  0.10000D-05 Strict=F.
 There are   429 symmetry adapted cartesian basis functions of A   symmetry.
 There are   377 symmetry adapted basis functions of A   symmetry.
   377 basis functions,   578 primitive gaussians,   429 cartesian basis functions
    31 alpha electrons       31 beta electrons
       nuclear repulsion energy       401.3134969022 Hartrees.
 IExCor=  402 DFT=T Ex+Corr=B3LYP ExCW=0 ScaHFX=  0.200000
 ScaDFX=  0.800000  0.720000  1.000000  0.810000 ScalE2=  1.000000  1.000000
 IRadAn=      5 IRanWt=     -1 IRanGd=            0 ICorTp=0 IEmpDi=  4
 NAtoms=   16 NActive=   16 NUniq=   16 SFac= 1.00D+00 NAtFMM=   60 NAOKFM=F Big=F
 Integral buffers will be    131072 words long.
 Raffenetti 2 integral format.
 Two-electron integral symmetry is turned on.
 Leave Link  301 at Mon Sep 26 11:33:01 2022, MaxMem=  7784628224 cpu:               1.0 elap:               0.1
 (Enter /cm/shared/gaussian/versions/g16.c01/intel64-sandybridge/g16/l302.exe)
 NPDir=0 NMtPBC=     1 NCelOv=     1 NCel=       1 NClECP=     1 NCelD=      1
         NCelK=      1 NCelE2=     1 NClLst=     1 CellRange=     0.0.
 One-electron integrals computed using PRISM.
 One-electron integral symmetry used in STVInt
   1 Symmetry operations used in ECPInt.
 ECPInt:  NShTT=   10011 NPrTT=   28185 LenC2=    9744 LenP2D=   22407.
 LDataN:  DoStor=T MaxTD1= 6 Len=  172
 NBasis=   377 RedAO= T EigKep=  8.45D-06  NBF=   377
 NBsUse=   377 1.00D-06 EigRej= -1.00D+00 NBFU=   377
 Precomputing XC quadrature grid using
 IXCGrd= 4 IRadAn=           5 IRanWt=          -1 IRanGd=           0 AccXCQ= 0.00D+00.
 Generated NRdTot=       0 NPtTot=           0 NUsed=           0 NTot=          32
 NSgBfM=   428   428   428   428   428 MxSgAt=    16 MxSgA2=    16.
 Leave Link  302 at Mon Sep 26 11:33:01 2022, MaxMem=  7784628224 cpu:               6.0 elap:               0.4
 (Enter /cm/shared/gaussian/versions/g16.c01/intel64-sandybridge/g16/l303.exe)
 DipDrv:  MaxL=1.
 Leave Link  303 at Mon Sep 26 11:33:01 2022, MaxMem=  7784628224 cpu:               0.8 elap:               0.1
 (Enter /cm/shared/gaussian/versions/g16.c01/intel64-sandybridge/g16/l401.exe)
 Initial guess from the checkpoint file:  "indole_qm.chk"
 B after Tr=     0.000000   -0.000000   -0.000000
         Rot=    1.000000    0.000005   -0.000001   -0.000124 Ang=   0.01 deg.
 Guess basis will be translated and rotated to current coordinates.
 JPrj=2 DoOrth=T DoCkMO=T.
 Generating alternative initial guess.
 ExpMin= 9.52D-02 ExpMax= 1.97D+04 ExpMxC= 6.73D+02 IAcc=3 IRadAn=         5 AccDes= 0.00D+00
 Harris functional with IExCor=  402 and IRadAn=       5 diagonalized for initial guess.
 HarFok:  IExCor=  402 AccDes= 0.00D+00 IRadAn=         5 IDoV= 1 UseB2=F ITyADJ=14
[...]
     1          1.97443417         -0.27592475         -3.84977790
     1          7.90467449          2.45962728          2.98536545
     1          9.02803583          2.97781090         -1.52277865
     1         -0.33703156         -1.34216011          5.56120312
     1         -1.28300421         -1.77853054          0.59184236
     6          0.39155044         -1.00607895          1.45148099
     6          0.83155094         -0.80310986          3.98514159
     6          2.56492416         -0.00353209          0.18230598
     7          3.16975393          0.27547306          4.38063158
     6          4.27999042          0.78760775          2.08451023
     6          3.24512699          0.31023181         -2.35778534
     6          6.61498457          1.86470839          1.51301712
     6          5.56054076          1.37829970         -2.93108589
     6          7.23001711          2.14841021         -1.01392204
     1          6.10420263          1.62907941         -4.88601663
     1          3.93716171          0.62947030          6.07726788

 Electric dipole moment (dipole orientation):
 (Debye = 10**-18 statcoulomb cm , SI units = C m)
                  (au)            (Debye)         (10**-30 SI)
   Tot        0.849943D+00      0.216034D+01      0.720611D+01
   x          0.000000D+00      0.000000D+00      0.000000D+00
   y          0.000000D+00      0.000000D+00      0.000000D+00
   z          0.849943D+00      0.216034D+01      0.720611D+01

 Dipole polarizability, Alpha (dipole orientation).
 (esu units = cm**3 , SI units = C**2 m**2 J**-1)
 Alpha(0;0):
               (au)            (10**-24 esu)      (10**-40 SI)
   iso        0.971002D+02      0.143888D+02      0.160097D+02
   aniso      0.719947D+02      0.106685D+02      0.118703D+02
   xx         0.107853D+03      0.159821D+02      0.177825D+02
   yx         0.252537D+02      0.374221D+01      0.416377D+01
   yy         0.647556D+02      0.959579D+01      0.106768D+02
   zx        -0.150852D+02     -0.223540D+01     -0.248722D+01
   zy        -0.695851D+01     -0.103115D+01     -0.114730D+01
   zz         0.118693D+03      0.175884D+02      0.195698D+02

 ----------------------------------------------------------------------
 Unable to Open any file for archive entry.
 1\1\GINC-CURIE25\Freq\RB3LYP\def2TZVPP\C8H7N1\E.FALBO\26-Sep-2022\0\\#
 P Geom=AllCheck Guess=TCheck SCRF=Check GenChk RB3LYP/def2TZVPP Freq\\
 Title Card Required\\0,1\H,0.6208139185,2.19469369,-0.247252583\H,4.56
 35775141,-0.7995007658,0.4708100981\H,4.7635463984,1.6524369866,0.7310
 140216\H,0.2220623001,-2.9206666933,-0.7855450609\H,-0.7724610675,-0.4
 248668829,-0.8170756679\C,0.2399935848,-0.7134295942,-0.5914048053\C,0
 .7235237804,-1.9899386463,-0.5814955187\C,1.3292724486,0.1528504916,-0
 .2474743604\N,2.0613746683,-1.9741255445,-0.2491649896\C,2.4625191156,
 -0.6742960553,-0.0382102376\C,1.468226015,1.5388602386,-0.0939770314\C
 ,3.7074501511,-0.1556880013,0.3143457146\C,2.7020954661,2.0565531487,0
 .2557634547\C,3.8113936438,1.2173031857,0.4580630444\H,2.8202503284,3.
 12517816,0.3768371749\H,2.6481317344,-2.7841237175,-0.1736232534\\Vers
 ion=ES64L-G16RevC.01\State=1-A\HF=-363.9587636\RMSD=2.552e-09\RMSF=1.5
 97e-07\ZeroPoint=0.129471\Thermal=0.1357763\ETot=-363.8229873\HTot=-36
 3.8220431\GTot=-363.859607\Dipole=0.1513749,-0.8356475,-0.0343731\Dipo
 leDeriv=-0.0378891,0.0912865,-0.0333808,0.0665872,-0.0008318,0.0053355
 ,-0.0355037,0.0114459,0.1209571,-0.0360629,0.0697821,-0.0379674,0.0938
 453,-0.011214,0.0100782,-0.0358992,0.0041252,0.1331252,-0.0721903,-0.0
 617507,-0.0568769,-0.0633358,0.0367427,-0.0242221,-0.0570131,-0.023829
 9,0.1201122,0.0637101,-0.0373895,-0.0294008,-0.0487747,-0.0124245,-0.0
 277077,-0.0303793,-0.0248911,0.1599095,-0.0445295,0.0047347,-0.0520467
 ,0.026905,0.0636851,-0.0022663,-0.0501415,-0.007751,0.1544276,-0.00811
 09,-0.0694722,0.0481733,0.0864143,-0.2279829,0.021291,0.0615716,-0.017
 2738,-0.213225,0.3672723,-0.4161253,0.0859202,-0.2684075,0.0441783,-0.
 0518953,0.0986161,-0.0884392,-0.1078055,0.0839872,0.3879094,0.0646999,
 0.0639547,-0.0880884,0.0119276,0.0368575,0.0920709,-0.025748,-0.452131
 3,0.2877137,-0.0319281,-0.1054985,-0.5675214,-0.0556996,-0.0657235,0.0
 415771,-0.2358014,-0.1800156,-0.059698,-0.0610891,0.2675088,0.5277778,
 0.1075704,-0.032967,0.0266231,0.0403112,0.1140435,-0.0182538,0.0555857
 ,0.0113762,0.1340435,0.0243898,0.0581324,0.017059,-0.1011385,0.1131353
 ,-0.019831,0.0639347,0.0583791,0.0335919,0.0304097,0.0706563,0.0110612
 ,-0.1337599,-0.1707562,-0.0855994,-0.0080051,-0.0107333,0.0549005,0.01
 65135,-0.0015708,-0.0020077,-0.168697,0.0527331,-0.0203588,0.0518387,-
 0.1273367,-0.0900614,-0.0251572,0.0426446,0.0013081,-0.1532207,0.06282
 61,-0.0203377,-0.0202164,-0.0212876,-0.1199963,-0.0273952,-0.020298,-0
 .0271601,0.1301235,0.1439781,-0.03261,-0.0392412,-0.0295965,0.2232009,
 -0.0131722,-0.0389823,-0.0139176,0.2804297\Polar=110.0254448,13.929168
 5,123.5725155,15.278373,9.502219,57.7027849\Quadrupole=0.6452806,5.134
 4968,-5.7797775,-1.241818,1.5945999,0.6696751\PG=C01 [X(C8H7N1)]\NImag
 =0\\0.23732442,-0.14249468,0.16734668,0.04043280,-0.02296473,0.0324122
 0,-0.00009343,0.00010731,0.00030228,0.24264911,0.00007768,0.00005214,0
 .00013354,-0.14078156,0.16015392,0.00029974,0.00014087,-0.00119177,0.0
 4225732,-0.02303393,0.03140204,-0.00095274,-0.00056967,-0.00035024,0.0
 0052035,-0.00050532,0.00120944,0.28748682,0.00091813,0.00033833,0.0002
 3343,0.00027590,0.00121098,0.00056287,0.10497751,0.10706024,-0.0002223
 7,-0.00013464,0.00019851,0.00127658,0.00036961,-0.00419643,0.07406614,
 0.03306034,0.04573150,-0.00001268,-0.00004506,-0.00005292,0.00001377,0
 .00003522,-0.00001535,-0.00002887,-0.00015108,0.00008582,0.12195328,0.
 00004174,-0.00002545,-0.00000781,-0.00004708,-0.00001609,-0.00002060,-
 0.00002197,0.00002268,0.00003332,0.12776095,0.29007377,-0.00004546,-0.
 00002928,0.00017183,-0.00002243,-0.00000024,0.00008250,0.00009692,0.00
 000138,-0.00040416,0.03606719,0.05477159,0.03417852,-0.00003028,-0.000
 63778,-0.00008680,-0.00023780,-0.00015400,-0.00012562,0.00000415,-0.00
 003908,-0.00001227,-0.00021836,0.00040702,0.00086900,0.33135270,0.0004
 3251,-0.00042611,0.00006187,-0.00035839,-0.00012229,-0.00011778,0.0000
 1824,-0.00002109,-0.00000075,-0.00092876,0.00047350,0.00011944,-0.0823
 8582,0.07209451,0.00000518,-0.00020292,0.00008287,-0.00014318,-0.00006
 721,0.00017526,-0.00000735,-0.00001493,0.00003708,0.00075419,0.0004499
 0,-0.00336437,0.06976934,-0.01596517,0.03659806,0.00044379,-0.00014960
 ,0.00084214,-0.00099603,-0.00076404,-0.00025296,-0.00001809,0.00000487
 ,0.00005055,0.01213170,-0.01559926,0.00092432,-0.31698637,0.07355934,-
 0.06590473,0.75001397,-0.00005645,0.00210544,0.00042588,0.00076911,0.0
 0034330,0.00024031,-0.00001345,0.00047936,0.00005684,0.00828837,-0.009
 37177,0.00098922,0.07671006,-0.07890674,0.01434698,-0.13485638,0.62725
 178,0.00085015,0.00040284,-0.00276734,-0.00012119,-0.00013897,-0.00028
 087,0.00004897,0.00006137,-0.00020334,0.00297737,-0.00492035,0.0032897
 7,-0.06563392,0.01356753,-0.04010274,0.14589559,0.01079936,0.15044658,
 0.00001618,0.00054669,0.00010065,-0.00109211,0.00003800,-0.00016136,0.
 00011174,0.00040803,0.00011891,-0.11849368,-0.11855644,-0.03274779,-0.
 00299736,0.02573715,0.00167384,-0.14155611,0.09166712,-0.01179110,0.58
 039465,0.00043779,-0.00017076,0.00011088,0.00007861,0.00039662,0.00009
 021,-0.00007480,-0.00076341,-0.00006459,-0.11038331,-0.28402609,-0.049
 37172,-0.00198220,0.00162205,-0.00028033,0.10521768,-0.36310254,0.0001
 5527,0.06040412,0.84792894,0.00009128,0.00013782,-0.00016629,-0.000157
 87,0.00008016,-0.00045883,0.00007742,0.00005485,-0.00020331,-0.0320453
 2,-0.05139368,-0.03965358,-0.00070855,0.00657717,-0.00043188,-0.010626
 47,-0.00319704,-0.06495175,0.11935157,0.07759762,0.15513326,0.00602347
 ,0.02653572,0.00298079,-0.00174350,-0.00237091,-0.00208904,0.00029875,
 0.00020406,0.00034539,-0.00055776,0.00223013,-0.00151108,-0.01070291,-
 0.01676321,-0.00388399,-0.20014436,-0.05899642,-0.03947456,0.02332644,
 -0.04100846,-0.00002465,0.55455760,-0.00240861,-0.01370487,-0.00204822
 ,-0.00344028,-0.00027392,-0.00137975,0.00073236,-0.00103877,0.00018012
 ,0.00376937,-0.00434754,0.00001523,0.00912813,0.01165583,0.00333106,-0
 .06221202,-0.13994272,-0.02216893,0.00197981,-0.07208233,-0.00649432,0
 .02134654,0.76473568,0.00049316,0.00511235,0.00375467,-0.00218095,-0.0
 0111520,0.00524176,0.00039080,0.00004943,-0.00092561,-0.00137878,-0.00
 036556,0.00595255,-0.00165874,-0.00307423,-0.00150133,-0.03975090,-0.0
 2137340,-0.07274764,0.00367002,-0.01712923,0.00861513,0.10135414,0.057
 91896,0.18233209,0.00030467,0.00115684,0.00025181,0.00259349,0.0009958
 6,0.00139772,0.00000157,-0.00195021,-0.00047829,-0.01155476,0.00394670
 ,-0.00206134,0.00135684,0.00233730,-0.00067364,-0.05383491,0.05648911,
 -0.01238352,-0.27981371,-0.00278471,-0.05793870,-0.01064810,0.00602269
 ,-0.00454181,0.69396027,-0.00027623,-0.00127480,-0.00015115,0.00018911
 ,0.00144829,0.00040421,-0.00010855,0.00013347,-0.00012345,-0.03012164,
 0.00683665,-0.00670511,0.00044315,-0.00552551,-0.00078570,0.02983860,-
 0.02569773,0.00381120,-0.00076776,-0.11575271,-0.00613494,0.03299207,-
 0.05929111,0.00222352,-0.17391685,0.81392880,0.00012864,0.00020338,-0.
 00026198,0.00132838,0.00060379,-0.00232988,-0.00032001,-0.00057906,0.0
 0112845,-0.00498939,0.00172308,-0.00293753,-0.00083643,-0.00031710,0.0
 0465763,-0.01467404,0.01040427,0.01311074,-0.05776534,-0.00663392,-0.0
 6144242,-0.00222389,-0.00444844,0.00887060,0.14106601,0.02148639,0.100
 06829,0.00148320,-0.00204845,-0.00143431,-0.01730682,-0.00999304,-0.00
 590935,0.00214752,0.00103749,-0.00111630,-0.00475861,0.00177074,-0.001
 52439,-0.00211211,-0.00331052,-0.00160408,-0.04701147,-0.01035836,-0.0
 1488388,-0.04705496,-0.04003129,-0.01790114,-0.20389645,0.04122128,-0.
 02671269,-0.13214860,-0.02885151,-0.02236633,0.73045530,-0.00139650,-0
 .00389877,-0.00124515,0.02011087,0.01061054,0.00562002,0.00037836,-0.0
 0557224,-0.00098866,0.00309996,0.00016716,0.00060779,-0.00267710,-0.00
 379669,-0.00126550,0.01356693,0.01751389,0.00404049,-0.05511489,-0.026
 22755,-0.01686863,0.08566066,-0.15825053,0.01460366,-0.04365981,-0.268
 36833,-0.02941745,0.07143585,0.64019100,-0.00137828,-0.00140645,0.0061
 0746,-0.00332204,-0.00182739,0.00212935,-0.00117296,-0.00082561,0.0066
 5916,-0.00141015,0.00027895,0.00169358,-0.00154963,-0.00142220,0.00271
 617,-0.01282759,-0.00187838,0.00621865,-0.01919752,-0.01313710,0.00551
 919,-0.02289326,0.00360975,-0.08695106,-0.02363904,-0.02575400,-0.0598
 2444,0.14980607,0.05982596,0.19192953,-0.22526518,0.13112465,-0.035630
 03,-0.00032742,-0.00068267,0.00005233,-0.00190740,0.00329480,-0.001625
 21,0.00086500,-0.00114207,-0.00013981,0.00082451,0.00069786,0.00066703
 ,0.00133370,-0.03640279,-0.00293590,-0.01074231,0.00494938,-0.00315134
 ,-0.11573864,0.01196982,-0.01293550,-0.00067189,-0.00003054,-0.0006856
 7,0.03674055,0.02440554,0.01042407,0.68760091,0.13001960,-0.16134930,0
 .02136557,-0.00112594,-0.00056322,-0.00026025,0.00416294,-0.00174114,0
 .00038117,-0.00036775,0.00022090,-0.00016081,0.00058238,0.00116446,0.0
 0038419,-0.01524948,-0.03180323,-0.00655360,-0.01070098,0.01537831,-0.
 00164494,-0.01590072,-0.30845400,-0.02534801,0.00888452,-0.00296473,0.
 00176359,0.04882387,-0.03090680,0.00915725,-0.04560935,0.66552169,-0.0
 3572501,0.02163892,-0.04266605,0.00001424,-0.00015058,-0.00078557,-0.0
 0155061,0.00016640,0.00543743,-0.00007326,-0.00035237,0.00098496,0.000
 65710,0.00041276,-0.00143127,-0.00111785,-0.01178670,-0.00073506,-0.00
 449643,0.00222680,0.00279449,-0.01533083,-0.01845304,-0.06467098,0.000
 08054,-0.00044191,0.00207108,0.01252275,0.00311633,0.00644886,0.133316
 50,0.03449617,0.16881002,0.00005240,-0.00086195,0.00016468,-0.23129547
 ,0.12749076,-0.03814434,0.00103742,-0.02893774,-0.00282145,0.00032500,
 -0.00007804,-0.00045326,-0.00029938,-0.00048184,-0.00028097,-0.0053347
 3,0.00096306,-0.00170191,0.00547507,0.00695900,0.00153159,-0.03744881,
 0.02346641,-0.00868333,-0.00135713,-0.02193661,-0.00205462,-0.29196675
 ,-0.06958829,-0.06458225,-0.01796770,-0.01951887,-0.00546306,0.6688205
 8,-0.00061745,-0.00082120,-0.00014490,0.12861542,-0.15424275,0.0213821
 2,0.00075578,-0.00879774,-0.00077450,-0.00178431,0.00043140,-0.0005874
 2,0.00119920,0.00112213,0.00033562,-0.00021200,-0.00556957,-0.00069264
 ,0.00373308,-0.00065523,0.00072096,-0.00229903,0.05108389,0.00332287,-
 0.03999151,-0.02377979,-0.01187945,-0.02807000,-0.13482995,-0.01379771
 ,-0.02948587,-0.03302947,-0.00990405,-0.05372632,0.69325725,0.00018569
 ,-0.00020537,-0.00088440,-0.03804769,0.02110389,-0.04041565,-0.0002694
 2,-0.00812036,0.00162444,-0.00059991,-0.00016530,0.00196743,-0.0001365
 0,-0.00008026,0.00062831,-0.00180290,-0.00040195,0.00139876,0.00125434
 ,0.00151901,0.00214258,-0.01089781,0.00969701,0.00394079,-0.00360638,-
 0.00741285,-0.00220223,-0.06101388,-0.02406889,-0.07225108,-0.00631959
 ,-0.00743837,-0.00486879,0.13030994,0.03568400,0.15872110,-0.01733477,
 -0.01030597,-0.00594939,0.00225241,-0.00215678,-0.00154009,-0.01752962
 ,0.01755510,-0.00330234,0.00034203,0.00011352,0.00021178,-0.00034973,0
 .00017385,-0.00004399,0.01148119,0.01748676,0.00289858,0.00627115,-0.0
 1344850,0.00030156,0.00515850,-0.07401658,-0.00667954,-0.00540391,0.00
 828439,-0.00035362,-0.05337879,-0.00055183,-0.01202063,-0.30039616,-0.
 04413941,-0.06334159,0.03393806,0.06123322,0.01178818,0.62201708,0.019
 44668,0.01112220,0.00549749,-0.00094263,-0.00483533,-0.00131301,-0.012
 45312,0.01130190,-0.00227427,0.00023169,-0.00052330,0.00005313,-0.0001
 6971,-0.00000565,-0.00003289,0.00242415,-0.00180331,-0.00005716,0.0036
 7741,-0.00091030,0.00079886,-0.03823079,-0.01871319,-0.01162015,-0.004
 26878,-0.00723077,-0.00158328,0.01136442,0.00417362,0.00359823,-0.1003
 5327,-0.15664875,-0.03315939,0.01854728,-0.04194376,0.00033371,0.01801
 215,0.71938780,-0.00339229,-0.00186301,0.00213418,-0.00143575,-0.00161
 338,0.00723470,-0.00588141,0.00514948,0.00090539,0.00022193,0.00002390
 ,-0.00041762,-0.00007351,0.00005211,-0.00012524,0.00160401,0.00366917,
 0.00655178,0.00177346,-0.00343793,0.00052331,-0.00360398,-0.02047327,0
 .00379336,-0.00143251,0.00152225,-0.00131999,-0.01099648,0.00065033,-0
 .00764518,-0.06817280,-0.01925259,-0.07821138,0.00811958,0.01089371,0.
 01050562,0.12356605,0.05521462,0.16411048,-0.00282243,-0.00249147,-0.0
 0286886,0.00566428,0.02706838,0.00314351,-0.27192387,-0.09689507,-0.06
 727787,-0.00066391,0.00015580,-0.00013964,0.00019897,-0.00001929,0.000
 11250,-0.00436680,-0.00894800,-0.00161360,-0.00660751,0.00486353,-0.00
 139657,-0.00374147,0.02741581,0.00266709,-0.00058916,-0.00083101,-0.00
 157530,0.01699599,-0.03810560,-0.00025948,-0.05574413,-0.01039867,-0.0
 1646875,-0.12163085,-0.04175621,-0.01941462,-0.22660279,0.11184504,-0.
 03113319,0.66597395,-0.00356395,0.00031330,-0.00153445,-0.00245563,-0.
 01316439,-0.00194187,-0.09750089,-0.10351484,-0.03012655,0.00043673,0.
 00008040,0.00011885,-0.00024824,0.00009106,-0.00003103,0.00687239,0.00
 687041,0.00237254,-0.00023651,-0.00968015,-0.00095299,0.01278590,-0.04
 711640,-0.00045676,0.00012662,0.01590602,0.00092656,-0.07440143,-0.028
 11760,-0.02123588,0.03439330,0.05315864,0.01245729,0.01382354,-0.34443
 308,-0.02122715,0.05166435,-0.18552424,0.00215643,0.03204377,0.6707929
 4,-0.00296103,-0.00126914,0.00706685,0.00060605,0.00536208,0.00297215,
 -0.06732994,-0.02997670,-0.05286862,-0.00011550,0.00004935,-0.00006965
 ,0.00009282,0.00002561,-0.00023731,-0.00025391,-0.00154127,-0.00114821
 ,-0.00183490,0.00030871,0.00029994,0.00140981,0.00316255,-0.00437740,-
 0.00149299,0.00068965,0.00517974,-0.00337898,-0.01225670,0.00291718,-0
 .01261922,0.00137621,0.00420989,-0.01463780,-0.03497695,-0.06428677,-0
 .03630535,0.01704449,-0.06941712,0.13540575,0.05442589,0.16794488,0.00
 081639,0.00039925,0.00136608,0.00013143,0.00128399,0.00003854,0.000766
 01,-0.00066411,0.00095720,0.00008452,-0.00012310,0.00006543,-0.0000320
 2,-0.00000149,-0.00003205,0.00080687,-0.00084540,-0.00007801,-0.000488
 04,-0.00033388,-0.00000470,-0.00465438,-0.00138283,-0.00318970,0.00029
 018,0.00008478,0.00012128,-0.00126222,-0.00010601,-0.00014914,0.000814
 17,-0.02942516,-0.00282893,-0.00332725,0.00270631,-0.00199497,-0.06068
 911,-0.02886919,-0.00925611,0.00627740,0.02586146,0.00344185,0.0605162
 8,-0.00040659,0.00084093,0.00036419,-0.00021438,-0.00079337,-0.0001574
 7,0.00020586,0.00087275,0.00041247,0.00002199,-0.00004833,0.00002043,-
 0.00004085,-0.00001463,-0.00001970,0.00035406,-0.00043167,-0.00002071,
 -0.00045939,-0.00006577,-0.00006902,-0.00203856,0.00139924,-0.00105087
 ,0.00016045,0.00009261,0.00006231,0.00026529,0.00061837,0.00017861,0.0
 0063006,-0.00841718,-0.00074175,0.00354330,-0.00007847,0.00038192,-0.0
 2910048,-0.32817841,-0.03254229,-0.00441219,-0.01480655,-0.00248007,0.
 03147120,0.34897646,0.00129682,0.00056355,-0.00419762,-0.00009024,0.00
 021322,0.00041771,0.00103197,0.00019725,-0.00306165,0.00007790,-0.0000
 1547,-0.00020478,-0.00003543,-0.00000996,0.00008739,0.00002508,-0.0003
 1745,0.00080741,-0.00001549,-0.00003797,-0.00059212,-0.00324605,-0.000
 88864,0.00687921,0.00012778,0.00004359,-0.00013523,-0.00011723,0.00008
 674,-0.00071774,-0.00024583,-0.00817712,0.00126308,-0.00192304,0.00017
 487,0.00521631,-0.00927599,-0.03248506,-0.03839019,0.00083997,0.005009
 33,0.00198760,0.01155857,0.03565335,0.03065132,0.00004697,-0.00026584,
 -0.00006866,-0.00073225,0.00041843,-0.00016048,-0.00001371,-0.00003860
 ,-0.00004449,0.00057334,-0.00085864,0.00041056,0.00022914,0.00129307,-
 0.00040810,-0.00596236,-0.00189634,-0.00205307,-0.00674942,0.02713703,
 0.00260191,-0.00008838,-0.00359189,-0.00086328,-0.20248484,0.18500861,
 -0.03479966,0.01307423,-0.00745815,0.00417182,0.00058199,-0.00003697,-
 0.00019482,0.00097954,-0.00030031,0.00056553,0.00022445,-0.00026130,0.
 00009301,-0.00041765,0.00039859,-0.00002666,-0.00005023,0.00002023,-0.
 00000879,0.20078918,-0.00015366,-0.00044774,-0.00009645,-0.00078043,-0
 .00020442,-0.00021595,0.00001673,0.00002951,-0.00000645,0.00013762,0.0
 0005211,0.00015752,-0.00013516,0.00059515,-0.00018237,-0.00279524,0.00
 206510,-0.00065822,-0.00235543,0.00811092,0.00078813,-0.00414697,-0.00
 565927,-0.00169738,0.18645176,-0.32846036,0.01768533,0.02114566,-0.013
 30612,0.00463597,0.00224115,0.00043382,0.00047512,0.00033633,0.0022863
 3,0.00040096,-0.00080379,0.00033148,-0.00014954,0.00046519,-0.00085554
 ,0.00005628,-0.00005583,0.00003402,-0.00001023,-0.19956792,0.33499502,
 -0.00005902,-0.00012420,0.00020689,-0.00026352,0.00008063,0.00000354,-
 0.00003974,-0.00002014,0.00014116,0.00049619,-0.00008894,-0.00126944,-
 0.00053085,0.00017096,0.00221137,-0.00213033,-0.00043584,0.00111326,0.
 00006714,0.00808429,-0.00712770,-0.00091099,-0.00156006,0.00179385,-0.
 03467563,0.01732831,-0.00463285,0.00663022,-0.00244034,-0.00494963,0.0
 0000098,-0.00008846,0.00134929,0.00062025,0.00024346,-0.00123642,0.000
 04638,-0.00001533,-0.00023212,-0.00002094,0.00003981,-0.00017316,-0.00
 001533,0.00000859,-0.00001071,0.03078519,-0.02118272,0.01281266\\-0.00
 000027,-0.00000011,-0.00000008,0.00000009,0.00000021,0.00000004,-0.000
 00026,0.00000022,-0.00000005,0.00000027,-0.00000022,0.00000004,-0.0000
 0013,-0.00000023,-0.00000006,0.00000008,-0.00000019,0.00000004,0.00000
 029,-0.00000016,0.00000003,-0.00000013,-0.00000021,-0.00000004,0.00000
 017,-0.00000006,0.00000004,0.00000005,-0.00000014,0.,-0.00000012,0.000
 00015,-0.00000001,0.00000018,0.00000026,0.00000007,0.,0.00000012,0.,-0
 .00000015,0.00000033,0.,-0.00000033,-0.00000003,-0.00000010,0.00000027
 ,0.00000006,0.00000007\\\@
 The archive entry for this job was punched.


 IF YOU GIVE EVERYONE A PIECE OF YOUR MIND,
 PRETTY SOON IT WILL BE ALL GONE.
 Job cpu time:       0 days  2 hours  9 minutes 59.7 seconds.
 Elapsed time:       0 days  0 hours  8 minutes  8.6 seconds.
 File lengths (MBytes):  RWF=    188 Int=      0 D2E=      0 Chk=     12 Scr=      1
 Normal termination of Gaussian 16 at Mon Sep 26 12:10:02 2022.
