 Entering Gaussian System, Link 0=/home/emanuele/chem_software/gaussian//g09/g09
 Input=SmartField4gau.gjf
 Output=SmartField4gau.log
 Initial command:
 /home/emanuele/chem_software/gaussian//gdv/l1.exe "/home/emanuele/chem_software/gaussian/scratch/Gau-7526.inp" -scrdir="/home/emanuele/chem_software/gaussian/scratch/"
 Entering Link 1 = /home/emanuele/chem_software/gaussian//gdv/l1.exe PID=      7528.
  
 Copyright (c) 1988-2020, Gaussian, Inc.  All Rights Reserved.
  
 This is the private, development version of
 the Gaussian(R) DV system of programs. It is based on
 the Gaussian(R) 16 system (copyright 2016, Gaussian, Inc.),
 the Gaussian(R) 09 system (copyright 2009, Gaussian, Inc.),
 the Gaussian(R) 03 system (copyright 2003, Gaussian, Inc.),
 the Gaussian(R) 98 system (copyright 1998, Gaussian, Inc.),
 the Gaussian(R) 94 system (copyright 1995, Gaussian, Inc.),
 the Gaussian 92(TM) system (copyright 1992, Gaussian, Inc.),
 the Gaussian 90(TM) system (copyright 1990, Gaussian, Inc.),
 the Gaussian 88(TM) system (copyright 1988, Gaussian, Inc.),
 the Gaussian 86(TM) system (copyright 1986, Carnegie Mellon
 University), and the Gaussian 82(TM) system (copyright 1983,
 Carnegie Mellon University). Gaussian is a federally registered
 trademark of Gaussian, Inc.
  
 This software contains proprietary and confidential information,
 including trade secrets, belonging to Gaussian, Inc.
  
 This software is provided under written license and may be
 used, copied, transmitted, or stored only in accord with that
 written license.
  
 The following legend is applicable only to US Government
 contracts under FAR:
  
                    RESTRICTED RIGHTS LEGEND
  
 Use, reproduction and disclosure by the US Government is
 subject to restrictions as set forth in subparagraphs (a)
 and (c) of the Commercial Computer Software - Restricted
 Rights clause in FAR 52.227-19.
  
 Gaussian, Inc.
 340 Quinnipiac St., Bldg. 40, Wallingford CT 06492
  
  
 ---------------------------------------------------------------
 Warning -- This program may not be used in any manner that
 competes with the business of Gaussian, Inc. or will provide
 assistance to any competitor of Gaussian, Inc.  The licensee
 of this program is prohibited from giving any competitor of
 Gaussian, Inc. access to this program.  By using this program,
 the user acknowledges that Gaussian, Inc. is engaged in the
 business of creating and licensing software in the field of
 computational chemistry and represents and warrants to the
 licensee that it is not a competitor of Gaussian, Inc. and that
 it will not use this program in any manner prohibited above.
 ---------------------------------------------------------------
  

 Cite this work as:
 Gaussian Development Version, Revision J.14,
 M. J. Frisch, G. W. Trucks, H. B. Schlegel, G. E. Scuseria, 
 M. A. Robb, J. R. Cheeseman, G. Scalmani, V. Barone, 
 G. A. Petersson, H. Nakatsuji, X. Li, A. V. Marenich, M. Caricato, 
 J. Bloino, B. G. Janesko, J. Zheng, R. Gomperts, B. Mennucci, 
 H. P. Hratchian, J. V. Ortiz, A. F. Izmaylov, J. L. Sonnenberg, 
 D. Williams-Young, F. Ding, F. Lipparini, F. Egidi, J. Goings, 
 B. Peng, A. Petrone, T. Henderson, D. Ranasinghe, V. G. Zakrzewski, 
 J. Gao, N. Rega, G. Zheng, W. Liang, M. Hada, M. Ehara, K. Toyota, 
 R. Fukuda, J. Hasegawa, M. Ishida, T. Nakajima, Y. Honda, O. Kitao, 
 H. Nakai, T. Vreven, K. Throssell, J. A. Montgomery, Jr., 
 J. E. Peralta, F. Ogliaro, M. J. Bearpark, J. J. Heyd, 
 E. N. Brothers, K. N. Kudin, V. N. Staroverov, T. A. Keith, 
 R. Kobayashi, J. Normand, K. Raghavachari, A. P. Rendell, 
 J. C. Burant, S. S. Iyengar, J. Tomasi, M. Cossi, J. M. Millam, 
 M. Klene, C. Adamo, R. Cammi, J. W. Ochterski, R. L. Martin, 
 K. Morokuma, O. Farkas, J. B. Foresman, and D. J. Fox, 
 Gaussian, Inc., Wallingford CT, 2020.
 
 ******************************************
 Gaussian DV:  ES64L-GDVRevJ.14 29-Dec-2020
                 3-Nov-2022 
 ******************************************
 %mem=1GB
 %nprocshared=1
 Will use up to    1 processors via shared memory.
 %chk=SmartField4gau.chk
 -------------------------------------------------------
 #p Amber=(SoftFirst,Print) nosymm geom=nocrowd opt Freq
 -------------------------------------------------------
 1/6=10,10=10,18=4000020,19=15,37=210000000,38=1,56=2,64=203/1,3;
 2/9=110,12=1,15=1,40=1/2;
 3/5=30,11=9,25=1,30=1,41=10030000,43=2,71=1/1;
 4/20=11,22=1001,24=3,119=11/2;
 7/30=1,44=-1/16;
 1/6=10,10=10,18=4000020,19=15,64=203/3(2);
 2/9=110,12=1,15=1/2;
 99//99;
 2/9=110,12=1,15=1/2;
 3/5=30,11=9,25=1,30=1,41=10030000,43=2,71=1/1;
 4/16=2,20=11,22=1001,24=3,119=11/2;
 7/30=1,44=-1/16;
 1/6=10,10=10,18=4000020,19=15,64=203/3(-4);
 2/9=110,12=1,15=1/2;
 99/9=10/99;
 Leave Link    1 at Thu Nov  3 15:46:31 2022, MaxMem=   134217728 cpu:               0.0 elap:               0.0
 (Enter /home/emanuele/chem_software/gaussian//gdv/l101.exe)
 -----
 Title
 -----
 Symbolic Z-matrix:
 Charge =  0 Multiplicity = 1
 H-HA-+0.093932       -1.00968   2.50592   0. 
 H-HA-+0.093275       -0.91744  -2.49585   0. 
 H-HA-+0.090619       -3.06191  -1.26258   0. 
 H-HA-+0.111621        3.4531   -0.08238   0. 
 H-HA-+0.096456        1.99321   2.17324   0. 
 C-CA--0.131647        1.62045   1.16314   0. 
 C-CA--0.001193        2.3823    0.03046   0. 
 C-CA--0.026843        0.24814   0.74838   0. 
 N-NA--0.412282        1.56196  -1.07751   0. 
 C-CA-+0.087766        0.24704  -0.67014   0. 
 C-CA--0.096803       -0.9797    1.42387   0. 
 C-CA--0.109301       -0.93223  -1.41339   0. 
 C-CA--0.111902       -2.15154   0.68933   0. 
 C-CA--0.106243       -2.12821  -0.71611   0. 
 H-HA-+0.089583       -3.10487   1.20094   0. 
 H-HA-+0.332999        1.87646  -2.02997   0. 
 
 ITRead=  3  3  3  3  3  3  3  3  3  3  3  3  3  3  3  3
 MicOpt=  0  0  0  0  0  0  0  0  0  0  0  0  0  0  0  0
 NAtoms=     16 NQM=        0 NQMF=       0 NMMI=      0 NMMIF=      0
                NMic=      16 NMicF=      0.
                    Isotopes and Nuclear Properties:
 (Nuclear quadrupole moments (NQMom) in fm**2, nuclear magnetic moments (NMagM)
  in nuclear magnetons)

  Atom         1           2           3           4           5           6           7           8           9          10
 IAtWgt=           1           1           1           1           1          12          12          12          14          12
 AtmWgt=   1.0078250   1.0078250   1.0078250   1.0078250   1.0078250  12.0000000  12.0000000  12.0000000  14.0030740  12.0000000
 NucSpn=           1           1           1           1           1           0           0           0           2           0
 AtZEff=  -0.0000000  -0.0000000  -0.0000000  -0.0000000  -0.0000000  -0.0000000  -0.0000000  -0.0000000  -0.0000000  -0.0000000
 NQMom=    0.0000000   0.0000000   0.0000000   0.0000000   0.0000000   0.0000000   0.0000000   0.0000000   2.0440000   0.0000000
 NMagM=    2.7928460   2.7928460   2.7928460   2.7928460   2.7928460   0.0000000   0.0000000   0.0000000   0.4037610   0.0000000
 AtZNuc=   1.0000000   1.0000000   1.0000000   1.0000000   1.0000000   6.0000000   6.0000000   6.0000000   7.0000000   6.0000000

  Atom        11          12          13          14          15          16
 IAtWgt=          12          12          12          12           1           1
 AtmWgt=  12.0000000  12.0000000  12.0000000  12.0000000   1.0078250   1.0078250
 NucSpn=           0           0           0           0           1           1
 AtZEff=  -0.0000000  -0.0000000  -0.0000000  -0.0000000  -0.0000000  -0.0000000
 NQMom=    0.0000000   0.0000000   0.0000000   0.0000000   0.0000000   0.0000000
 NMagM=    0.0000000   0.0000000   0.0000000   0.0000000   2.7928460   2.7928460
 AtZNuc=   6.0000000   6.0000000   6.0000000   6.0000000   1.0000000   1.0000000
 Generating MM parameters.
 Read MM parameter file:
 Include all MM classes
 Multiple matching entries:    5    6    7    9
 AmbTrs HA    CA    CA    NA      0 180   0   0  0.0000  0.0000  0.0000  0.0000  4.0
 AmbTrs NA    CA    CA    HA      0 180   0   0  0.0000 15.5000  0.0000  0.0000  4.0
 Multiple matching entries:    8    6    7    4
 AmbTrs CA    CA    CA    HA      0 180   0   0  0.0000 15.5000  0.0000  0.0000  4.0
 AmbTrs HA    CA    CA    CA      0 180   0   0  0.0000 15.5000  0.0000  0.0000  4.0
 Multiple matching entries:    8    6    7    9
 AmbTrs CA    CA    CA    NA      0 180   0   0  0.0000 15.5000  0.0000  0.0000  4.0
 AmbTrs NA    CA    CA    CA      0 180   0   0  0.0000 15.5000  0.0000  0.0000  4.0
 Multiple matching entries:    5    6    8   10
 AmbTrs CA    CA    CA    HA      0 180   0   0  0.0000 15.5000  0.0000  0.0000  4.0
 AmbTrs HA    CA    CA    CA      0 180   0   0  0.0000 15.5000  0.0000  0.0000  4.0
 Multiple matching entries:    5    6    8   11
 AmbTrs CA    CA    CA    HA      0 180   0   0  0.0000 15.5000  0.0000  0.0000  4.0
 AmbTrs HA    CA    CA    CA      0 180   0   0  0.0000 15.5000  0.0000  0.0000  4.0
 Multiple matching entries:    6    7    9   10
 AmbTrs CA    CA    NA    CA      0 180   0   0  0.0000 15.5000  0.0000  0.0000  4.0
 AmbTrs CA    NA    CA    CA      0 180   0   0  0.0000 15.5000  0.0000  0.0000  4.0
 Multiple matching entries:    6    7    9   16
 AmbTrs CA    CA    NA    HA      0 180   0   0  0.0000 15.5000  0.0000  0.0000  4.0
 AmbTrs HA    NA    CA    CA      0 180   0   0  0.0000 15.5000  0.0000  0.0000  4.0
 Multiple matching entries:    6    8   10    9
 AmbTrs CA    CA    CA    NA      0 180   0   0  0.0000 15.5000  0.0000  0.0000  4.0
 AmbTrs NA    CA    CA    CA      0 180   0   0  0.0000 15.5000  0.0000  0.0000  4.0
 Multiple matching entries:   11    8   10    9
 AmbTrs CA    CA    CA    NA      0 180   0   0  0.0000 15.5000  0.0000  0.0000  4.0
 AmbTrs NA    CA    CA    CA      0 180   0   0  0.0000 15.5000  0.0000  0.0000  4.0
 Multiple matching entries:    6    8   11    1
 AmbTrs CA    CA    CA    HA      0 180   0   0  0.0000 15.5000  0.0000  0.0000  4.0
 AmbTrs HA    CA    CA    CA      0 180   0   0  0.0000 15.5000  0.0000  0.0000  4.0
 Multiple matching entries:   10    8   11    1
 AmbTrs CA    CA    CA    HA      0 180   0   0  0.0000 15.5000  0.0000  0.0000  4.0
 AmbTrs HA    CA    CA    CA      0 180   0   0  0.0000 15.5000  0.0000  0.0000  4.0
 Multiple matching entries:    7    9   10    8
 AmbTrs CA    CA    NA    CA      0 180   0   0  0.0000 15.5000  0.0000  0.0000  4.0
 AmbTrs CA    NA    CA    CA      0 180   0   0  0.0000 15.5000  0.0000  0.0000  4.0
 Multiple matching entries:    7    9   10   12
 AmbTrs CA    CA    NA    CA      0 180   0   0  0.0000 15.5000  0.0000  0.0000  4.0
 AmbTrs CA    NA    CA    CA      0 180   0   0  0.0000 15.5000  0.0000  0.0000  4.0
 Multiple matching entries:   16    9   10    8
 AmbTrs CA    CA    NA    HA      0 180   0   0  0.0000 15.5000  0.0000  0.0000  4.0
 AmbTrs HA    NA    CA    CA      0 180   0   0  0.0000 15.5000  0.0000  0.0000  4.0
 Multiple matching entries:   16    9   10   12
 AmbTrs CA    CA    NA    HA      0 180   0   0  0.0000 15.5000  0.0000  0.0000  4.0
 AmbTrs HA    NA    CA    CA      0 180   0   0  0.0000 15.5000  0.0000  0.0000  4.0
 Multiple matching entries:    8   10   12    2
 AmbTrs CA    CA    CA    HA      0 180   0   0  0.0000 15.5000  0.0000  0.0000  4.0
 AmbTrs HA    CA    CA    CA      0 180   0   0  0.0000 15.5000  0.0000  0.0000  4.0
 Multiple matching entries:    9   10   12    2
 AmbTrs HA    CA    CA    NA      0 180   0   0  0.0000  0.0000  0.0000  0.0000  4.0
 AmbTrs NA    CA    CA    HA      0 180   0   0  0.0000 15.5000  0.0000  0.0000  4.0
 Multiple matching entries:    9   10   12   14
 AmbTrs CA    CA    CA    NA      0 180   0   0  0.0000 15.5000  0.0000  0.0000  4.0
 AmbTrs NA    CA    CA    CA      0 180   0   0  0.0000 15.5000  0.0000  0.0000  4.0
 Multiple matching entries:    1   11   13   14
 AmbTrs CA    CA    CA    HA      0 180   0   0  0.0000 15.5000  0.0000  0.0000  4.0
 AmbTrs HA    CA    CA    CA      0 180   0   0  0.0000 15.5000  0.0000  0.0000  4.0
 Multiple matching entries:    8   11   13   15
 AmbTrs CA    CA    CA    HA      0 180   0   0  0.0000 15.5000  0.0000  0.0000  4.0
 AmbTrs HA    CA    CA    CA      0 180   0   0  0.0000 15.5000  0.0000  0.0000  4.0
 Multiple matching entries:    2   12   14   13
 AmbTrs CA    CA    CA    HA      0 180   0   0  0.0000 15.5000  0.0000  0.0000  4.0
 AmbTrs HA    CA    CA    CA      0 180   0   0  0.0000 15.5000  0.0000  0.0000  4.0
 Multiple matching entries:   10   12   14    3
 AmbTrs CA    CA    CA    HA      0 180   0   0  0.0000 15.5000  0.0000  0.0000  4.0
 AmbTrs HA    CA    CA    CA      0 180   0   0  0.0000 15.5000  0.0000  0.0000  4.0
 Multiple matching entries:   11   13   14    3
 AmbTrs CA    CA    CA    HA      0 180   0   0  0.0000 15.5000  0.0000  0.0000  4.0
 AmbTrs HA    CA    CA    CA      0 180   0   0  0.0000 15.5000  0.0000  0.0000  4.0
 Multiple matching entries:   15   13   14   12
 AmbTrs CA    CA    CA    HA      0 180   0   0  0.0000 15.5000  0.0000  0.0000  4.0
 AmbTrs HA    CA    CA    CA      0 180   0   0  0.0000 15.5000  0.0000  0.0000  4.0
 Inconsistent parameter file.
 Error termination via Lnk1e in /home/emanuele/chem_software/gaussian//gdv/l101.exe at Thu Nov  3 15:46:32 2022.
 Job cpu time:       0 days  0 hours  0 minutes  0.2 seconds.
 Elapsed time:       0 days  0 hours  0 minutes  0.3 seconds.
 File lengths (MBytes):  RWF=      6 Int=      0 D2E=      0 Chk=      1 Scr=      1
