 Entering Gaussian System, Link 0=g09
 Input=0_zmat_mm.gjf
 Output=0_zmat_mm.log
 Initial command:
 /home/emanuele/chem_software/gaussian//gdv/l1.exe "/home/emanuele/chem_software/gaussian/scratch/Gau-8165.inp" -scrdir="/home/emanuele/chem_software/gaussian/scratch/"
 Entering Link 1 = /home/emanuele/chem_software/gaussian//gdv/l1.exe PID=      8167.
  
 Copyright (c) 1988-2020, Gaussian, Inc.  All Rights Reserved.
  
 This is the private, development version of
 the Gaussian(R) DV system of programs. It is based on
 the Gaussian(R) 16 system (copyright 2016, Gaussian, Inc.),
 the Gaussian(R) 09 system (copyright 2009, Gaussian, Inc.),
 the Gaussian(R) 03 system (copyright 2003, Gaussian, Inc.),
 the Gaussian(R) 98 system (copyright 1998, Gaussian, Inc.),
 the Gaussian(R) 94 system (copyright 1995, Gaussian, Inc.),
 the Gaussian 92(TM) system (copyright 1992, Gaussian, Inc.),
 the Gaussian 90(TM) system (copyright 1990, Gaussian, Inc.),
 the Gaussian 88(TM) system (copyright 1988, Gaussian, Inc.),
 the Gaussian 86(TM) system (copyright 1986, Carnegie Mellon
 University), and the Gaussian 82(TM) system (copyright 1983,
 Carnegie Mellon University). Gaussian is a federally registered
 trademark of Gaussian, Inc.
  
 This software contains proprietary and confidential information,
 including trade secrets, belonging to Gaussian, Inc.
  
 This software is provided under written license and may be
 used, copied, transmitted, or stored only in accord with that
 written license.
  
 The following legend is applicable only to US Government
 contracts under FAR:
  
                    RESTRICTED RIGHTS LEGEND
  
 Use, reproduction and disclosure by the US Government is
 subject to restrictions as set forth in subparagraphs (a)
 and (c) of the Commercial Computer Software - Restricted
 Rights clause in FAR 52.227-19.
  
 Gaussian, Inc.
 340 Quinnipiac St., Bldg. 40, Wallingford CT 06492
  
  
 ---------------------------------------------------------------
 Warning -- This program may not be used in any manner that
 competes with the business of Gaussian, Inc. or will provide
 assistance to any competitor of Gaussian, Inc.  The licensee
 of this program is prohibited from giving any competitor of
 Gaussian, Inc. access to this program.  By using this program,
 the user acknowledges that Gaussian, Inc. is engaged in the
 business of creating and licensing software in the field of
 computational chemistry and represents and warrants to the
 licensee that it is not a competitor of Gaussian, Inc. and that
 it will not use this program in any manner prohibited above.
 ---------------------------------------------------------------
  

 Cite this work as:
 Gaussian Development Version, Revision J.14,
 M. J. Frisch, G. W. Trucks, H. B. Schlegel, G. E. Scuseria, 
 M. A. Robb, J. R. Cheeseman, G. Scalmani, V. Barone, 
 G. A. Petersson, H. Nakatsuji, X. Li, A. V. Marenich, M. Caricato, 
 J. Bloino, B. G. Janesko, J. Zheng, R. Gomperts, B. Mennucci, 
 H. P. Hratchian, J. V. Ortiz, A. F. Izmaylov, J. L. Sonnenberg, 
 D. Williams-Young, F. Ding, F. Lipparini, F. Egidi, J. Goings, 
 B. Peng, A. Petrone, T. Henderson, D. Ranasinghe, V. G. Zakrzewski, 
 J. Gao, N. Rega, G. Zheng, W. Liang, M. Hada, M. Ehara, K. Toyota, 
 R. Fukuda, J. Hasegawa, M. Ishida, T. Nakajima, Y. Honda, O. Kitao, 
 H. Nakai, T. Vreven, K. Throssell, J. A. Montgomery, Jr., 
 J. E. Peralta, F. Ogliaro, M. J. Bearpark, J. J. Heyd, 
 E. N. Brothers, K. N. Kudin, V. N. Staroverov, T. A. Keith, 
 R. Kobayashi, J. Normand, K. Raghavachari, A. P. Rendell, 
 J. C. Burant, S. S. Iyengar, J. Tomasi, M. Cossi, J. M. Millam, 
 M. Klene, C. Adamo, R. Cammi, J. W. Ochterski, R. L. Martin, 
 K. Morokuma, O. Farkas, J. B. Foresman, and D. J. Fox, 
 Gaussian, Inc., Wallingford CT, 2020.
 
 ******************************************
 Gaussian DV:  ES64L-GDVRevJ.14 29-Dec-2020
                22-Nov-2023 
 ******************************************
 %mem=1GB
 %nprocshared=1
 Will use up to    1 processors via shared memory.
 %chk=0_zmat_mm.chk
 ------------------------------------------------------
 #p opt=ModRed Amber=Softfirst nosymm geom=connectivity
 ------------------------------------------------------
 1/6=10,10=10,18=4000120,19=15,37=210000000,38=1,56=2,57=2,64=203/1,3;
 2/9=110,12=2,15=1,40=1/2;
 3/5=30,11=9,25=1,30=1,41=10030000,43=2,71=1/1;
 4/20=11,22=1001,24=3/2;
 7/30=1,44=-1/16;
 1/6=10,10=10,18=4000020,19=15,64=203/3(2);
 2/9=110,15=1/2;
 99//99;
 2/9=110,15=1/2;
 3/5=30,11=9,25=1,30=1,41=10030000,43=2,71=1/1;
 4/16=2,20=11,22=1001,24=3/2;
 7/30=1,44=-1/16;
 1/6=10,10=10,18=4000020,19=15,64=203/3(-4);
 2/9=110,15=1/2;
 99/9=10/99;
 Leave Link    1 at Wed Nov 22 16:59:30 2023, MaxMem=   134217728 cpu:               0.0 elap:               0.0
 (Enter /home/emanuele/chem_software/gaussian//gdv/l101.exe)
 -----------
 gly_opt.xyz
 -----------
 Symbolic Z-matrix:
 Charge =  0 Multiplicity = 1
 C-C-+0.26636
 O-OH--0.3691         1    r2
 C-CT--0.0524         1    r3       2    a3
 H-HC-+0.1018         3    r4       1    a4       2    d4       0
 H-HC-+0.1106         3    r5       1    a5       2    d5       0
 N-N3--0.6608         3    r6       1    a6       2    d6       0
 H-H-+0.28452         6    r7       3    a7       1    d7       0
 H-H-+0.28681         6    r8       3    a8       1    d8       0
 O-O2--0.3223         1    r9       2    a9       3    d9       0
 H-HO-+0.3545         2    r10      1    a10      3    d10      0
       Variables:
  r2                    1.3509                   
  r3                    1.5095                   
  a3                  111.72                     
  r4                    1.1007                   
  a4                  105.4                      
  d4                  288.17                     
  r5                    1.092                    
  a5                  108.37                     
  d5                   41.55                     
  r6                    1.4518                   
  a6                  110.61                     
  d6                  163.45                     
  r7                    1.0127                   
  a7                  110.                       
  d7                   34.65                     
  r8                    1.0101                   
  a8                  111.42                     
  d8                  155.17                     
  r9                    1.2029                   
  a9                  123.02                     
  d9                  181.82                     
  r10                   0.9678                   
  a10                 107.23                     
  d10                 177.19                     
 
 Wanted a string as input but found a string:
 NonBon 3 1 0 0 0.000 0.000 0.500 0.000 0.000 0.833                              
 ?
 Error termination via Lnk1e in /home/emanuele/chem_software/gaussian//gdv/l101.exe at Wed Nov 22 16:59:30 2023.
 Job cpu time:       0 days  0 hours  0 minutes  0.3 seconds.
 Elapsed time:       0 days  0 hours  0 minutes  0.3 seconds.
 File lengths (MBytes):  RWF=      6 Int=      0 D2E=      0 Chk=      1 Scr=      1
