 Entering Gaussian System, Link 0=g16
 Input=gly_qm_2_5048.gjf
 Output=/home/e.falbo/force_field/glycine/gly_qm_2.log
 Initial command:
 /cm/shared/gaussian/versions/g16.c01/intel64-sandybridge/g16/l1.exe "/local/scratch/e.falbo/gaurun5048/Gau-49624.inp" -scrdir="/local/scratch/e.falbo/gaurun5048/"
 Entering Link 1 = /cm/shared/gaussian/versions/g16.c01/intel64-sandybridge/g16/l1.exe PID=     49625.
  
 Copyright (c) 1988-2019, Gaussian, Inc.  All Rights Reserved.
  
 This is part of the Gaussian(R) 16 program.  It is based on
 the Gaussian(R) 09 system (copyright 2009, Gaussian, Inc.),
 the Gaussian(R) 03 system (copyright 2003, Gaussian, Inc.),
 the Gaussian(R) 98 system (copyright 1998, Gaussian, Inc.),
 the Gaussian(R) 94 system (copyright 1995, Gaussian, Inc.),
 the Gaussian 92(TM) system (copyright 1992, Gaussian, Inc.),
 the Gaussian 90(TM) system (copyright 1990, Gaussian, Inc.),
 the Gaussian 88(TM) system (copyright 1988, Gaussian, Inc.),
 the Gaussian 86(TM) system (copyright 1986, Carnegie Mellon
 University), and the Gaussian 82(TM) system (copyright 1983,
 Carnegie Mellon University). Gaussian is a federally registered
 trademark of Gaussian, Inc.
  
 This software contains proprietary and confidential information,
 including trade secrets, belonging to Gaussian, Inc.
  
 This software is provided under written license and may be
 used, copied, transmitted, or stored only in accord with that
 written license.
  
 The following legend is applicable only to US Government
 contracts under FAR:
  
                    RESTRICTED RIGHTS LEGEND
  
 Use, reproduction and disclosure by the US Government is
 subject to restrictions as set forth in subparagraphs (a)
 and (c) of the Commercial Computer Software - Restricted
 Rights clause in FAR 52.227-19.
  
 Gaussian, Inc.
 340 Quinnipiac St., Bldg. 40, Wallingford CT 06492
  
  
 ---------------------------------------------------------------
 Warning -- This program may not be used in any manner that
 competes with the business of Gaussian, Inc. or will provide
 assistance to any competitor of Gaussian, Inc.  The licensee
 of this program is prohibited from giving any competitor of
 Gaussian, Inc. access to this program.  By using this program,
 the user acknowledges that Gaussian, Inc. is engaged in the
 business of creating and licensing software in the field of
 computational chemistry and represents and warrants to the
 licensee that it is not a competitor of Gaussian, Inc. and that
 it will not use this program in any manner prohibited above.
 ---------------------------------------------------------------
  

 Cite this work as:
 Gaussian 16, Revision C.01,
 M. J. Frisch, G. W. Trucks, H. B. Schlegel, G. E. Scuseria, 
 M. A. Robb, J. R. Cheeseman, G. Scalmani, V. Barone, 
 G. A. Petersson, H. Nakatsuji, X. Li, M. Caricato, A. V. Marenich, 
 J. Bloino, B. G. Janesko, R. Gomperts, B. Mennucci, H. P. Hratchian, 
 J. V. Ortiz, A. F. Izmaylov, J. L. Sonnenberg, D. Williams-Young, 
 F. Ding, F. Lipparini, F. Egidi, J. Goings, B. Peng, A. Petrone, 
 T. Henderson, D. Ranasinghe, V. G. Zakrzewski, J. Gao, N. Rega, 
 G. Zheng, W. Liang, M. Hada, M. Ehara, K. Toyota, R. Fukuda, 
 J. Hasegawa, M. Ishida, T. Nakajima, Y. Honda, O. Kitao, H. Nakai, 
 T. Vreven, K. Throssell, J. A. Montgomery, Jr., J. E. Peralta, 
 F. Ogliaro, M. J. Bearpark, J. J. Heyd, E. N. Brothers, K. N. Kudin, 
 V. N. Staroverov, T. A. Keith, R. Kobayashi, J. Normand, 
 K. Raghavachari, A. P. Rendell, J. C. Burant, S. S. Iyengar, 
 J. Tomasi, M. Cossi, J. M. Millam, M. Klene, C. Adamo, R. Cammi, 
 J. W. Ochterski, R. L. Martin, K. Morokuma, O. Farkas, 
 J. B. Foresman, and D. J. Fox, Gaussian, Inc., Wallingford CT, 2019.
 
 ******************************************
 Gaussian 16:  ES64L-G16RevC.01  3-Jul-2019
                30-Nov-2021 
 ******************************************
 %Mem=58GB
 %NProcShared=16
 Will use up to   16 processors via shared memory.
 %Chk=gly_qm_2.chk
 ----------------------------------------------------------------------
 #p opt=(calcall,verytight,maxstep=7,maxcycles=100) freq b3lyp geom=con
 nectivity def2tzvpp int=ultrafine
 ----------------------------------------------------------------------
 1/6=100,7=1,8=7,10=4,18=20,19=15,26=4,38=1,57=2/1,3;
 2/9=110,12=2,17=6,18=5,40=1/2;
 3/5=44,7=202,11=2,25=1,30=1,71=2,74=-5,75=-5,140=1/1,2,3;
 4//1;
 5/5=2,38=5/2;
 8/6=4,10=90,11=11/1;
 11/6=1,8=1,9=11,15=111,16=1/1,2,10;
 10/6=1/2;
 6/7=2,8=2,9=2,10=2,18=1,28=1/1;
 7/10=1,25=1/1,2,3,16;
 1/6=100,7=1,8=7,10=4,18=20,19=15,26=4/3(3);
 2/9=110/2;
 7/8=1,9=1,25=1,44=-1/16;
 99//99;
 2/9=110/2;
 3/5=44,7=202,11=2,25=1,30=1,71=2,74=-5,75=-5,140=1/1,2,3;
 4/5=5,16=3,69=1/1;
 5/5=2,38=5/2;
 8/6=4,10=90,11=11/1;
 11/6=1,8=1,9=11,15=111,16=1/1,2,10;
 10/6=1/2;
 7/10=1,25=1/1,2,3,16;
 1/6=100,7=1,8=7,10=4,18=20,19=15,26=4/3(-8);
 2/9=110/2;
 6/7=2,8=2,9=2,10=2,18=1,19=2,28=1/1;
 7/8=1,9=1,25=1,44=-1/16;
 99//99;
 Leave Link    1 at Tue Nov 30 11:28:38 2021, MaxMem=  7784628224 cpu:               0.6 elap:               0.0
 (Enter /cm/shared/gaussian/versions/g16.c01/intel64-sandybridge/g16/l101.exe)
 -------------------
 Title Card Required
 -------------------
 Symbolic Z-matrix:
 Charge =  0 Multiplicity = 1
 C-C                  -0.55008   0.15001   0.01436 
 O-OH                 -1.73373  -0.50589  -0.04782 
 C-CT                  0.68599  -0.73355   0.08109 
 H-HC                  0.66443  -1.2089    1.07249 
 H-HC                  0.57487  -1.54168  -0.65217 
 N-N3                  1.88823   0.03386  -0.17802 
 H-H                   1.70509   1.01406   0.00365 
 H-H                   2.65772  -0.26443   0.4033 
 O-O2                 -0.52121   1.34635   0.04101 
 H-HO                 -2.55711  -0.01241  -0.03677 
 
 ITRead=  0  0  0  0  0  0  0  0  0  0
 MicOpt= -1 -1 -1 -1 -1 -1 -1 -1 -1 -1
 NAtoms=     10 NQM=       10 NQMF=       0 NMMI=      0 NMMIF=      0
                NMic=       0 NMicF=      0.
                    Isotopes and Nuclear Properties:
 (Nuclear quadrupole moments (NQMom) in fm**2, nuclear magnetic moments (NMagM)
  in nuclear magnetons)

  Atom         1           2           3           4           5           6           7           8           9          10
 IAtWgt=          12          16          12           1           1          14           1           1          16           1
 AtmWgt=  12.0000000  15.9949146  12.0000000   1.0078250   1.0078250  14.0030740   1.0078250   1.0078250  15.9949146   1.0078250
 NucSpn=           0           0           0           1           1           2           1           1           0           1
 AtZEff=  -0.0000000  -0.0000000  -0.0000000  -0.0000000  -0.0000000  -0.0000000  -0.0000000  -0.0000000  -0.0000000  -0.0000000
 NQMom=    0.0000000   0.0000000   0.0000000   0.0000000   0.0000000   2.0440000   0.0000000   0.0000000   0.0000000   0.0000000
 NMagM=    0.0000000   0.0000000   0.0000000   2.7928460   2.7928460   0.4037610   2.7928460   2.7928460   0.0000000   2.7928460
 AtZNuc=   6.0000000   8.0000000   6.0000000   1.0000000   1.0000000   7.0000000   1.0000000   1.0000000   8.0000000   1.0000000
 Leave Link  101 at Tue Nov 30 11:28:38 2021, MaxMem=  7784628224 cpu:               6.3 elap:               0.4
 (Enter /cm/shared/gaussian/versions/g16.c01/intel64-sandybridge/g16/l103.exe)

 GradGradGradGradGradGradGradGradGradGradGradGradGradGradGradGradGradGrad
 Berny optimization.
 Initialization pass.
                           ----------------------------
                           !    Initial Parameters    !
                           ! (Angstroms and Degrees)  !
 --------------------------                            --------------------------
 ! Name  Definition              Value          Derivative Info.                !
 --------------------------------------------------------------------------------
 ! R1    R(1,2)                  1.3547         calculate D2E/DX2 analytically  !
 ! R2    R(1,3)                  1.5209         calculate D2E/DX2 analytically  !
 ! R3    R(1,9)                  1.197          calculate D2E/DX2 analytically  !
 ! R4    R(2,10)                 0.96           calculate D2E/DX2 analytically  !
 ! R5    R(3,4)                  1.0997         calculate D2E/DX2 analytically  !
 ! R6    R(3,5)                  1.0968         calculate D2E/DX2 analytically  !
 ! R7    R(3,6)                  1.4496         calculate D2E/DX2 analytically  !
 ! R8    R(6,7)                  1.0136         calculate D2E/DX2 analytically  !
 ! R9    R(6,8)                  1.0095         calculate D2E/DX2 analytically  !
 ! A1    A(2,1,3)              115.5225         calculate D2E/DX2 analytically  !
 ! A2    A(2,1,9)              120.3985         calculate D2E/DX2 analytically  !
 ! A3    A(3,1,9)              124.0613         calculate D2E/DX2 analytically  !
 ! A4    A(1,2,10)             120.0            calculate D2E/DX2 analytically  !
 ! A5    A(1,3,4)              105.9472         calculate D2E/DX2 analytically  !
 ! A6    A(1,3,5)              108.4433         calculate D2E/DX2 analytically  !
 ! A7    A(1,3,6)              111.0168         calculate D2E/DX2 analytically  !
 ! A8    A(4,3,5)              106.3933         calculate D2E/DX2 analytically  !
 ! A9    A(4,3,6)              113.9683         calculate D2E/DX2 analytically  !
 ! A10   A(5,3,6)              110.7668         calculate D2E/DX2 analytically  !
 ! A11   A(3,6,7)              109.2728         calculate D2E/DX2 analytically  !
 ! A12   A(3,6,8)              111.8898         calculate D2E/DX2 analytically  !
 ! A13   A(7,6,8)              108.6801         calculate D2E/DX2 analytically  !
 ! D1    D(3,1,2,10)           176.1854         calculate D2E/DX2 analytically  !
 ! D2    D(9,1,2,10)            -2.346          calculate D2E/DX2 analytically  !
 ! D3    D(2,1,3,4)            -69.5313         calculate D2E/DX2 analytically  !
 ! D4    D(2,1,3,5)             44.3418         calculate D2E/DX2 analytically  !
 ! D5    D(2,1,3,6)            166.2479         calculate D2E/DX2 analytically  !
 ! D6    D(9,1,3,4)            108.9397         calculate D2E/DX2 analytically  !
 ! D7    D(9,1,3,5)           -137.1872         calculate D2E/DX2 analytically  !
 ! D8    D(9,1,3,6)            -15.2812         calculate D2E/DX2 analytically  !
 ! D9    D(1,3,6,7)             21.6147         calculate D2E/DX2 analytically  !
 ! D10   D(1,3,6,8)            142.0226         calculate D2E/DX2 analytically  !
 ! D11   D(4,3,6,7)            -97.9173         calculate D2E/DX2 analytically  !
 ! D12   D(4,3,6,8)             22.4906         calculate D2E/DX2 analytically  !
 ! D13   D(5,3,6,7)            142.1554         calculate D2E/DX2 analytically  !
 ! D14   D(5,3,6,8)            -97.4367         calculate D2E/DX2 analytically  !
 --------------------------------------------------------------------------------
 Trust Radius=7.00D-02 FncErr=1.00D-07 GrdErr=1.00D-06 EigMax=2.50D+02 EigMin=1.00D-04
 Number of steps in this run=    100 maximum allowed number of steps=    100.
 GradGradGradGradGradGradGradGradGradGradGradGradGradGradGradGradGradGrad

 Leave Link  103 at Tue Nov 30 11:28:38 2021, MaxMem=  7784628224 cpu:               0.3 elap:               0.0
 (Enter /cm/shared/gaussian/versions/g16.c01/intel64-sandybridge/g16/l202.exe)
                          Input orientation:                          
 ---------------------------------------------------------------------
 Center     Atomic      Atomic             Coordinates (Angstroms)
 Number     Number       Type             X           Y           Z
 ---------------------------------------------------------------------
      1          6    20001002       -0.550077    0.150014    0.014357
      2          8    20001022       -1.733730   -0.505887   -0.047816
      3          6    20001001        0.685987   -0.733553    0.081090
      4          1    20001034        0.664426   -1.208896    1.072487
      5          1    20001034        0.574865   -1.541676   -0.652167
      6          7    20001020        1.888228    0.033862   -0.178017
      7          1    20001029        1.705089    1.014063    0.003651
      8          1    20001029        2.657724   -0.264434    0.403304
      9          8    20001025       -0.521214    1.346350    0.041011
     10          1    20001031       -2.557111   -0.012408   -0.036771
 ---------------------------------------------------------------------
                    Distance matrix (angstroms):
                    1          2          3          4          5
     1  C    0.000000
     2  O    1.354661   0.000000
     3  C    1.520854   2.433820   0.000000
     4  H    2.107438   2.738695   1.099674   0.000000
     5  H    2.138122   2.601482   1.096849   1.758748   0.000000
     6  N    2.448638   3.664268   1.449636   2.146136   2.105246
     7  H    2.415051   3.760103   2.024531   2.677113   2.870419
     8  H    3.257765   4.421162   2.052228   2.305006   2.661516
     9  O    1.196981   2.215596   2.405190   2.999828   3.165846
    10  H    2.014244   0.960000   3.324399   3.611141   3.539300
                    6          7          8          9         10
     6  N    0.000000
     7  H    1.013576   0.000000
     8  H    1.009474   1.643712   0.000000
     9  O    2.752455   2.251274   3.582112   0.000000
    10  H    4.447823   4.384247   5.239436   2.448908   0.000000
 Stoichiometry    C2H5NO2
 Framework group  C1[X(C2H5NO2)]
 Deg. of freedom    24
 Full point group                 C1      NOp   1
 Largest Abelian subgroup         C1      NOp   1
 Largest concise Abelian subgroup C1      NOp   1
                         Standard orientation:                         
 ---------------------------------------------------------------------
 Center     Atomic      Atomic             Coordinates (Angstroms)
 Number     Number       Type             X           Y           Z
 ---------------------------------------------------------------------
      1          6    20001002       -0.530791    0.089097    0.012961
      2          8    20001022       -1.682486   -0.620912   -0.054808
      3          6    20001001        0.745118   -0.736236    0.075256
      4          1    20001034        0.744987   -1.218599    1.063492
      5          1    20001034        0.672420   -1.543809   -0.663404
      6          7    20001020        1.910429    0.088150   -0.177497
      7          1    20001029        1.681590    1.057515    0.010391
      8          1    20001029        2.692552   -0.177735    0.402700
      9          8    20001025       -0.557826    1.285274    0.047487
     10          1    20001031       -2.528014   -0.166485   -0.041431
 ---------------------------------------------------------------------
 Rotational constants (GHZ):          10.8349163           3.8515572           2.9173802
 Leave Link  202 at Tue Nov 30 11:28:38 2021, MaxMem=  7784628224 cpu:               0.6 elap:               0.1
 (Enter /cm/shared/gaussian/versions/g16.c01/intel64-sandybridge/g16/l301.exe)
 Standard basis: def2TZVPP (5D, 7F)
 Ernie: Thresh=  0.10000D-02 Tol=  0.10000D-05 Strict=F.
 There are   255 symmetry adapted cartesian basis functions of A   symmetry.
 There are   225 symmetry adapted basis functions of A   symmetry.
   225 basis functions,   340 primitive gaussians,   255 cartesian basis functions
    20 alpha electrons       20 beta electrons
       nuclear repulsion energy       179.5509830176 Hartrees.
 IExCor=  402 DFT=T Ex+Corr=B3LYP ExCW=0 ScaHFX=  0.200000
 ScaDFX=  0.800000  0.720000  1.000000  0.810000 ScalE2=  1.000000  1.000000
 IRadAn=      5 IRanWt=     -1 IRanGd=            0 ICorTp=0 IEmpDi=  4
 NAtoms=   10 NActive=   10 NUniq=   10 SFac= 1.00D+00 NAtFMM=   60 NAOKFM=F Big=F
 Integral buffers will be    131072 words long.
 Raffenetti 2 integral format.
 Two-electron integral symmetry is turned on.
 Leave Link  301 at Tue Nov 30 11:28:38 2021, MaxMem=  7784628224 cpu:               1.6 elap:               0.2
 (Enter /cm/shared/gaussian/versions/g16.c01/intel64-sandybridge/g16/l302.exe)
 NPDir=0 NMtPBC=     1 NCelOv=     1 NCel=       1 NClECP=     1 NCelD=      1
         NCelK=      1 NCelE2=     1 NClLst=     1 CellRange=     0.0.
 One-electron integrals computed using PRISM.
 One-electron integral symmetry used in STVInt
   1 Symmetry operations used in ECPInt.
 ECPInt:  NShTT=    3655 NPrTT=    9995 LenC2=    3615 LenP2D=    8448.
 LDataN:  DoStor=T MaxTD1= 6 Len=  172
 NBasis=   225 RedAO= T EigKep=  3.15D-04  NBF=   225
 NBsUse=   225 1.00D-06 EigRej= -1.00D+00 NBFU=   225
 Precomputing XC quadrature grid using
 IXCGrd= 4 IRadAn=           5 IRanWt=          -1 IRanGd=           0 AccXCQ= 0.00D+00.
 Generated NRdTot=       0 NPtTot=           0 NUsed=           0 NTot=          32
 NSgBfM=   254   254   254   254   254 MxSgAt=    10 MxSgA2=    10.
 Leave Link  302 at Tue Nov 30 11:28:39 2021, MaxMem=  7784628224 cpu:               4.6 elap:               0.4
 (Enter /cm/shared/gaussian/versions/g16.c01/intel64-sandybridge/g16/l303.exe)
 DipDrv:  MaxL=1.
 Leave Link  303 at Tue Nov 30 11:28:39 2021, MaxMem=  7784628224 cpu:               1.5 elap:               0.2
 (Enter /cm/shared/gaussian/versions/g16.c01/intel64-sandybridge/g16/l401.exe)
 ExpMin= 9.52D-02 ExpMax= 2.70D+04 ExpMxC= 9.22D+02 IAcc=3 IRadAn=         5 AccDes= 0.00D+00
 Harris functional with IExCor=  402 and IRadAn=       5 diagonalized for initial guess.
 HarFok:  IExCor=  402 AccDes= 0.00D+00 IRadAn=         5 IDoV= 1 UseB2=F ITyADJ=14
 ICtDFT=  3500011 ScaDFX=  1.000000  1.000000  1.000000  1.000000
 FoFCou: FMM=F IPFlag=           0 FMFlag=      100000 FMFlg1=           0
         NFxFlg=           0 DoJE=T BraDBF=F KetDBF=T FulRan=T
         wScrn=  0.000000 ICntrl=       500 IOpCl=  0 I1Cent=   200000004 NGrid=           0
         NMat0=    1 NMatS0=      1 NMatT0=    0 NMatD0=    1 NMtDS0=    0 NMtDT0=    0
 Petite list used in FoFCou.
 Harris En= -284.587042266760    
 JPrj=0 DoOrth=F DoCkMO=F.
 Leave Link  401 at Tue Nov 30 11:28:40 2021, MaxMem=  7784628224 cpu:              11.1 elap:               0.8
 (Enter /cm/shared/gaussian/versions/g16.c01/intel64-sandybridge/g16/l502.exe)
 Keep R1 ints in memory in canonical form, NReq=340578703.
 FoFCou: FMM=F IPFlag=           0 FMFlag=           0 FMFlg1=           0
         NFxFlg=           0 DoJE=F BraDBF=F KetDBF=F FulRan=T
         wScrn=  0.000000 ICntrl=       600 IOpCl=  0 I1Cent=           0 NGrid=           0
         NMat0=    1 NMatS0=  25425 NMatT0=    0 NMatD0=    1 NMtDS0=    0 NMtDT0=    0
 Symmetry not used in FoFCou.
 Two-electron integral symmetry not used.
 Closed shell SCF:
 Using DIIS extrapolation, IDIIS=  1040.
 NGot=  7784628224 LenX=  7461263523 LenY=  7461198057
 Requested convergence on RMS density matrix=1.00D-08 within 128 cycles.
 Requested convergence on MAX density matrix=1.00D-06.
 Requested convergence on             energy=1.00D-06.
 No special actions if energy rises.
 Integral accuracy reduced to 1.0D-05 until final iterations.

 Cycle   1  Pass 0  IDiag  1:
 E= -284.365311474458    
 DIIS: error= 3.10D-02 at cycle   1 NSaved=   1.
 NSaved= 1 IEnMin= 1 EnMin= -284.365311474458     IErMin= 1 ErrMin= 3.10D-02
 ErrMax= 3.10D-02  0.00D+00 EMaxC= 1.00D-01 BMatC= 2.69D-01 BMatP= 2.69D-01
 IDIUse=3 WtCom= 6.90D-01 WtEn= 3.10D-01
 Coeff-Com:  0.100D+01
 Coeff-En:   0.100D+01
 Coeff:      0.100D+01
 Gap=     0.145 Goal=   None    Shift=    0.000
 GapD=    0.145 DampG=1.000 DampE=0.500 DampFc=0.5000 IDamp=-1.
 Damping current iteration by 5.00D-01
 RMSDP=4.89D-03 MaxDP=2.41D-01              OVMax= 2.44D-01

 Cycle   2  Pass 0  IDiag  1:
 E= -284.411317936123     Delta-E=       -0.046006461665 Rises=F Damp=T
 DIIS: error= 7.79D-03 at cycle   2 NSaved=   2.
 NSaved= 2 IEnMin= 2 EnMin= -284.411317936123     IErMin= 2 ErrMin= 7.79D-03
 ErrMax= 7.79D-03  0.00D+00 EMaxC= 1.00D-01 BMatC= 3.45D-02 BMatP= 2.69D-01
 IDIUse=3 WtCom= 9.22D-01 WtEn= 7.79D-02
 Coeff-Com:  0.220D+00 0.780D+00
 Coeff-En:   0.376D+00 0.624D+00
 Coeff:      0.232D+00 0.768D+00
 Gap=     0.260 Goal=   None    Shift=    0.000
 RMSDP=1.31D-03 MaxDP=7.16D-02 DE=-4.60D-02 OVMax= 1.62D-01

 Cycle   3  Pass 0  IDiag  1:
 E= -284.536876385173     Delta-E=       -0.125558449050 Rises=F Damp=F
 DIIS: error= 1.07D-02 at cycle   3 NSaved=   3.
 NSaved= 3 IEnMin= 3 EnMin= -284.536876385173     IErMin= 2 ErrMin= 7.79D-03
 ErrMax= 1.07D-02  0.00D+00 EMaxC= 1.00D-01 BMatC= 2.32D-02 BMatP= 3.45D-02
 IDIUse=3 WtCom= 8.93D-01 WtEn= 1.07D-01
 Coeff-Com:  0.912D-01 0.467D+00 0.442D+00
 Coeff-En:   0.000D+00 0.000D+00 0.100D+01
 Coeff:      0.814D-01 0.417D+00 0.502D+00
 Gap=     0.249 Goal=   None    Shift=    0.000
 RMSDP=6.28D-04 MaxDP=2.26D-02 DE=-1.26D-01 OVMax= 7.34D-02

 Cycle   4  Pass 0  IDiag  1:
 E= -284.550532764426     Delta-E=       -0.013656379253 Rises=F Damp=F
 DIIS: error= 5.39D-03 at cycle   4 NSaved=   4.
 NSaved= 4 IEnMin= 4 EnMin= -284.550532764426     IErMin= 4 ErrMin= 5.39D-03
 ErrMax= 5.39D-03  0.00D+00 EMaxC= 1.00D-01 BMatC= 5.65D-03 BMatP= 2.32D-02
 IDIUse=3 WtCom= 9.46D-01 WtEn= 5.39D-02
 Coeff-Com:  0.531D-02 0.928D-01 0.336D+00 0.566D+00
 Coeff-En:   0.000D+00 0.000D+00 0.226D+00 0.774D+00
 Coeff:      0.503D-02 0.878D-01 0.330D+00 0.578D+00
 Gap=     0.243 Goal=   None    Shift=    0.000
 RMSDP=2.27D-04 MaxDP=8.03D-03 DE=-1.37D-02 OVMax= 2.46D-02

 Cycle   5  Pass 0  IDiag  1:
 E= -284.554333477476     Delta-E=       -0.003800713050 Rises=F Damp=F
 DIIS: error= 7.04D-04 at cycle   5 NSaved=   5.
 NSaved= 5 IEnMin= 5 EnMin= -284.554333477476     IErMin= 5 ErrMin= 7.04D-04
 ErrMax= 7.04D-04  0.00D+00 EMaxC= 1.00D-01 BMatC= 1.98D-04 BMatP= 5.65D-03
 IDIUse=3 WtCom= 9.93D-01 WtEn= 7.04D-03
 Coeff-Com: -0.218D-02 0.152D-01 0.138D+00 0.297D+00 0.551D+00
 Coeff-En:   0.000D+00 0.000D+00 0.000D+00 0.000D+00 0.100D+01
 Coeff:     -0.217D-02 0.151D-01 0.137D+00 0.295D+00 0.554D+00
 Gap=     0.245 Goal=   None    Shift=    0.000
 RMSDP=4.84D-05 MaxDP=1.52D-03 DE=-3.80D-03 OVMax= 3.46D-03

 Cycle   6  Pass 0  IDiag  1:
 E= -284.554484847041     Delta-E=       -0.000151369565 Rises=F Damp=F
 DIIS: error= 2.04D-04 at cycle   6 NSaved=   6.
 NSaved= 6 IEnMin= 6 EnMin= -284.554484847041     IErMin= 6 ErrMin= 2.04D-04
 ErrMax= 2.04D-04  0.00D+00 EMaxC= 1.00D-01 BMatC= 1.17D-05 BMatP= 1.98D-04
 IDIUse=3 WtCom= 9.98D-01 WtEn= 2.04D-03
 Coeff-Com: -0.118D-02-0.857D-04 0.381D-01 0.895D-01 0.266D+00 0.608D+00
 Coeff-En:   0.000D+00 0.000D+00 0.000D+00 0.000D+00 0.000D+00 0.100D+01
 Coeff:     -0.118D-02-0.855D-04 0.380D-01 0.894D-01 0.265D+00 0.609D+00
 Gap=     0.246 Goal=   None    Shift=    0.000
 RMSDP=1.23D-05 MaxDP=3.45D-04 DE=-1.51D-04 OVMax= 6.80D-04

 Cycle   7  Pass 0  IDiag  1:
 E= -284.554494345409     Delta-E=       -0.000009498369 Rises=F Damp=F
 DIIS: error= 4.28D-05 at cycle   7 NSaved=   7.
 NSaved= 7 IEnMin= 7 EnMin= -284.554494345409     IErMin= 7 ErrMin= 4.28D-05
 ErrMax= 4.28D-05  0.00D+00 EMaxC= 1.00D-01 BMatC= 5.70D-07 BMatP= 1.17D-05
 IDIUse=1 WtCom= 1.00D+00 WtEn= 0.00D+00
 Coeff-Com: -0.340D-03-0.740D-03 0.120D-01 0.290D-01 0.103D+00 0.278D+00
 Coeff-Com:  0.579D+00
 Coeff:     -0.340D-03-0.740D-03 0.120D-01 0.290D-01 0.103D+00 0.278D+00
 Coeff:      0.579D+00
 Gap=     0.245 Goal=   None    Shift=    0.000
 RMSDP=3.39D-06 MaxDP=1.21D-04 DE=-9.50D-06 OVMax= 1.87D-04

 Initial convergence to 1.0D-05 achieved.  Increase integral accuracy.
 Cycle   8  Pass 1  IDiag  1:
 E= -284.554495567328     Delta-E=       -0.000001221919 Rises=F Damp=F
 DIIS: error= 1.31D-05 at cycle   1 NSaved=   1.
 NSaved= 1 IEnMin= 1 EnMin= -284.554495567328     IErMin= 1 ErrMin= 1.31D-05
 ErrMax= 1.31D-05  0.00D+00 EMaxC= 1.00D-01 BMatC= 8.18D-08 BMatP= 8.18D-08
 IDIUse=1 WtCom= 1.00D+00 WtEn= 0.00D+00
 Coeff-Com:  0.100D+01
 Coeff:      0.100D+01
 Gap=     0.246 Goal=   None    Shift=    0.000
 RMSDP=3.39D-06 MaxDP=1.21D-04 DE=-1.22D-06 OVMax= 1.66D-04

 Cycle   9  Pass 1  IDiag  1:
 E= -284.554495492313     Delta-E=        0.000000075015 Rises=F Damp=F
 DIIS: error= 2.22D-05 at cycle   2 NSaved=   2.
 NSaved= 2 IEnMin= 1 EnMin= -284.554495567328     IErMin= 1 ErrMin= 1.31D-05
 ErrMax= 2.22D-05  0.00D+00 EMaxC= 1.00D-01 BMatC= 1.86D-07 BMatP= 8.18D-08
 IDIUse=1 WtCom= 1.00D+00 WtEn= 0.00D+00
 Coeff-Com:  0.603D+00 0.397D+00
 Coeff:      0.603D+00 0.397D+00
 Gap=     0.245 Goal=   None    Shift=    0.000
 RMSDP=1.26D-06 MaxDP=4.38D-05 DE= 7.50D-08 OVMax= 9.24D-05

 Cycle  10  Pass 1  IDiag  1:
 E= -284.554495629942     Delta-E=       -0.000000137629 Rises=F Damp=F
 DIIS: error= 2.56D-06 at cycle   3 NSaved=   3.
 NSaved= 3 IEnMin= 3 EnMin= -284.554495629942     IErMin= 3 ErrMin= 2.56D-06
 ErrMax= 2.56D-06  0.00D+00 EMaxC= 1.00D-01 BMatC= 1.58D-09 BMatP= 8.18D-08
 IDIUse=1 WtCom= 1.00D+00 WtEn= 0.00D+00
 Coeff-Com:  0.274D+00 0.193D+00 0.533D+00
 Coeff:      0.274D+00 0.193D+00 0.533D+00
 Gap=     0.245 Goal=   None    Shift=    0.000
 RMSDP=2.23D-07 MaxDP=9.75D-06 DE=-1.38D-07 OVMax= 1.86D-05

 Cycle  11  Pass 1  IDiag  1:
 E= -284.554495630745     Delta-E=       -0.000000000802 Rises=F Damp=F
 DIIS: error= 1.73D-06 at cycle   4 NSaved=   4.
 NSaved= 4 IEnMin= 4 EnMin= -284.554495630745     IErMin= 4 ErrMin= 1.73D-06
 ErrMax= 1.73D-06  0.00D+00 EMaxC= 1.00D-01 BMatC= 5.52D-10 BMatP= 1.58D-09
 IDIUse=1 WtCom= 1.00D+00 WtEn= 0.00D+00
 Coeff-Com:  0.695D-01 0.537D-01 0.364D+00 0.512D+00
 Coeff:      0.695D-01 0.537D-01 0.364D+00 0.512D+00
 Gap=     0.245 Goal=   None    Shift=    0.000
 RMSDP=7.02D-08 MaxDP=3.47D-06 DE=-8.02D-10 OVMax= 9.66D-06

 Cycle  12  Pass 1  IDiag  1:
 E= -284.554495631118     Delta-E=       -0.000000000374 Rises=F Damp=F
 DIIS: error= 2.79D-07 at cycle   5 NSaved=   5.
 NSaved= 5 IEnMin= 5 EnMin= -284.554495631118     IErMin= 5 ErrMin= 2.79D-07
 ErrMax= 2.79D-07  0.00D+00 EMaxC= 1.00D-01 BMatC= 3.32D-11 BMatP= 5.52D-10
 IDIUse=1 WtCom= 1.00D+00 WtEn= 0.00D+00
 Coeff-Com: -0.181D-02 0.722D-03 0.106D+00 0.257D+00 0.638D+00
 Coeff:     -0.181D-02 0.722D-03 0.106D+00 0.257D+00 0.638D+00
 Gap=     0.245 Goal=   None    Shift=    0.000
 RMSDP=2.08D-08 MaxDP=6.28D-07 DE=-3.74D-10 OVMax= 1.53D-06

 Cycle  13  Pass 1  IDiag  1:
 E= -284.554495631139     Delta-E=       -0.000000000021 Rises=F Damp=F
 DIIS: error= 1.16D-07 at cycle   6 NSaved=   6.
 NSaved= 6 IEnMin= 6 EnMin= -284.554495631139     IErMin= 6 ErrMin= 1.16D-07
 ErrMax= 1.16D-07  0.00D+00 EMaxC= 1.00D-01 BMatC= 4.76D-12 BMatP= 3.32D-11
 IDIUse=1 WtCom= 1.00D+00 WtEn= 0.00D+00
 Coeff-Com: -0.768D-02-0.468D-02 0.247D-01 0.101D+00 0.364D+00 0.522D+00
 Coeff:     -0.768D-02-0.468D-02 0.247D-01 0.101D+00 0.364D+00 0.522D+00
 Gap=     0.245 Goal=   None    Shift=    0.000
 RMSDP=5.89D-09 MaxDP=2.01D-07 DE=-2.07D-11 OVMax= 4.49D-07

 SCF Done:  E(RB3LYP) =  -284.554495631     A.U. after   13 cycles
            NFock= 13  Conv=0.59D-08     -V/T= 2.0046
 KE= 2.832648126505D+02 PE=-1.026763661519D+03 EE= 2.793933702197D+02
 Leave Link  502 at Tue Nov 30 11:28:51 2021, MaxMem=  7784628224 cpu:             106.1 elap:              11.5
 (Enter /cm/shared/gaussian/versions/g16.c01/intel64-sandybridge/g16/l801.exe)
 DoSCS=F DFT=T ScalE2(SS,OS)=  1.000000  1.000000
 Range of M.O.s used for correlation:     1   225
 NBasis=   225 NAE=    20 NBE=    20 NFC=     0 NFV=     0
 NROrb=    225 NOA=    20 NOB=    20 NVA=   205 NVB=   205

 **** Warning!!: The largest alpha MO coefficient is  0.17375311D+02

 Leave Link  801 at Tue Nov 30 11:28:52 2021, MaxMem=  7784628224 cpu:               0.5 elap:               0.1
 (Enter /cm/shared/gaussian/versions/g16.c01/intel64-sandybridge/g16/l1101.exe)
 Using compressed storage, NAtomX=    10.
 Will process     11 centers per pass.
   1 Symmetry operations used in ECPInt.
 ECPInt:  NShTT=    3655 NPrTT=    9995 LenC2=    3615 LenP2D=    8448.
 LDataN:  DoStor=T MaxTD1= 7 Len=  274
 Leave Link 1101 at Tue Nov 30 11:28:52 2021, MaxMem=  7784628224 cpu:               4.3 elap:               0.3
 (Enter /cm/shared/gaussian/versions/g16.c01/intel64-sandybridge/g16/l1102.exe)
 Symmetrizing basis deriv contribution to polar:
 IMax=3 JMax=2 DiffMx= 0.00D+00
 Leave Link 1102 at Tue Nov 30 11:28:52 2021, MaxMem=  7784628224 cpu:               0.6 elap:               0.1
 (Enter /cm/shared/gaussian/versions/g16.c01/intel64-sandybridge/g16/l1110.exe)
 Forming Gx(P) for the SCF density, NAtomX=    10.
 Integral derivatives from FoFJK, PRISM(SPDF).
 Do as many integral derivatives as possible in FoFJK.
 G2DrvN: MDV=    7784627058.
 G2DrvN: will do    11 centers at a time, making    1 passes.
 Calling FoFCou, ICntrl=  3107 FMM=F I1Cent=   0 AccDes= 0.00D+00.
 FoFJK:  IHMeth= 1 ICntrl=    3107 DoSepK=F KAlg= 0 I1Cent=           0 FoldK=F
 IRaf=         0 NMat=       1 IRICut=       1 DoRegI=T DoRafI=F ISym2E= 0 IDoP0=0 IntGTp=1.
 FoFCou: FMM=F IPFlag=           0 FMFlag=      100000 FMFlg1=           0
         NFxFlg=           0 DoJE=F BraDBF=F KetDBF=F FulRan=T
         wScrn=  0.000000 ICntrl=      3107 IOpCl=  0 I1Cent=           0 NGrid=           0
         NMat0=    1 NMatS0=      1 NMatT0=    0 NMatD0=    1 NMtDS0=    0 NMtDT0=    0
 Symmetry not used in FoFCou.
 End of G2Drv F.D. properties file   721 does not exist.
 End of G2Drv F.D. properties file   722 does not exist.
 End of G2Drv F.D. properties file   788 does not exist.
 Leave Link 1110 at Tue Nov 30 11:29:10 2021, MaxMem=  7784628224 cpu:             288.7 elap:              18.1
 (Enter /cm/shared/gaussian/versions/g16.c01/intel64-sandybridge/g16/l1002.exe)
 Minotr:  Closed shell wavefunction.
          IDoAtm=1111111111
          Direct CPHF calculation.
          Differentiating once with respect to electric field.
                with respect to dipole field.
          Differentiating once with respect to nuclear coordinates.
          Requested convergence is 1.0D-08 RMS, and 1.0D-07 maximum.
          Secondary convergence is 1.0D-12 RMS, and 1.0D-12 maximum.
          NewPWx=T KeepS1=F KeepF1=F KeepIn=T MapXYZ=F SortEE=F KeepMc=T.
         2974 words used for storage of precomputed grid.
 Keep R1 ints in memory in canonical form, NReq=340532682.
 FoFCou: FMM=F IPFlag=           0 FMFlag=           0 FMFlg1=           0
         NFxFlg=           0 DoJE=F BraDBF=F KetDBF=F FulRan=T
         wScrn=  0.000000 ICntrl=       600 IOpCl=  0 I1Cent=           0 NGrid=           0
         NMat0=    1 NMatS0=  25425 NMatT0=    0 NMatD0=    1 NMtDS0=    0 NMtDT0=    0
 Symmetry not used in FoFCou.
 Two-electron integral symmetry not used.
          MDV=    7784628224 using IRadAn=       1.
          Solving linear equations simultaneously, MaxMat=       0.
          There are    33 degrees of freedom in the 1st order CPHF.  IDoFFX=6 NUNeed=     3.
     30 vectors produced by pass  0 Test12= 1.24D-14 3.03D-09 XBig12= 3.18D+01 3.12D+00.
 AX will form    30 AO Fock derivatives at one time.
     30 vectors produced by pass  1 Test12= 1.24D-14 3.03D-09 XBig12= 1.03D+01 7.90D-01.
     30 vectors produced by pass  2 Test12= 1.24D-14 3.03D-09 XBig12= 1.14D-01 5.80D-02.
     30 vectors produced by pass  3 Test12= 1.24D-14 3.03D-09 XBig12= 6.08D-04 4.39D-03.
     30 vectors produced by pass  4 Test12= 1.24D-14 3.03D-09 XBig12= 1.78D-06 1.58D-04.
     25 vectors produced by pass  5 Test12= 1.24D-14 3.03D-09 XBig12= 2.37D-09 5.69D-06.
      8 vectors produced by pass  6 Test12= 1.24D-14 3.03D-09 XBig12= 2.78D-12 1.78D-07.
      1 vectors produced by pass  7 Test12= 1.24D-14 3.03D-09 XBig12= 3.35D-15 8.49D-09.
 InvSVY:  IOpt=1 It=  1 EMax= 2.66D-15
 Solved reduced A of dimension   184 with    33 vectors.
 FullF1:  Do perturbations      1 to       3.
 Isotropic polarizability for W=    0.000000       40.02 Bohr**3.
 End of Minotr F.D. properties file   721 does not exist.
 End of Minotr F.D. properties file   722 does not exist.
 End of Minotr F.D. properties file   788 does not exist.
 Leave Link 1002 at Tue Nov 30 11:29:34 2021, MaxMem=  7784628224 cpu:             373.3 elap:              23.8
 (Enter /cm/shared/gaussian/versions/g16.c01/intel64-sandybridge/g16/l601.exe)
 Copying SCF densities to generalized density rwf, IOpCl= 0 IROHF=0.

 **********************************************************************

            Population analysis using the SCF Density.

 **********************************************************************

 Orbital symmetries:
       Occupied  (A) (A) (A) (A) (A) (A) (A) (A) (A) (A) (A) (A)
                 (A) (A) (A) (A) (A) (A) (A) (A)
       Virtual   (A) (A) (A) (A) (A) (A) (A) (A) (A) (A) (A) (A)
                 (A) (A) (A) (A) (A) (A) (A) (A) (A) (A) (A) (A)
                 (A) (A) (A) (A) (A) (A) (A) (A) (A) (A) (A) (A)
                 (A) (A) (A) (A) (A) (A) (A) (A) (A) (A) (A) (A)
                 (A) (A) (A) (A) (A) (A) (A) (A) (A) (A) (A) (A)
                 (A) (A) (A) (A) (A) (A) (A) (A) (A) (A) (A) (A)
                 (A) (A) (A) (A) (A) (A) (A) (A) (A) (A) (A) (A)
                 (A) (A) (A) (A) (A) (A) (A) (A) (A) (A) (A) (A)
                 (A) (A) (A) (A) (A) (A) (A) (A) (A) (A) (A) (A)
                 (A) (A) (A) (A) (A) (A) (A) (A) (A) (A) (A) (A)
                 (A) (A) (A) (A) (A) (A) (A) (A) (A) (A) (A) (A)
                 (A) (A) (A) (A) (A) (A) (A) (A) (A) (A) (A) (A)
                 (A) (A) (A) (A) (A) (A) (A) (A) (A) (A) (A) (A)
                 (A) (A) (A) (A) (A) (A) (A) (A) (A) (A) (A) (A)
                 (A) (A) (A) (A) (A) (A) (A) (A) (A) (A) (A) (A)
                 (A) (A) (A) (A) (A) (A) (A) (A) (A) (A) (A) (A)
                 (A) (A) (A) (A) (A) (A) (A) (A) (A) (A) (A) (A)
                 (A)
 The electronic state is 1-A.
 Alpha  occ. eigenvalues --  -19.17744 -19.12459 -14.30178 -10.31724 -10.22306
 Alpha  occ. eigenvalues --   -1.11655  -1.03061  -0.89603  -0.73197  -0.62835
 Alpha  occ. eigenvalues --   -0.53644  -0.49529  -0.49101  -0.45378  -0.43161
 Alpha  occ. eigenvalues --   -0.41494  -0.38789  -0.33741  -0.29464  -0.25256
 Alpha virt. eigenvalues --   -0.00708   0.02112   0.03379   0.07236   0.10282
 Alpha virt. eigenvalues --    0.11333   0.15317   0.16530   0.18262   0.20391
 Alpha virt. eigenvalues --    0.22747   0.25256   0.29686   0.30423   0.30821
 Alpha virt. eigenvalues --    0.34738   0.36481   0.38526   0.39413   0.39763
 Alpha virt. eigenvalues --    0.42271   0.42918   0.44363   0.45275   0.47078
 Alpha virt. eigenvalues --    0.48623   0.49439   0.51831   0.53174   0.54537
 Alpha virt. eigenvalues --    0.60327   0.61632   0.65437   0.68387   0.71370
 Alpha virt. eigenvalues --    0.74205   0.76026   0.80232   0.82935   0.86017
 Alpha virt. eigenvalues --    0.88526   0.92148   0.95404   0.97437   0.98669
 Alpha virt. eigenvalues --    1.01751   1.03705   1.04936   1.08501   1.12442
 Alpha virt. eigenvalues --    1.15909   1.17005   1.22065   1.25362   1.26831
 Alpha virt. eigenvalues --    1.29851   1.33657   1.34725   1.38345   1.41771
 Alpha virt. eigenvalues --    1.45659   1.46132   1.51762   1.52708   1.54534
 Alpha virt. eigenvalues --    1.59599   1.61065   1.68682   1.72180   1.73683
 Alpha virt. eigenvalues --    1.76504   1.81241   1.89065   1.94016   1.94695
 Alpha virt. eigenvalues --    1.98094   2.02294   2.03502   2.12580   2.16009
 Alpha virt. eigenvalues --    2.21548   2.24985   2.30754   2.32099   2.41390
 Alpha virt. eigenvalues --    2.45431   2.49883   2.51903   2.59833   2.63005
 Alpha virt. eigenvalues --    2.67278   2.68499   2.73537   2.77377   2.82133
 Alpha virt. eigenvalues --    2.82840   2.84966   2.91429   2.93905   2.96009
 Alpha virt. eigenvalues --    2.99052   3.01865   3.04742   3.07119   3.09945
 Alpha virt. eigenvalues --    3.10653   3.12805   3.17619   3.19461   3.25550
 Alpha virt. eigenvalues --    3.26250   3.28973   3.32889   3.34753   3.35878
 Alpha virt. eigenvalues --    3.39403   3.42639   3.43271   3.46000   3.48250
 Alpha virt. eigenvalues --    3.51451   3.52537   3.55106   3.60493   3.63007
 Alpha virt. eigenvalues --    3.63594   3.65013   3.68667   3.73191   3.80187
 Alpha virt. eigenvalues --    3.82905   3.87249   3.89266   3.93164   3.94932
 Alpha virt. eigenvalues --    3.96293   3.97514   4.02147   4.04248   4.06868
 Alpha virt. eigenvalues --    4.12648   4.15463   4.21352   4.23391   4.24698
 Alpha virt. eigenvalues --    4.29157   4.36045   4.38577   4.46644   4.48668
 Alpha virt. eigenvalues --    4.56884   4.58511   4.59861   4.65781   4.73370
 Alpha virt. eigenvalues --    4.77721   4.82438   4.89076   4.94015   4.95505
 Alpha virt. eigenvalues --    5.02517   5.12979   5.15255   5.17171   5.23582
 Alpha virt. eigenvalues --    5.26630   5.30377   5.34719   5.36534   5.42723
 Alpha virt. eigenvalues --    5.47891   5.49873   5.55069   5.64106   5.67532
 Alpha virt. eigenvalues --    5.69832   5.76052   5.86340   5.92015   5.95601
 Alpha virt. eigenvalues --    6.01015   6.11909   6.19316   6.31805   6.34082
 Alpha virt. eigenvalues --    6.41268   6.42633   6.46686   6.48738   6.56335
 Alpha virt. eigenvalues --    6.58521   6.65007   6.70499   6.83584   6.85101
 Alpha virt. eigenvalues --    6.98227   7.10523   7.26301   7.39609   7.51634
 Alpha virt. eigenvalues --   23.11451  23.28876  32.63363  43.81752  43.92873
          Condensed to atoms (all electrons):
               1          2          3          4          5          6
     1  C    4.473846   0.400904   0.279694   0.008383  -0.044443  -0.034875
     2  O    0.400904   7.781106  -0.102914   0.002317   0.008568   0.002455
     3  C    0.279694  -0.102914   4.903007   0.386543   0.397940   0.313884
     4  H    0.008383   0.002317   0.386543   0.625539  -0.048653  -0.052187
     5  H   -0.044443   0.008568   0.397940  -0.048653   0.626609  -0.049735
     6  N   -0.034875   0.002455   0.313884  -0.052187  -0.049735   6.409780
     7  H   -0.027662   0.001690  -0.037901   0.002142   0.008383   0.383658
     8  H    0.002406  -0.000140  -0.028661  -0.013616   0.003764   0.377752
     9  O    0.668465  -0.110708  -0.093214  -0.000366   0.003382  -0.013949
    10  H   -0.026006   0.306493   0.017077  -0.000529  -0.001203  -0.000530
               7          8          9         10
     1  C   -0.027662   0.002406   0.668465  -0.026006
     2  O    0.001690  -0.000140  -0.110708   0.306493
     3  C   -0.037901  -0.028661  -0.093214   0.017077
     4  H    0.002142  -0.013616  -0.000366  -0.000529
     5  H    0.008383   0.003764   0.003382  -0.001203
     6  N    0.383658   0.377752  -0.013949  -0.000530
     7  H    0.533738  -0.034484   0.028075  -0.000259
     8  H   -0.034484   0.564404   0.000264   0.000029
     9  O    0.028075   0.000264   7.818991   0.007098
    10  H   -0.000259   0.000029   0.007098   0.484320
 Mulliken charges:
               1
     1  C    0.299289
     2  O   -0.289770
     3  C   -0.035454
     4  H    0.090426
     5  H    0.095387
     6  N   -0.336253
     7  H    0.142619
     8  H    0.128282
     9  O   -0.308037
    10  H    0.213510
 Sum of Mulliken charges =  -0.00000
 Mulliken charges with hydrogens summed into heavy atoms:
               1
     1  C    0.299289
     2  O   -0.076260
     3  C    0.150359
     6  N   -0.065351
     9  O   -0.308037
 APT charges:
               1
     1  C    1.130057
     2  O   -0.758216
     3  C    0.238204
     4  H   -0.039744
     5  H   -0.015075
     6  N   -0.469082
     7  H    0.186678
     8  H    0.153547
     9  O   -0.736265
    10  H    0.309896
 Sum of APT charges =   0.00000
 APT charges with hydrogens summed into heavy atoms:
               1
     1  C    1.130057
     2  O   -0.448320
     3  C    0.183385
     6  N   -0.128857
     9  O   -0.736265
 Electronic spatial extent (au):  <R**2>=            421.3268
 Charge=             -0.0000 electrons
 Dipole moment (field-independent basis, Debye):
    X=             -0.5035    Y=             -1.4920    Z=              1.3068  Tot=              2.0463
 Quadrupole moment (field-independent basis, Debye-Ang):
   XX=            -23.4775   YY=            -32.9766   ZZ=            -30.3401
   XY=             -0.4874   XZ=              3.4495   YZ=             -0.2562
 Traceless Quadrupole moment (field-independent basis, Debye-Ang):
   XX=              5.4539   YY=             -4.0452   ZZ=             -1.4087
   XY=             -0.4874   XZ=              3.4495   YZ=             -0.2562
 Octapole moment (field-independent basis, Debye-Ang**2):
  XXX=            -21.9656  YYY=             -1.4795  ZZZ=              1.6576  XYY=              5.3284
  XXY=              2.5126  XXZ=              8.4879  XZZ=             -3.8526  YZZ=             -0.1881
  YYZ=             -0.2313  XYZ=             -0.0061
 Hexadecapole moment (field-independent basis, Debye-Ang**3):
 XXXX=           -252.7057 YYYY=           -141.4292 ZZZZ=            -37.7957 XXXY=             -1.3968
 XXXZ=             24.1033 YYYX=              4.7701 YYYZ=              0.8044 ZZZX=              4.1097
 ZZZY=             -0.1046 XXYY=            -81.1338 XXZZ=            -68.2801 YYZZ=            -28.0647
 XXYZ=             -0.8410 YYXZ=              0.5872 ZZXY=             -0.9909
 N-N= 1.795509830176D+02 E-N=-1.026763661381D+03  KE= 2.832648126505D+02
  Exact polarizability:      48.032       0.857      42.023       0.634      -0.323      30.018
 Approx polarizability:      59.154       2.076      64.521       1.046      -0.214      42.923
 No NMR shielding tensors so no spin-rotation constants.
 Leave Link  601 at Tue Nov 30 11:29:34 2021, MaxMem=  7784628224 cpu:               3.8 elap:               0.3
 (Enter /cm/shared/gaussian/versions/g16.c01/intel64-sandybridge/g16/l701.exe)
 ... and contract with generalized density number  0.
 Compute integral second derivatives.
   1 Symmetry operations used in ECPInt.
 ECPInt:  NShTT=    3655 NPrTT=    9995 LenC2=    3615 LenP2D=    8448.
 LDataN:  DoStor=T MaxTD1= 8 Len=  415
 Leave Link  701 at Tue Nov 30 11:29:35 2021, MaxMem=  7784628224 cpu:               4.5 elap:               0.3
 (Enter /cm/shared/gaussian/versions/g16.c01/intel64-sandybridge/g16/l702.exe)
 L702 exits ... SP integral derivatives will be done elsewhere.
 Leave Link  702 at Tue Nov 30 11:29:35 2021, MaxMem=  7784628224 cpu:               0.4 elap:               0.0
 (Enter /cm/shared/gaussian/versions/g16.c01/intel64-sandybridge/g16/l703.exe)
 Integral derivatives from FoFJK, PRISM(SPDF).
 Compute integral second derivatives, UseDBF=F ICtDFT=           0.
 Calling FoFJK, ICntrl=    100127 FMM=F ISym2X=0 I1Cent= 0 IOpClX= 0 NMat=1 NMatS=1 NMatT=0.
 FoFJK:  IHMeth= 1 ICntrl=  100127 DoSepK=F KAlg= 0 I1Cent=           0 FoldK=F
 IRaf=         0 NMat=       1 IRICut=       1 DoRegI=T DoRafI=F ISym2E= 0 IDoP0=0 IntGTp=1.
 FoFCou: FMM=F IPFlag=           0 FMFlag=      100000 FMFlg1=         800
         NFxFlg=           0 DoJE=F BraDBF=F KetDBF=F FulRan=T
         wScrn=  0.000000 ICntrl=    100127 IOpCl=  0 I1Cent=           0 NGrid=           0
         NMat0=    1 NMatS0=      1 NMatT0=    0 NMatD0=    1 NMtDS0=    0 NMtDT0=    0
 Symmetry not used in FoFCou.
 Leave Link  703 at Tue Nov 30 11:30:20 2021, MaxMem=  7784628224 cpu:             725.8 elap:              45.5
 (Enter /cm/shared/gaussian/versions/g16.c01/intel64-sandybridge/g16/l716.exe)
 Dipole        =-1.98102795D-01-5.87000882D-01 5.14141362D-01
 Polarizability= 4.80315269D+01 8.57323357D-01 4.20233105D+01
                 6.34193976D-01-3.22628804D-01 3.00177164D+01
 ***** Axes restored to original set *****
 -------------------------------------------------------------------
 Center     Atomic                   Forces (Hartrees/Bohr)
 Number     Number              X              Y              Z
 -------------------------------------------------------------------
      1        6          -0.020709832    0.010742979    0.000545642
      2        8           0.015189206   -0.038309281   -0.000523722
      3        6          -0.008882880   -0.007276686   -0.001734924
      4        1          -0.000952396    0.000099538   -0.000995587
      5        1          -0.001408437    0.001014961    0.002158219
      6        7          -0.000889396    0.003670470   -0.000825031
      7        1           0.001042621   -0.000004588    0.000191525
      8        1          -0.000560160   -0.000266492    0.000334768
      9        8           0.008798502    0.013331902    0.000323837
     10        1           0.008372772    0.016997196    0.000525273
 -------------------------------------------------------------------
 Cartesian Forces:  Max     0.038309281 RMS     0.010031195
 Force constants in Cartesian coordinates: 
                1             2             3             4             5 
      1  0.551210D+00
      2 -0.190372D-01  0.998475D+00
      3  0.121270D-01  0.163492D-01  0.225684D+00
      4 -0.234037D+00 -0.521456D-01 -0.665925D-02  0.663433D+00
      5 -0.265413D-01 -0.138068D+00 -0.420236D-02 -0.107256D+00  0.378001D+00
      6 -0.531559D-02 -0.518055D-02 -0.554663D-01  0.717883D-02  0.147147D-01
      7 -0.137892D+00  0.468365D-01 -0.234184D-02 -0.329803D-01  0.107703D-01
      8  0.374245D-01 -0.946970D-01 -0.134049D-02 -0.148920D-01  0.106011D-01
      9 -0.134079D-02  0.682853D-03 -0.883065D-01 -0.185941D-02 -0.407690D-03
     10  0.283177D-02  0.937298D-02 -0.285308D-01 -0.166115D-02 -0.225919D-03
     11  0.176363D-02 -0.117017D-01  0.217275D-01 -0.218301D-03  0.559896D-03
     12 -0.925834D-04  0.174919D-02 -0.233277D-02 -0.624811D-03 -0.186403D-03
     13  0.547864D-02  0.176697D-01  0.228282D-01 -0.927009D-03 -0.478103D-03
     14 -0.115968D-02 -0.184288D-01 -0.161470D-01 -0.668477D-03  0.133195D-02
     15 -0.144302D-02  0.156397D-02  0.161014D-02  0.502823D-03  0.679938D-03
     16 -0.353688D-01 -0.136491D-01  0.525166D-02 -0.657744D-02  0.272733D-02
     17  0.799369D-02  0.702338D-02 -0.206483D-02  0.608138D-02 -0.475143D-04
     18 -0.470054D-02 -0.155099D-02 -0.199509D-02 -0.105641D-02  0.991947D-03
     19 -0.406648D-02 -0.973964D-02 -0.575701D-03  0.290296D-02  0.282837D-02
     20  0.169454D-02  0.929910D-03 -0.589406D-03 -0.229582D-03 -0.110412D-02
     21 -0.139184D-03 -0.213102D-02  0.324821D-02 -0.539822D-03  0.374112D-03
     22 -0.326779D-02 -0.377086D-02  0.174717D-03 -0.131681D-02  0.862113D-03
     23 -0.666243D-03 -0.549044D-02 -0.218087D-03 -0.120760D-02  0.994967D-03
     24  0.383459D-02  0.169625D-02 -0.724166D-03  0.894477D-03 -0.613354D-03
     25 -0.115163D+00 -0.458371D-03 -0.243706D-02 -0.740218D-02 -0.810490D-01
     26  0.168372D-01 -0.757902D+00 -0.143066D-01 -0.693685D-01 -0.728264D-01
     27 -0.150065D-03 -0.145788D-01 -0.760494D-01 -0.421467D-02 -0.577096D-02
     28 -0.297255D-01  0.249217D-01  0.163053D-03 -0.381435D+00  0.198362D+00
     29 -0.183091D-01  0.198600D-01  0.792016D-03  0.239905D+00 -0.179442D+00
     30 -0.277982D-02  0.139993D-02 -0.566839D-02  0.637825D-02 -0.557996D-02
                6             7             8             9            10 
      6  0.166804D-01
      7 -0.229068D-02  0.462616D+00
      8  0.487689D-04  0.344557D-01  0.547210D+00
      9  0.644051D-02  0.111703D-01  0.172160D-01  0.526957D+00
     10  0.169381D-02 -0.483002D-01  0.567307D-02 -0.939253D-02  0.551385D-01
     11 -0.104500D-02  0.137499D-02 -0.866194D-01  0.897292D-01  0.277517D-02
     12  0.811674D-03 -0.650564D-02  0.897525D-01 -0.242574D+00  0.291360D-02
     13 -0.160080D-02 -0.479902D-01 -0.779877D-02 -0.107944D-01  0.175712D-02
     14  0.108353D-02 -0.887882D-02 -0.172144D+00 -0.121697D+00  0.371663D-03
     15  0.353988D-03 -0.107423D-01 -0.124083D+00 -0.163720D+00  0.299393D-03
     16 -0.212026D-03 -0.179204D+00 -0.508608D-01  0.340483D-01 -0.883870D-02
     17  0.198623D-03 -0.671577D-01 -0.140028D+00  0.337847D-01 -0.198577D-01
     18  0.998936D-03 -0.674334D-02  0.786977D-02 -0.629024D-01  0.255567D-01
     19  0.286782D-03  0.378824D-02 -0.347997D-01 -0.590536D-02 -0.201405D-02
     20 -0.854254D-04 -0.258853D-02 -0.218628D-01 -0.652312D-02  0.982565D-04
     21  0.184937D-03  0.267727D-02  0.104384D-01 -0.541310D-02  0.249317D-02
     22  0.101417D-03 -0.236974D-01  0.964146D-02 -0.179147D-01  0.315507D-02
     23  0.213540D-03 -0.192758D-01  0.622428D-02 -0.125355D-01 -0.662394D-03
     24  0.976846D-04  0.158497D-01 -0.218087D-02 -0.625427D-03 -0.436110D-04
     25 -0.339449D-02  0.420909D-02  0.270799D-01  0.150829D-02 -0.224864D-02
     26 -0.502326D-02  0.674899D-02 -0.477541D-01  0.333122D-03  0.263315D-02
     27  0.300910D-01 -0.437030D-03  0.370806D-02  0.257963D-01  0.412858D-02
     28  0.355274D-02 -0.549413D-03 -0.592316D-02  0.480215D-03  0.180318D-03
     29 -0.492495D-02 -0.228550D-02 -0.929475D-03 -0.582927D-03 -0.178312D-03
     30 -0.192792D-03 -0.636504D-03 -0.142935D-02  0.434792D-02  0.881703D-03
               11            12            13            14            15 
     11  0.975301D-01
     12 -0.102369D+00  0.264365D+00
     13 -0.175431D-02 -0.307795D-02  0.597473D-01
     14  0.104230D-01  0.869822D-02  0.200729D-01  0.196341D+00
     15 -0.210641D-01 -0.230450D-01  0.119652D-01  0.132577D+00  0.174112D+00
     16 -0.655827D-02  0.757890D-02 -0.903788D-02 -0.104688D-01 -0.179068D-02
     17 -0.975986D-02  0.368613D-02 -0.290717D-01 -0.146618D-01  0.669217D-02
     18  0.165158D-01  0.855861D-03 -0.111384D-01 -0.476803D-02  0.110164D-01
     19 -0.110149D-02  0.406915D-03 -0.459092D-02 -0.271082D-02  0.104651D-02
     20 -0.497852D-03 -0.489279D-03 -0.154602D-02 -0.912748D-03  0.223076D-02
     21  0.169935D-02 -0.580063D-03 -0.260143D-02 -0.184038D-02 -0.954655D-04
     22  0.123384D-02  0.165511D-03 -0.123581D-02 -0.119108D-03  0.271574D-03
     23  0.898723D-03  0.588637D-03 -0.135203D-02 -0.114777D-02 -0.466222D-03
     24 -0.107955D-02  0.278051D-02 -0.138516D-02 -0.643549D-03  0.324162D-03
     25  0.218455D-02 -0.441460D-03 -0.368764D-02  0.336995D-02 -0.328481D-03
     26 -0.775544D-03 -0.143815D-02  0.445612D-02 -0.880687D-03  0.176775D-02
     27 -0.345020D-02 -0.375618D-03 -0.393244D-02  0.190245D-02 -0.556097D-03
     28  0.300200D-03 -0.322481D-03  0.486350D-03  0.191205D-03  0.218937D-03
     29 -0.574012D-04  0.775516D-05 -0.197768D-03  0.798000D-04  0.101367D-03
     30 -0.664486D-03  0.940421D-04 -0.262860D-03  0.834290D-03  0.000000D+00
               16            17            18            19            20 
     16  0.569366D+00
     17 -0.573371D-01  0.639663D+00
     18  0.162554D+00 -0.319908D-01  0.233643D+00
     19 -0.711666D-01  0.741528D-01  0.261602D-03  0.774951D-01
     20  0.612619D-01 -0.393011D+00 -0.534044D-01 -0.620704D-01  0.425118D+00
     21  0.656825D-02 -0.994109D-01 -0.266017D-01 -0.362728D-02  0.636832D-01
     22 -0.257238D+00  0.790334D-01 -0.163519D+00 -0.447459D-02  0.890751D-03
     23  0.795671D-01 -0.922266D-01  0.669914D-01  0.296374D-01 -0.835866D-02
     24 -0.213565D+00  0.885187D-01 -0.157028D+00  0.807498D-02 -0.528417D-02
     25 -0.172961D-02  0.508332D-02 -0.344924D-03  0.248737D-02  0.237508D-02
     26 -0.407781D-02  0.285024D-02 -0.693257D-03  0.385857D-02 -0.392621D-03
     27 -0.328827D-03  0.223281D-03  0.160220D-02 -0.153383D-04  0.382792D-03
     28 -0.205993D-03  0.107969D-02 -0.870031D-03 -0.361043D-03  0.113953D-03
     29 -0.604290D-03  0.197701D-03  0.384327D-04 -0.550182D-04  0.915340D-04
     30 -0.105428D-03  0.362919D-03  0.410924D-03  0.468837D-04  0.790184D-04
               21            22            23            24            25 
     21  0.318885D-01
     22 -0.495119D-02  0.288029D+00
     23  0.260559D-01 -0.875058D-01  0.977088D-01
     24  0.505132D-03  0.185784D+00 -0.801073D-01  0.154222D+00
     25  0.179056D-03  0.293316D-03  0.179780D-02  0.165852D-03  0.114160D+00
     26  0.117051D-02 -0.154250D-03  0.143947D-02 -0.406438D-03  0.368073D-01
     27 -0.311174D-02 -0.638812D-04 -0.606063D-03  0.241391D-03  0.449667D-02
     28 -0.588406D-04 -0.247620D-03 -0.332359D-03  0.389425D-03  0.908184D-02
     29 -0.391075D-04 -0.111512D-03 -0.427987D-04  0.100313D-03  0.280945D-02
     30 -0.246907D-04 -0.487437D-04  0.836570D-04  0.206341D-03  0.596546D-03
               26            27            28            29            30 
     26  0.881188D+00
     27  0.182832D-01  0.268792D-01
     28  0.225922D-02  0.517002D-03  0.402776D+00
     29 -0.494680D-02 -0.937016D-04 -0.220973D+00  0.165190D+00
     30  0.313181D-03 -0.451730D-02 -0.407002D-02  0.460080D-02  0.534388D-02
 FormGI is forming the generalized inverse of G from B-inverse, IUseBI=4.
 Force constants in internal coordinates: 
                1             2             3             4             5 
      1  0.369384D+00
      2  0.196168D-01  0.264074D+00
      3  0.974494D-01  0.367801D-01  0.882911D+00
      4  0.161431D-02 -0.302348D-02 -0.464000D-02  0.534927D+00
      5  0.862132D-03  0.579798D-02 -0.101955D-02  0.385837D-03  0.312842D+00
      6  0.865968D-03  0.509788D-02 -0.104402D-02  0.227014D-03  0.556116D-02
      7 -0.758240D-03  0.128695D-01  0.187821D-02 -0.164280D-03  0.136132D-01
      8  0.128246D-02 -0.288679D-02 -0.825249D-03 -0.938930D-04 -0.613902D-03
      9 -0.514840D-05 -0.380874D-03 -0.776707D-03 -0.121322D-03  0.132678D-02
     10  0.175664D-01  0.538232D-02 -0.560711D-01  0.707048D-02 -0.104248D-02
     11  0.300030D-01 -0.318598D-01  0.444826D-01 -0.105973D-01 -0.857475D-03
     12 -0.475771D-01  0.264804D-01  0.115910D-01  0.352714D-02  0.186279D-02
     13  0.222934D-01  0.176066D-02  0.523278D-02  0.199243D-01  0.302531D-03
     14 -0.225343D-03 -0.317612D-02  0.451422D-02 -0.531296D-03  0.731585D-02
     15 -0.506499D-03 -0.205769D-02  0.536349D-02 -0.988230D-03 -0.413628D-02
     16  0.353562D-02  0.361516D-01 -0.716705D-02  0.164360D-02 -0.223275D-02
     17  0.740079D-03 -0.186621D-02 -0.153821D-02  0.977602D-04  0.429703D-02
     18 -0.179163D-02 -0.143445D-01  0.111343D-04 -0.356367D-03 -0.363700D-02
     19 -0.176802D-02 -0.152942D-01 -0.454832D-03  0.658603D-05 -0.118878D-02
     20 -0.572586D-02 -0.516664D-02  0.479337D-02  0.294253D-03  0.202241D-02
     21  0.360542D-02  0.421791D-02  0.561150D-03  0.575153D-03 -0.279877D-02
     22  0.121498D-02  0.187104D-02 -0.298781D-02 -0.334991D-03 -0.190639D-03
     23  0.304011D-03 -0.224848D-03 -0.250106D-03 -0.692128D-04 -0.104073D-02
     24  0.137309D-02 -0.780350D-03 -0.464301D-03 -0.147923D-03  0.473431D-03
     25 -0.491924D-03  0.255564D-02 -0.157586D-02  0.462206D-03 -0.150290D-02
     26  0.155822D-04 -0.209751D-02  0.133979D-02 -0.140971D-03  0.512967D-02
     27 -0.283231D-03  0.370200D-03 -0.214835D-03  0.253618D-03 -0.490973D-03
     28 -0.276575D-03  0.215721D-02 -0.865425D-03  0.314550D-03 -0.312646D-02
     29  0.230931D-03 -0.249593D-02  0.205022D-02 -0.288626D-03  0.350612D-02
     30 -0.678818D-04 -0.282253D-04  0.495600D-03  0.105963D-03 -0.211453D-02
     31  0.394415D-04  0.695488D-03  0.181314D-03  0.116240D-03  0.364675D-02
     32  0.324600D-04  0.227928D-02  0.110742D-04  0.262425D-03  0.297022D-02
     33 -0.100232D-02 -0.115830D-01 -0.452926D-03 -0.145854D-03 -0.168261D-02
     34 -0.100930D-02 -0.999922D-02 -0.623166D-03  0.000000D+00 -0.235914D-02
     35  0.574152D-03  0.119662D-01  0.186483D-02 -0.301991D-04 -0.385834D-02
     36  0.567170D-03  0.135500D-01  0.169459D-02  0.115986D-03 -0.453487D-02
                6             7             8             9            10 
      6  0.320221D+00
      7  0.149961D-01  0.350602D+00
      8 -0.657014D-03  0.584296D-02  0.445140D+00
      9 -0.129481D-03 -0.118606D-02 -0.543525D-03  0.456828D+00
     10 -0.385627D-02  0.118984D-01  0.607213D-04 -0.772564D-04  0.148417D+00
     11 -0.205337D-03  0.506047D-03  0.210313D-02 -0.162417D-03 -0.950531D-01
     12  0.409248D-02 -0.124027D-01 -0.216219D-02  0.234139D-03 -0.533453D-01
     13  0.542827D-03  0.923680D-03 -0.302018D-03 -0.108332D-03  0.210757D-01
     14 -0.354537D-02 -0.186448D-01  0.251290D-02  0.620998D-03 -0.387786D-02
     15  0.590152D-02 -0.216290D-01  0.132023D-02 -0.167417D-02 -0.746076D-02
     16 -0.301483D-02  0.177035D-01 -0.593032D-02  0.290292D-02  0.108970D-01
     17  0.387915D-02 -0.832669D-02 -0.139985D-02  0.493901D-03  0.277034D-02
     18 -0.865186D-03  0.104045D-01  0.156960D-03 -0.351894D-02 -0.301806D-02
     19 -0.176470D-02  0.164883D-01  0.353331D-02  0.106875D-02 -0.122781D-03
     20  0.115771D-02  0.370626D-01  0.175783D-01 -0.426570D-02  0.377449D-02
     21  0.529297D-03  0.344133D-01 -0.442374D-02  0.743701D-02  0.629732D-02
     22 -0.173361D-02 -0.239462D-01  0.193140D-02  0.719691D-02 -0.456692D-02
     23  0.112208D-02 -0.145587D-03 -0.261599D-04 -0.155911D-03 -0.137244D-03
     24 -0.220511D-03 -0.352409D-04 -0.599872D-04  0.701694D-04 -0.234195D-03
     25 -0.464552D-02  0.135248D-01 -0.618791D-03 -0.676187D-03  0.168844D-02
     26  0.789982D-03 -0.151610D-01 -0.387203D-03 -0.573359D-03 -0.462403D-03
     27  0.585722D-03  0.225726D-02  0.113099D-02  0.148546D-02  0.134663D-02
     28 -0.332472D-02  0.136416D-01 -0.511616D-03 -0.918345D-03  0.126355D-02
     29  0.211078D-02 -0.150442D-01 -0.280028D-03 -0.815517D-03 -0.887293D-03
     30  0.190652D-02  0.237412D-02  0.123816D-02  0.124330D-02  0.921739D-03
     31 -0.302729D-02 -0.769177D-02 -0.601998D-02 -0.580969D-02  0.865452D-03
     32 -0.408498D-02  0.921794D-02  0.536196D-02  0.512177D-02  0.170942D-02
     33  0.436249D-02 -0.364984D-02 -0.506359D-02 -0.628919D-02  0.426724D-04
     34  0.330480D-02  0.132599D-01  0.631835D-02  0.464226D-02  0.886643D-03
     35  0.122716D-02 -0.121342D-01 -0.594257D-02 -0.527036D-02 -0.136383D-02
     36  0.169469D-03  0.477548D-02  0.543937D-02  0.566109D-02 -0.519862D-03
               11            12            13            14            15 
     11  0.210024D+00
     12 -0.115007D+00  0.168384D+00
     13 -0.252379D-01  0.416222D-02  0.112186D+00
     14  0.317240D-02  0.595199D-03 -0.106244D-02  0.590128D-01
     15  0.239589D-02  0.514813D-02 -0.139065D-02  0.756306D-02  0.626617D-01
     16 -0.147375D-01  0.385810D-02  0.386023D-02 -0.571040D-01 -0.588826D-01
     17 -0.103864D-02 -0.172563D-02  0.414409D-03 -0.127716D-01 -0.123619D-01
     18  0.501623D-02 -0.194170D-02 -0.984902D-03 -0.186571D-01  0.251235D-01
     19  0.558315D-02 -0.551239D-02 -0.101837D-02  0.257771D-01 -0.182187D-01
     20  0.267060D-02 -0.646587D-02  0.303787D-03  0.302380D-03  0.448891D-03
     21 -0.180886D-02 -0.448053D-02  0.111250D-02 -0.226111D-02 -0.546197D-02
     22 -0.484380D-03  0.504706D-02 -0.521142D-03 -0.431938D-03  0.237071D-02
     23 -0.169512D-02  0.212117D-02  0.603061D-03 -0.332379D-02  0.202255D-02
     24  0.179993D-02 -0.182162D-02  0.504151D-03  0.124911D-02 -0.150636D-02
     25 -0.152987D-02 -0.438273D-03  0.519995D-03 -0.997253D-02 -0.736438D-02
     26 -0.640133D-04  0.237843D-03 -0.165006D-03  0.780238D-02  0.109614D-01
     27 -0.852600D-03 -0.781243D-03  0.900584D-04  0.876529D-02 -0.754625D-02
     28  0.195625D-03 -0.117288D-02  0.152639D-03 -0.146948D-01 -0.374555D-02
     29  0.166148D-02 -0.496761D-03 -0.532361D-03  0.308013D-02  0.145802D-01
     30  0.872891D-03 -0.151585D-02 -0.277297D-03  0.404304D-02 -0.392742D-02
     31 -0.456420D-03 -0.448872D-03  0.225177D-03  0.120950D-01 -0.155843D-01
     32 -0.431557D-03 -0.133188D-02  0.488884D-03  0.103063D-01 -0.158125D-01
     33  0.269298D-02 -0.268459D-02 -0.527992D-03 -0.981620D-02  0.981678D-04
     34  0.271785D-02 -0.356760D-02 -0.264285D-03 -0.116049D-01 -0.130038D-03
     35 -0.352266D-02  0.492858D-02  0.362787D-03  0.818774D-03  0.120143D-01
     36 -0.349780D-02  0.404557D-02  0.626495D-03 -0.969876D-03  0.117861D-01
               16            17            18            19            20 
     16  0.176927D+00
     17  0.322205D-01  0.247573D-01
     18 -0.488337D-01 -0.153898D-01  0.612452D-01
     19 -0.518481D-01 -0.168092D-01 -0.312861D-02  0.628580D-01
     20 -0.106248D-01 -0.392205D-02  0.631775D-02  0.727210D-02  0.147030D+00
     21  0.145701D-01  0.275913D-02 -0.724272D-02 -0.288448D-02 -0.361717D-01
     22  0.127393D-02  0.896798D-03  0.724377D-03 -0.455108D-02 -0.537095D-01
     23  0.112447D-02  0.159791D-03  0.166620D-02 -0.166533D-02 -0.564753D-03
     24  0.318515D-03 -0.679292D-04 -0.642451D-03  0.583214D-03  0.397264D-03
     25  0.844530D-02 -0.811365D-02  0.145774D-01  0.515320D-03  0.185055D-02
     26 -0.963362D-02  0.840104D-02 -0.728274D-03 -0.145394D-01 -0.230543D-02
     27 -0.117220D-02 -0.303094D-03 -0.188982D-01  0.188462D-01  0.320730D-03
     28  0.898403D-02 -0.786167D-02  0.170947D-01 -0.163889D-02  0.100743D-02
     29 -0.909489D-02  0.865301D-02  0.178903D-02 -0.166936D-01 -0.314856D-02
     30 -0.633477D-03 -0.511204D-04 -0.163809D-01  0.166920D-01 -0.522392D-03
     31  0.427865D-02  0.625281D-03 -0.680810D-02  0.475149D-02 -0.501550D-02
     32  0.808892D-02  0.887127D-03 -0.630424D-02  0.207481D-02  0.310545D-02
     33 -0.167865D-01  0.436731D-02  0.104749D-01  0.113018D-01 -0.204684D-02
     34 -0.129763D-01  0.462916D-02  0.109787D-01  0.862510D-02  0.607411D-02
     35  0.132478D-01 -0.474368D-02 -0.976993D-02 -0.107164D-01 -0.666441D-02
     36  0.170581D-01 -0.448183D-02 -0.926607D-02 -0.133931D-01  0.145654D-02
               21            22            23            24            25 
     21  0.141475D+00
     22 -0.491527D-01  0.585241D-01
     23  0.217148D-03  0.111397D-05  0.137768D-01
     24 -0.482645D-04  0.101719D-03  0.175332D-02  0.124053D-01
     25 -0.174834D-03 -0.468337D-03 -0.623735D-02  0.537821D-02  0.176799D-01
     26 -0.624876D-03  0.144170D-02 -0.675555D-02  0.522054D-02  0.614435D-04
     27  0.139029D-02 -0.184869D-02 -0.678090D-02  0.515276D-02  0.117822D-02
     28  0.154038D-03 -0.671751D-03  0.621639D-02 -0.565131D-02  0.556997D-02
     29 -0.296003D-03  0.123828D-02  0.569819D-02 -0.580897D-02 -0.120484D-01
     30  0.171917D-02 -0.205211D-02  0.567284D-02 -0.587676D-02 -0.109317D-01
     31 -0.891540D-03 -0.339008D-02 -0.111349D-02  0.546371D-03  0.178869D-02
     32  0.391339D-02  0.243931D-02 -0.135185D-02  0.909580D-03  0.233114D-02
     33 -0.355569D-02 -0.426097D-02  0.121801D-02 -0.858503D-03 -0.155287D-02
     34  0.124923D-02  0.156842D-02  0.979648D-03 -0.495294D-03 -0.101042D-02
     35  0.148229D-05 -0.259716D-02  0.107332D-02 -0.751458D-03 -0.152673D-02
     36  0.480641D-02  0.323223D-02  0.834961D-03 -0.388249D-03 -0.984274D-03
               26            27            28            29            30 
     26  0.185994D-01
     27  0.166291D-02  0.193813D-01
     28 -0.124131D-01 -0.112461D-01  0.179506D-01
     29  0.612491D-02 -0.107614D-01 -0.324799D-04  0.181409D-01
     30 -0.108116D-01  0.695700D-02  0.113452D-02  0.125458D-02  0.190232D-01
     31  0.127846D-02 -0.396078D-03  0.614351D-04 -0.448791D-03 -0.212333D-02
     32  0.113857D-02 -0.160767D-02 -0.612451D-05 -0.119869D-02 -0.394494D-02
     33 -0.130590D-02  0.220642D-02  0.699761D-03  0.946728D-03  0.445905D-02
     34 -0.144579D-02  0.994827D-03  0.632201D-03  0.196826D-03  0.263745D-02
     35 -0.105307D-02  0.192285D-02  0.229079D-03  0.702735D-03  0.367865D-02
     36 -0.119296D-02  0.711252D-03  0.161519D-03 -0.471667D-04  0.185705D-02
               31            32            33            34            35 
     31  0.137950D-01
     32  0.560622D-02  0.132586D-01
     33 -0.271245D-03 -0.926832D-02  0.174134D-01
     34 -0.846007D-02 -0.161590D-02  0.841635D-02  0.152605D-01
     35  0.165258D-03 -0.756313D-02 -0.377321D-02 -0.115016D-01  0.169841D-01
     36 -0.802357D-02  0.892911D-04 -0.127703D-01 -0.465743D-02  0.925575D-02
               36 
     36  0.173686D-01
 Leave Link  716 at Tue Nov 30 11:30:20 2021, MaxMem=  7784628224 cpu:               0.5 elap:               0.0
 (Enter /cm/shared/gaussian/versions/g16.c01/intel64-sandybridge/g16/l103.exe)

 GradGradGradGradGradGradGradGradGradGradGradGradGradGradGradGradGradGrad
 Berny optimization.
 Red2BG is reusing G-inverse.
 Internal  Forces:  Max     0.034251638 RMS     0.008289474
 Search for a local minimum.
 Step number   1 out of a maximum of  100
 All quantities printed in internal units (Hartrees-Bohrs-Radians)
 RMS Force = .82895D-02 SwitMx=.10000D-02 MixMth= 1
 Mixed Optimization -- RFO/linear search
 Second derivative matrix not updated -- analytic derivatives used.
 ITU=  0
     Eigenvalues ---   -0.00023   0.00361   0.01483   0.02685   0.04240
     Eigenvalues ---    0.05118   0.05580   0.08552   0.10274   0.12797
     Eigenvalues ---    0.14501   0.17329   0.18590   0.22226   0.25856
     Eigenvalues ---    0.31078   0.32061   0.34691   0.38398   0.38940
     Eigenvalues ---    0.44828   0.45786   0.53674   0.91123
 Eigenvalue     1 is  -2.33D-04 should be greater than     0.000000 Eigenvector:
                          D12       D11       D14       D10       D13
   1                    0.39842   0.38537   0.38127   0.37566   0.36822
                          D9        D8        D6        D7        D5
   1                    0.36261  -0.16839  -0.16567  -0.15631  -0.14046
 RFO step:  Lambda=-1.18259940D-02 EMin=-2.32819096D-04
 Linear search not attempted -- first point.
 Maximum step size (   0.070) exceeded in Quadratic search.
    -- Step size scaled by   0.237
 Iteration  1 RMS(Cart)=  0.03708025 RMS(Int)=  0.00121551
 Iteration  2 RMS(Cart)=  0.00125504 RMS(Int)=  0.00000503
 Iteration  3 RMS(Cart)=  0.00000140 RMS(Int)=  0.00000493
 Iteration  4 RMS(Cart)=  0.00000000 RMS(Int)=  0.00000493
 ITry= 1 IFail=0 DXMaxC= 1.31D-01 DCOld= 1.00D+10 DXMaxT= 7.00D-02 DXLimC= 3.00D+00 Rises=F
 Variable       Old X    -DE/DX   Delta X   Delta X   Delta X     New X
                                 (Linear)    (Quad)   (Total)
    R1        2.55994  -0.01027   0.00000  -0.00242  -0.00242   2.55752
    R2        2.87400  -0.00790   0.00000  -0.00642  -0.00642   2.86757
    R3        2.26197   0.01354   0.00000   0.00271   0.00271   2.26468
    R4        1.81414   0.00156   0.00000   0.00330   0.00330   1.81744
    R5        2.07808  -0.00092   0.00000   0.00144   0.00144   2.07952
    R6        2.07274  -0.00205   0.00000  -0.00253  -0.00253   2.07021
    R7        2.73942   0.00152   0.00000   0.00089   0.00089   2.74030
    R8        1.91538  -0.00016   0.00000  -0.00043  -0.00043   1.91495
    R9        1.90763  -0.00016   0.00000   0.00032   0.00032   1.90795
    A1        2.01625  -0.02208   0.00000  -0.01529  -0.01529   2.00096
    A2        2.10135   0.02060   0.00000   0.01045   0.01044   2.11179
    A3        2.16528   0.00148   0.00000   0.00472   0.00472   2.16999
    A4        2.09440  -0.03425   0.00000  -0.06164  -0.06164   2.03276
    A5        1.84913   0.00042   0.00000  -0.00463  -0.00462   1.84451
    A6        1.89269  -0.00020   0.00000   0.00251   0.00251   1.89520
    A7        1.93761  -0.00294   0.00000  -0.00463  -0.00463   1.93298
    A8        1.85691  -0.00088   0.00000   0.00037   0.00037   1.85728
    A9        1.98912   0.00129   0.00000   0.00605   0.00603   1.99516
   A10        1.93324   0.00226   0.00000   0.00030   0.00029   1.93354
   A11        1.90717   0.00161   0.00000   0.00270   0.00270   1.90987
   A12        1.95285  -0.00142   0.00000  -0.00181  -0.00181   1.95104
   A13        1.89682  -0.00033   0.00000   0.00135   0.00135   1.89817
    D1        3.07502   0.00062   0.00000  -0.00294  -0.00295   3.07207
    D2       -0.04095   0.00035   0.00000   0.00192   0.00193  -0.03902
    D3       -1.21355   0.00005   0.00000  -0.03062  -0.03062  -1.24417
    D4        0.77391  -0.00085   0.00000  -0.03131  -0.03131   0.74260
    D5        2.90157  -0.00003   0.00000  -0.03221  -0.03222   2.86935
    D6        1.90136   0.00062   0.00000  -0.03561  -0.03560   1.86576
    D7       -2.39437  -0.00027   0.00000  -0.03630  -0.03630  -2.43066
    D8       -0.26671   0.00055   0.00000  -0.03720  -0.03720  -0.30391
    D9        0.37725   0.00020   0.00000   0.08763   0.08762   0.46487
   D10        2.47876  -0.00004   0.00000   0.08997   0.08996   2.56872
   D11       -1.70898   0.00090   0.00000   0.09280   0.09281  -1.61617
   D12        0.39254   0.00067   0.00000   0.09514   0.09515   0.48768
   D13        2.48108  -0.00050   0.00000   0.08791   0.08790   2.56898
   D14       -1.70059  -0.00074   0.00000   0.09025   0.09024  -1.61035
         Item               Value     Threshold  Converged?
 Maximum Force            0.034252     0.000002     NO 
 RMS     Force            0.008289     0.000001     NO 
 Maximum Displacement     0.131327     0.000006     NO 
 RMS     Displacement     0.037217     0.000004     NO 
 Predicted change in Energy=-2.561724D-03
 Lowest energy point so far.  Saving SCF results.
 GradGradGradGradGradGradGradGradGradGradGradGradGradGradGradGradGradGrad

 Leave Link  103 at Tue Nov 30 11:30:20 2021, MaxMem=  7784628224 cpu:               0.3 elap:               0.0
 (Enter /cm/shared/gaussian/versions/g16.c01/intel64-sandybridge/g16/l202.exe)
                          Input orientation:                          
 ---------------------------------------------------------------------
 Center     Atomic      Atomic             Coordinates (Angstroms)
 Number     Number       Type             X           Y           Z
 ---------------------------------------------------------------------
      1          6    20001002       -0.557263    0.149098    0.014375
      2          8    20001022       -1.725169   -0.529745   -0.068143
      3          6    20001001        0.679581   -0.726627    0.091784
      4          1    20001034        0.659310   -1.182160    1.093302
      5          1    20001034        0.570916   -1.548480   -0.624377
      6          7    20001020        1.874377    0.045748   -0.188759
      7          1    20001029        1.712902    1.016356    0.053559
      8          1    20001029        2.669785   -0.291343    0.333809
      9          8    20001025       -0.541026    1.346735    0.054364
     10          1    20001031       -2.529225   -0.002146   -0.058783
 ---------------------------------------------------------------------
                    Distance matrix (angstroms):
                    1          2          3          4          5
     1  C    0.000000
     2  O    1.353382   0.000000
     3  C    1.517455   2.418091   0.000000
     4  H    2.101519   2.731362   1.100436   0.000000
     5  H    2.136016   2.572786   1.095508   1.758528   0.000000
     6  N    2.442297   3.647255   1.450105   2.151238   2.104836
     7  H    2.430498   3.771681   2.026623   2.650395   2.888272
     8  H    3.272593   4.419731   2.051575   2.326455   2.627501
     9  O    1.198415   2.222247   2.406265   2.985885   3.174804
    10  H    1.979106   0.961745   3.293020   3.589776   3.510260
                    6          7          8          9         10
     6  N    0.000000
     7  H    1.013347   0.000000
     8  H    1.009644   1.644457   0.000000
     9  O    2.754241   2.278013   3.615341   0.000000
    10  H    4.405780   4.364128   5.221826   2.405249   0.000000
 Stoichiometry    C2H5NO2
 Framework group  C1[X(C2H5NO2)]
 Deg. of freedom    24
 Full point group                 C1      NOp   1
 RotChk:  IX=0 Diff= 1.45D-02
 Largest Abelian subgroup         C1      NOp   1
 Largest concise Abelian subgroup C1      NOp   1
                         Standard orientation:                         
 ---------------------------------------------------------------------
 Center     Atomic      Atomic             Coordinates (Angstroms)
 Number     Number       Type             X           Y           Z
 ---------------------------------------------------------------------
      1          6    20001002       -0.531866    0.092003    0.014421
      2          8    20001022       -1.669878   -0.636146   -0.065387
      3          6    20001001        0.741181   -0.730082    0.093141
      4          1    20001034        0.741001   -1.183407    1.095866
      5          1    20001034        0.667104   -1.557713   -0.620775
      6          7    20001020        1.901830    0.091695   -0.190376
      7          1    20001029        1.699358    1.055190    0.049526
      8          1    20001029        2.711220   -0.209852    0.332441
      9          8    20001025       -0.566588    1.289348    0.051258
     10          1    20001031       -2.495654   -0.143222   -0.056771
 ---------------------------------------------------------------------
 Rotational constants (GHZ):          10.7346984           3.8798679           2.9294538
 Leave Link  202 at Tue Nov 30 11:30:20 2021, MaxMem=  7784628224 cpu:               0.4 elap:               0.1
 (Enter /cm/shared/gaussian/versions/g16.c01/intel64-sandybridge/g16/l301.exe)
 Standard basis: def2TZVPP (5D, 7F)
 Ernie: Thresh=  0.10000D-02 Tol=  0.10000D-05 Strict=F.
 There are   255 symmetry adapted cartesian basis functions of A   symmetry.
 There are   225 symmetry adapted basis functions of A   symmetry.
   225 basis functions,   340 primitive gaussians,   255 cartesian basis functions
    20 alpha electrons       20 beta electrons
       nuclear repulsion energy       179.6896221088 Hartrees.
 IExCor=  402 DFT=T Ex+Corr=B3LYP ExCW=0 ScaHFX=  0.200000
 ScaDFX=  0.800000  0.720000  1.000000  0.810000 ScalE2=  1.000000  1.000000
 IRadAn=      5 IRanWt=     -1 IRanGd=            0 ICorTp=0 IEmpDi=  4
 NAtoms=   10 NActive=   10 NUniq=   10 SFac= 1.00D+00 NAtFMM=   60 NAOKFM=F Big=F
 Integral buffers will be    131072 words long.
 Raffenetti 2 integral format.
 Two-electron integral symmetry is turned on.
 Leave Link  301 at Tue Nov 30 11:30:21 2021, MaxMem=  7784628224 cpu:               1.0 elap:               0.1
 (Enter /cm/shared/gaussian/versions/g16.c01/intel64-sandybridge/g16/l302.exe)
 NPDir=0 NMtPBC=     1 NCelOv=     1 NCel=       1 NClECP=     1 NCelD=      1
         NCelK=      1 NCelE2=     1 NClLst=     1 CellRange=     0.0.
 One-electron integrals computed using PRISM.
 One-electron integral symmetry used in STVInt
   1 Symmetry operations used in ECPInt.
 ECPInt:  NShTT=    3655 NPrTT=    9995 LenC2=    3616 LenP2D=    8449.
 LDataN:  DoStor=T MaxTD1= 6 Len=  172
 NBasis=   225 RedAO= T EigKep=  3.10D-04  NBF=   225
 NBsUse=   225 1.00D-06 EigRej= -1.00D+00 NBFU=   225
 Precomputing XC quadrature grid using
 IXCGrd= 4 IRadAn=           5 IRanWt=          -1 IRanGd=           0 AccXCQ= 0.00D+00.
 Generated NRdTot=       0 NPtTot=           0 NUsed=           0 NTot=          32
 NSgBfM=   254   254   254   254   254 MxSgAt=    10 MxSgA2=    10.
 Leave Link  302 at Tue Nov 30 11:30:21 2021, MaxMem=  7784628224 cpu:               5.4 elap:               0.4
 (Enter /cm/shared/gaussian/versions/g16.c01/intel64-sandybridge/g16/l303.exe)
 DipDrv:  MaxL=1.
 Leave Link  303 at Tue Nov 30 11:30:21 2021, MaxMem=  7784628224 cpu:               0.5 elap:               0.1
 (Enter /cm/shared/gaussian/versions/g16.c01/intel64-sandybridge/g16/l401.exe)
 Initial guess from the checkpoint file:  "gly_qm_2.chk"
 B after Tr=    -0.000000   -0.000000   -0.000000
         Rot=    0.999998    0.001552   -0.000058   -0.001220 Ang=   0.23 deg.
 Guess basis will be translated and rotated to current coordinates.
 JPrj=2 DoOrth=T DoCkMO=T.
 Generating alternative initial guess.
 ExpMin= 9.52D-02 ExpMax= 2.70D+04 ExpMxC= 9.22D+02 IAcc=3 IRadAn=         5 AccDes= 0.00D+00
 Harris functional with IExCor=  402 and IRadAn=       5 diagonalized for initial guess.
 HarFok:  IExCor=  402 AccDes= 0.00D+00 IRadAn=         5 IDoV= 1 UseB2=F ITyADJ=14
 ICtDFT=  3500011 ScaDFX=  1.000000  1.000000  1.000000  1.000000
 FoFCou: FMM=F IPFlag=           0 FMFlag=      100000 FMFlg1=           0
         NFxFlg=           0 DoJE=T BraDBF=F KetDBF=T FulRan=T
         wScrn=  0.000000 ICntrl=       500 IOpCl=  0 I1Cent=   200000004 NGrid=           0
         NMat0=    1 NMatS0=      1 NMatT0=    0 NMatD0=    1 NMtDS0=    0 NMtDT0=    0
 Petite list used in FoFCou.
 Harris En= -284.588571795268    
 Leave Link  401 at Tue Nov 30 11:30:22 2021, MaxMem=  7784628224 cpu:              11.9 elap:               0.8
 (Enter /cm/shared/gaussian/versions/g16.c01/intel64-sandybridge/g16/l502.exe)
 Keep R1 ints in memory in canonical form, NReq=340578703.
 FoFCou: FMM=F IPFlag=           0 FMFlag=           0 FMFlg1=           0
         NFxFlg=           0 DoJE=F BraDBF=F KetDBF=F FulRan=T
         wScrn=  0.000000 ICntrl=       600 IOpCl=  0 I1Cent=           0 NGrid=           0
         NMat0=    1 NMatS0=  25425 NMatT0=    0 NMatD0=    1 NMtDS0=    0 NMtDT0=    0
 Symmetry not used in FoFCou.
 Two-electron integral symmetry not used.
 Closed shell SCF:
 Using DIIS extrapolation, IDIIS=  1040.
 NGot=  7784628224 LenX=  7461263523 LenY=  7461198057
 Requested convergence on RMS density matrix=1.00D-08 within 128 cycles.
 Requested convergence on MAX density matrix=1.00D-06.
 Requested convergence on             energy=1.00D-06.
 No special actions if energy rises.
 Integral accuracy reduced to 1.0D-05 until final iterations.

 Cycle   1  Pass 0  IDiag  1:
 E= -284.555288855890    
 DIIS: error= 2.09D-03 at cycle   1 NSaved=   1.
 NSaved= 1 IEnMin= 1 EnMin= -284.555288855890     IErMin= 1 ErrMin= 2.09D-03
 ErrMax= 2.09D-03  0.00D+00 EMaxC= 1.00D-01 BMatC= 1.53D-03 BMatP= 1.53D-03
 IDIUse=3 WtCom= 9.79D-01 WtEn= 2.09D-02
 Coeff-Com:  0.100D+01
 Coeff-En:   0.100D+01
 Coeff:      0.100D+01
 Gap=     0.801 Goal=   None    Shift=    0.000
 GapD=    0.801 DampG=2.000 DampE=1.000 DampFc=2.0000 IDamp=-1.
 RMSDP=2.06D-04 MaxDP=6.42D-03              OVMax= 2.02D-02

 Cycle   2  Pass 0  IDiag  1:
 E= -284.557011597349     Delta-E=       -0.001722741459 Rises=F Damp=F
 DIIS: error= 2.80D-04 at cycle   2 NSaved=   2.
 NSaved= 2 IEnMin= 2 EnMin= -284.557011597349     IErMin= 2 ErrMin= 2.80D-04
 ErrMax= 2.80D-04  0.00D+00 EMaxC= 1.00D-01 BMatC= 2.18D-05 BMatP= 1.53D-03
 IDIUse=3 WtCom= 9.97D-01 WtEn= 2.80D-03
 Coeff-Com: -0.330D-01 0.103D+01
 Coeff-En:   0.000D+00 0.100D+01
 Coeff:     -0.329D-01 0.103D+01
 Gap=     0.247 Goal=   None    Shift=    0.000
 RMSDP=4.23D-05 MaxDP=1.31D-03 DE=-1.72D-03 OVMax= 2.40D-03

 Cycle   3  Pass 0  IDiag  1:
 E= -284.557022885681     Delta-E=       -0.000011288332 Rises=F Damp=F
 DIIS: error= 1.92D-04 at cycle   3 NSaved=   3.
 NSaved= 3 IEnMin= 3 EnMin= -284.557022885681     IErMin= 3 ErrMin= 1.92D-04
 ErrMax= 1.92D-04  0.00D+00 EMaxC= 1.00D-01 BMatC= 1.88D-05 BMatP= 2.18D-05
 IDIUse=3 WtCom= 9.98D-01 WtEn= 1.92D-03
 Coeff-Com: -0.249D-01 0.511D+00 0.514D+00
 Coeff-En:   0.000D+00 0.265D+00 0.735D+00
 Coeff:     -0.248D-01 0.511D+00 0.514D+00
 Gap=     0.245 Goal=   None    Shift=    0.000
 RMSDP=2.01D-05 MaxDP=7.57D-04 DE=-1.13D-05 OVMax= 1.25D-03

 Cycle   4  Pass 0  IDiag  1:
 E= -284.557035985727     Delta-E=       -0.000013100046 Rises=F Damp=F
 DIIS: error= 1.07D-04 at cycle   4 NSaved=   4.
 NSaved= 4 IEnMin= 4 EnMin= -284.557035985727     IErMin= 4 ErrMin= 1.07D-04
 ErrMax= 1.07D-04  0.00D+00 EMaxC= 1.00D-01 BMatC= 2.97D-06 BMatP= 1.88D-05
 IDIUse=3 WtCom= 9.99D-01 WtEn= 1.07D-03
 Coeff-Com: -0.105D-01 0.184D+00 0.307D+00 0.519D+00
 Coeff-En:   0.000D+00 0.000D+00 0.724D-01 0.928D+00
 Coeff:     -0.105D-01 0.184D+00 0.307D+00 0.520D+00
 Gap=     0.245 Goal=   None    Shift=    0.000
 RMSDP=6.01D-06 MaxDP=2.44D-04 DE=-1.31D-05 OVMax= 6.58D-04

 Initial convergence to 1.0D-05 achieved.  Increase integral accuracy.
 Cycle   5  Pass 1  IDiag  1:
 E= -284.557039355010     Delta-E=       -0.000003369283 Rises=F Damp=F
 DIIS: error= 4.78D-05 at cycle   1 NSaved=   1.
 NSaved= 1 IEnMin= 1 EnMin= -284.557039355010     IErMin= 1 ErrMin= 4.78D-05
 ErrMax= 4.78D-05  0.00D+00 EMaxC= 1.00D-01 BMatC= 4.44D-07 BMatP= 4.44D-07
 IDIUse=1 WtCom= 1.00D+00 WtEn= 0.00D+00
 Coeff-Com:  0.100D+01
 Coeff:      0.100D+01
 Gap=     0.246 Goal=   None    Shift=    0.000
 RMSDP=6.01D-06 MaxDP=2.44D-04 DE=-3.37D-06 OVMax= 6.27D-04

 Cycle   6  Pass 1  IDiag  1:
 E= -284.557038288296     Delta-E=        0.000001066714 Rises=F Damp=F
 DIIS: error= 1.06D-04 at cycle   2 NSaved=   2.
 NSaved= 2 IEnMin= 1 EnMin= -284.557039355010     IErMin= 1 ErrMin= 4.78D-05
[...]
     35 -0.907803D-03  0.156171D-02 -0.508011D-04  0.538113D-03  0.300762D-02
     36 -0.117433D-02  0.767934D-03 -0.142205D-03 -0.709300D-04  0.187133D-02
               31            32            33            34            35 
     31  0.136453D-01
     32  0.585130D-02  0.136749D-01
     33 -0.303849D-03 -0.901671D-02  0.179898D-01
     34 -0.809788D-02 -0.119314D-02  0.927691D-02  0.161817D-01
     35 -0.360404D-03 -0.785097D-02 -0.385213D-02 -0.113427D-01  0.165156D-01
     36 -0.815444D-02 -0.274067D-04 -0.125650D-01 -0.443796D-02  0.902500D-02
               36 
     36  0.171520D-01
 Leave Link  716 at Tue Nov 30 11:41:48 2021, MaxMem=  7784628224 cpu:               0.6 elap:               0.1
 (Enter /cm/shared/gaussian/versions/g16.c01/intel64-sandybridge/g16/l103.exe)

 GradGradGradGradGradGradGradGradGradGradGradGradGradGradGradGradGradGrad
 Berny optimization.
 Red2BG is reusing G-inverse.
 Internal  Forces:  Max     0.000000209 RMS     0.000000051
 Search for a local minimum.
 Step number   1 out of a maximum of    2
 All quantities printed in internal units (Hartrees-Bohrs-Radians)
 Second derivative matrix not updated -- analytic derivatives used.
 ITU=  0
     Eigenvalues ---    0.00083   0.00317   0.01945   0.02663   0.04386
     Eigenvalues ---    0.05151   0.05644   0.08550   0.12725   0.14520
     Eigenvalues ---    0.14983   0.17026   0.19773   0.22785   0.25630
     Eigenvalues ---    0.30800   0.32946   0.34494   0.37736   0.40365
     Eigenvalues ---    0.45047   0.45643   0.51250   0.87296
 Angle between quadratic step and forces=  90.00 degrees.
 Linear search not attempted -- first point.
 Iteration  1 RMS(Cart)=  0.00000032 RMS(Int)=  0.00000000
 ITry= 1 IFail=0 DXMaxC= 9.89D-07 DCOld= 1.00D+10 DXMaxT= 7.00D-02 DXLimC= 3.00D+00 Rises=F
 Variable       Old X    -DE/DX   Delta X   Delta X   Delta X     New X
                                 (Linear)    (Quad)   (Total)
    R1        2.55286  -0.00000   0.00000  -0.00000  -0.00000   2.55285
    R2        2.85249  -0.00000   0.00000  -0.00000  -0.00000   2.85249
    R3        2.27318   0.00000   0.00000   0.00000   0.00000   2.27318
    R4        1.82891  -0.00000   0.00000  -0.00000  -0.00000   1.82891
    R5        2.08007  -0.00000   0.00000  -0.00000  -0.00000   2.08007
    R6        2.06359  -0.00000   0.00000  -0.00000  -0.00000   2.06359
    R7        2.74351   0.00000   0.00000   0.00000   0.00000   2.74351
    R8        1.91369   0.00000   0.00000   0.00000   0.00000   1.91369
    R9        1.90876  -0.00000   0.00000  -0.00000  -0.00000   1.90876
    A1        1.94980   0.00000   0.00000   0.00000   0.00000   1.94980
    A2        2.14707  -0.00000   0.00000  -0.00000  -0.00000   2.14707
    A3        2.18583  -0.00000   0.00000  -0.00000  -0.00000   2.18583
    A4        1.87144   0.00000   0.00000   0.00000   0.00000   1.87144
    A5        1.83958  -0.00000   0.00000  -0.00000  -0.00000   1.83958
    A6        1.89148  -0.00000   0.00000   0.00000   0.00000   1.89148
    A7        1.93046   0.00000   0.00000   0.00000   0.00000   1.93046
    A8        1.85394   0.00000   0.00000   0.00000   0.00000   1.85394
    A9        2.00477  -0.00000   0.00000  -0.00000  -0.00000   2.00477
   A10        1.93745  -0.00000   0.00000  -0.00000  -0.00000   1.93745
   A11        1.91981   0.00000   0.00000   0.00000   0.00000   1.91981
   A12        1.94466   0.00000   0.00000   0.00000   0.00000   1.94466
   A13        1.89587  -0.00000   0.00000  -0.00000  -0.00000   1.89587
    D1        3.09264  -0.00000   0.00000  -0.00000  -0.00000   3.09264
    D2       -0.01720   0.00000   0.00000   0.00000   0.00000  -0.01720
    D3       -1.25365   0.00000   0.00000   0.00000   0.00000  -1.25365
    D4        0.72522   0.00000   0.00000   0.00000   0.00000   0.72522
    D5        2.85281   0.00000   0.00000   0.00000   0.00000   2.85281
    D6        1.85534   0.00000   0.00000   0.00000   0.00000   1.85534
    D7       -2.44897  -0.00000   0.00000   0.00000   0.00000  -2.44897
    D8       -0.32138   0.00000   0.00000   0.00000   0.00000  -0.32138
    D9        0.60481  -0.00000   0.00000   0.00000   0.00000   0.60482
   D10        2.70830  -0.00000   0.00000   0.00000   0.00000   2.70830
   D11       -1.47459   0.00000   0.00000   0.00000   0.00000  -1.47459
   D12        0.62890   0.00000   0.00000   0.00000   0.00000   0.62890
   D13        2.70515   0.00000   0.00000   0.00000   0.00000   2.70515
   D14       -1.47455   0.00000   0.00000   0.00000   0.00000  -1.47455
         Item               Value     Threshold  Converged?
 Maximum Force            0.000000     0.000002     YES
 RMS     Force            0.000000     0.000001     YES
 Maximum Displacement     0.000001     0.000006     YES
 RMS     Displacement     0.000000     0.000004     YES
 Predicted change in Energy=-1.361670D-13
 Optimization completed.
    -- Stationary point found.
                           ----------------------------
                           !   Optimized Parameters   !
                           ! (Angstroms and Degrees)  !
 --------------------------                            --------------------------
 ! Name  Definition              Value          Derivative Info.                !
 --------------------------------------------------------------------------------
 ! R1    R(1,2)                  1.3509         -DE/DX =    0.0                 !
 ! R2    R(1,3)                  1.5095         -DE/DX =    0.0                 !
 ! R3    R(1,9)                  1.2029         -DE/DX =    0.0                 !
 ! R4    R(2,10)                 0.9678         -DE/DX =    0.0                 !
 ! R5    R(3,4)                  1.1007         -DE/DX =    0.0                 !
 ! R6    R(3,5)                  1.092          -DE/DX =    0.0                 !
 ! R7    R(3,6)                  1.4518         -DE/DX =    0.0                 !
 ! R8    R(6,7)                  1.0127         -DE/DX =    0.0                 !
 ! R9    R(6,8)                  1.0101         -DE/DX =    0.0                 !
 ! A1    A(2,1,3)              111.7154         -DE/DX =    0.0                 !
 ! A2    A(2,1,9)              123.0182         -DE/DX =    0.0                 !
 ! A3    A(3,1,9)              125.2388         -DE/DX =    0.0                 !
 ! A4    A(1,2,10)             107.2257         -DE/DX =    0.0                 !
 ! A5    A(1,3,4)              105.4003         -DE/DX =    0.0                 !
 ! A6    A(1,3,5)              108.3736         -DE/DX =    0.0                 !
 ! A7    A(1,3,6)              110.6071         -DE/DX =    0.0                 !
 ! A8    A(4,3,5)              106.2232         -DE/DX =    0.0                 !
 ! A9    A(4,3,6)              114.8648         -DE/DX =    0.0                 !
 ! A10   A(5,3,6)              111.0079         -DE/DX =    0.0                 !
 ! A11   A(3,6,7)              109.9969         -DE/DX =    0.0                 !
 ! A12   A(3,6,8)              111.4207         -DE/DX =    0.0                 !
 ! A13   A(7,6,8)              108.6253         -DE/DX =    0.0                 !
 ! D1    D(3,1,2,10)           177.195          -DE/DX =    0.0                 !
 ! D2    D(9,1,2,10)            -0.9856         -DE/DX =    0.0                 !
 ! D3    D(2,1,3,4)            -71.8288         -DE/DX =    0.0                 !
 ! D4    D(2,1,3,5)             41.552          -DE/DX =    0.0                 !
 ! D5    D(2,1,3,6)            163.454          -DE/DX =    0.0                 !
 ! D6    D(9,1,3,4)            106.3033         -DE/DX =    0.0                 !
 ! D7    D(9,1,3,5)           -140.3159         -DE/DX =    0.0                 !
 ! D8    D(9,1,3,6)            -18.4139         -DE/DX =    0.0                 !
 ! D9    D(1,3,6,7)             34.6533         -DE/DX =    0.0                 !
 ! D10   D(1,3,6,8)            155.1742         -DE/DX =    0.0                 !
 ! D11   D(4,3,6,7)            -84.4877         -DE/DX =    0.0                 !
 ! D12   D(4,3,6,8)             36.0332         -DE/DX =    0.0                 !
 ! D13   D(5,3,6,7)            154.9937         -DE/DX =    0.0                 !
 ! D14   D(5,3,6,8)            -84.4855         -DE/DX =    0.0                 !
 --------------------------------------------------------------------------------
 GradGradGradGradGradGradGradGradGradGradGradGradGradGradGradGradGradGrad

 Leave Link  103 at Tue Nov 30 11:41:48 2021, MaxMem=  7784628224 cpu:               1.1 elap:               0.1
 (Enter /cm/shared/gaussian/versions/g16.c01/intel64-sandybridge/g16/l9999.exe)

 ----------------------------------------------------------------------

 Electric dipole moment (input orientation):
 (Debye = 10**-18 statcoulomb cm , SI units = C m)
                  (au)            (Debye)         (10**-30 SI)
   Tot        0.792851D+00      0.201523D+01      0.672207D+01
   x         -0.809786D-01     -0.205827D+00     -0.686566D+00
   y         -0.605198D+00     -0.153826D+01     -0.513108D+01
   z          0.505759D+00      0.128551D+01      0.428800D+01

 Dipole polarizability, Alpha (input orientation).
 (esu units = cm**3 , SI units = C**2 m**2 J**-1)
 Alpha(0;0):
               (au)            (10**-24 esu)      (10**-40 SI)
   iso        0.398751D+02      0.590888D+01      0.657452D+01
   aniso      0.153235D+02      0.227072D+01      0.252651D+01
   xx         0.471299D+02      0.698393D+01      0.777067D+01
   yx         0.458403D+00      0.679283D-01      0.755805D-01
   yy         0.424212D+02      0.628618D+01      0.699432D+01
   zx         0.547696D+00      0.811601D-01      0.903028D-01
   zy        -0.417217D+00     -0.618252D-01     -0.687898D-01
   zz         0.300742D+02      0.445654D+01      0.495857D+01

 ----------------------------------------------------------------------

 Dipole orientation:
     6         -1.08870701          0.25239741         -0.09443419
     8         -3.14767309         -0.67347398          1.09740923
     6          1.32742468         -0.77423544          1.02138852
     1          1.51699081          0.15125676          2.87454803
     1          1.06387593         -2.78460882          1.40523977
     7          3.43137049         -0.36757765         -0.69175590
     1          3.20331765          1.28620173         -1.62728696
     1          5.09321666         -0.31355709          0.24563995
     8         -1.21296278          1.76115267         -1.79017990
     1         -4.61241414          0.12345986          0.34617990

 Electric dipole moment (dipole orientation):
 (Debye = 10**-18 statcoulomb cm , SI units = C m)
                  (au)            (Debye)         (10**-30 SI)
   Tot        0.792851D+00      0.201523D+01      0.672207D+01
   x          0.000000D+00      0.000000D+00      0.000000D+00
   y          0.000000D+00      0.000000D+00      0.000000D+00
   z          0.792851D+00      0.201523D+01      0.672207D+01

 Dipole polarizability, Alpha (dipole orientation).
 (esu units = cm**3 , SI units = C**2 m**2 J**-1)
 Alpha(0;0):
               (au)            (10**-24 esu)      (10**-40 SI)
   iso        0.398751D+02      0.590888D+01      0.657452D+01
   aniso      0.153235D+02      0.227072D+01      0.252651D+01
   xx         0.470132D+02      0.696663D+01      0.775142D+01
   yx        -0.490364D+00     -0.726644D-01     -0.808501D-01
   yy         0.347596D+02      0.515084D+01      0.573108D+01
   zx        -0.124112D+01     -0.183915D+00     -0.204633D+00
   zy        -0.599032D+01     -0.887674D+00     -0.987671D+00
   zz         0.378526D+02      0.560917D+01      0.624105D+01

 ----------------------------------------------------------------------
 Unable to Open any file for archive entry.
 1\1\GINC-CURIE22\Freq\RB3LYP\def2TZVPP\C2H5N1O2\E.FALBO\30-Nov-2021\0\
 \#P Geom=AllCheck Guess=TCheck SCRF=Check GenChk RB3LYP/def2TZVPP Freq
 \\Title Card Required\\0,1\C,-0.5737031149,0.1516177213,0.0112311903\O
 ,-1.6974173506,-0.5936010339,-0.0717192209\C,0.6622666579,-0.709966655
 4,0.1037886905\H,0.6384706966,-1.1477593248,1.1134236242\H,0.553582317
 3,-1.5437772805,-0.5929330914\N,1.8508849153,0.0676721139,-0.196526987
 8\H,1.7398809352,1.0151313816,0.1433598305\H,2.6726700096,-0.334412217
 9,0.231541582\O,-0.5853888827,1.3540929864,0.0415293696\H,-2.447059203
 6,0.0184374892,-0.0825657369\\Version=ES64L-G16RevC.01\State=1-A\HF=-2
 84.5601872\RMSD=4.264e-09\RMSF=1.742e-07\ZeroPoint=0.0794239\Thermal=0
 .0850454\ETot=-284.4751419\HTot=-284.4741977\GTot=-284.5095865\Dipole=
 -0.0809786,-0.6051976,0.5057586\DipoleDeriv=1.5204112,0.1946122,0.1146
 634,0.2692109,1.537614,0.0276259,0.1290428,0.0319486,0.2581011,-1.1584
 271,-0.4813147,-0.0693963,-0.3443349,-0.577971,-0.0257093,-0.062467,-0
 .0295685,-0.3536599,0.2761005,0.3001189,-0.1116806,0.4019508,0.119421,
 -0.0260985,-0.1041219,0.0311684,0.2979791,-0.0517608,-0.0156486,0.0416
 827,-0.0646592,0.0058419,0.0708425,0.0702129,0.1061945,-0.1142628,0.00
 79319,-0.0251093,-0.0204284,-0.0661965,-0.0401324,-0.0504063,-0.001530
 7,-0.1005767,0.0109849,-0.5357619,-0.1645524,0.1228539,-0.1103302,-0.3
 521896,0.0367123,0.166207,0.0507244,-0.4880265,0.1951349,0.0205381,0.0
 088081,-0.0360281,0.1343476,-0.0598652,-0.0203125,-0.110418,0.1902448,
 0.1097034,0.0133132,-0.0685345,0.0066711,0.1329238,0.0475532,-0.145703
 9,0.0429705,0.2118891,-0.6911278,0.1223376,-0.0200672,-0.1192761,-1.15
 91277,-0.0186204,-0.0348225,-0.0162972,-0.3429947,0.3277958,0.035705,0
 .0020989,0.0629921,0.1992724,-0.0020342,0.0034957,-0.006146,0.3297449\
 Polar=47.1298979,0.4584032,42.4212316,0.5476956,-0.4172168,30.0742088\
 Quadrupole=3.9846149,-2.8712191,-1.1133958,-0.9998266,2.4378064,0.0045
 53\PG=C01 [X(C2H5N1O2)]\NImag=0\\0.58965868,-0.03627735,0.97720833,0.0
 2000381,0.01608594,0.23102432,-0.23304742,-0.06423489,-0.01054679,0.57
 619763,-0.03687554,-0.15038631,-0.00434309,-0.10616969,0.44528167,-0.0
 0951044,-0.00640695,-0.06457887,0.02247651,0.00975929,0.03974238,-0.15
 190869,0.05135158,-0.00402029,-0.03992872,0.01198347,-0.00449574,0.486
 46114,0.04414113,-0.09814618,0.00057324,-0.01503417,0.01150545,-0.0009
 4899,0.02445872,0.55544969,-0.00266739,-0.00018847,-0.08920368,-0.0038
 1201,-0.00062273,0.00967227,0.00875490,0.03420891,0.52197261,0.0026350
 3,0.00844268,-0.02901787,-0.00223421,-0.00027048,0.00200023,-0.0483221
 5,0.00587146,-0.01023455,0.05519043,0.00221166,-0.01078311,0.02270654,
 -0.00023117,0.00068708,-0.00136446,0.00242261,-0.07981459,0.08204688,0
 .00196368,0.08930991,-0.00033819,0.00247357,-0.00444285,-0.00053450,-0
 .00017133,0.00103363,-0.00850031,0.08009112,-0.24557910,0.00319738,-0.
 09421711,0.26941821,0.00579064,0.01900182,0.02236979,-0.00156179,-0.00
 032045,-0.00175349,-0.04939960,-0.01070783,-0.01098980,0.00177930,-0.0
 0180531,-0.00307220,0.05885230,-0.00168394,-0.01872106,-0.01501355,-0.
 00128391,0.00177542,0.00118801,-0.01122217,-0.18834938,-0.12620066,0.0
 0049593,0.00982226,0.00748811,0.02123215,0.21271635,-0.00160232,0.0026
 6284,0.00165656,0.00031927,0.00075878,0.00035404,-0.01068887,-0.129732
 45,-0.15732562,0.00024294,-0.02230221,-0.02263337,0.01173235,0.1366267
 8,0.16763468,-0.03681638,-0.01569230,0.00667726,-0.00661084,0.00326681
 ,-0.00034763,-0.17680845,-0.05036451,0.04326759,-0.00915648,-0.0076145
 5,0.00932610,-0.00599219,-0.00772834,-0.00112840,0.59483667,0.01018827
 ,0.00786178,-0.00435933,0.00588903,-0.00040554,0.00081862,-0.05913631,
 -0.14269633,0.02794713,-0.01905454,-0.00886698,0.00549559,-0.02968052,
 -0.01568612,0.00837427,-0.07660662,0.64977977,-0.00441705,-0.00000630,
 -0.00089292,-0.00068227,0.00078430,0.00085998,0.00241504,0.00349731,-0
 .06308223,0.02781517,0.01711705,-0.00031320,-0.01185101,-0.00498903,0.
 01012722,0.10424023,0.03513416,0.20324062,-0.00247956,-0.00851129,-0.0
 0099677,0.00216043,0.00252088,0.00023948,0.00196470,-0.03334022,-0.012
 61699,-0.00075549,-0.00046145,0.00041433,-0.00530413,-0.00312822,0.001
 45362,-0.06537233,0.04568464,0.00985674,0.07051975,0.00103771,0.001297
 10,-0.00073523,-0.00006196,-0.00091633,0.00001621,-0.00275986,-0.02059
 898,-0.00911676,0.00045442,-0.00023299,-0.00024320,-0.00157512,-0.0003
 6834,0.00236108,0.03813497,-0.37059630,-0.11047013,-0.03728324,0.40368
 630,0.00022843,-0.00310520,0.00248484,-0.00019281,0.00056898,0.0000646
 4,0.00233112,0.01234438,-0.00379829,0.00147288,0.00150897,0.00010727,-
 0.00168231,-0.00128338,0.00027599,0.01271592,-0.15689747,-0.06008614,-
 0.01215079,0.12536326,0.06157197,-0.00283444,-0.00446146,0.00058067,-0
 .00152530,0.00098971,0.00001208,-0.02479749,0.01318444,-0.01400345,0.0
 0278850,0.00114508,0.00045252,-0.00076129,-0.00014922,-0.00006809,-0.2
 9273078,0.11772735,-0.12596274,-0.00259877,0.00035628,-0.00337150,0.32
 227170,-0.00166361,-0.00583712,0.00037984,-0.00144162,0.00115035,0.000
 06985,-0.02162285,0.00958863,-0.00826848,-0.00030966,0.00079297,0.0004
 4392,-0.00021127,-0.00052087,-0.00054306,0.12146176,-0.12277258,0.0600
 1946,0.03100586,-0.01208563,0.02012441,-0.12830824,0.12814274,0.003050
 54,0.00143464,-0.00077438,0.00056013,-0.00039213,0.00027987,0.01564167
 ,-0.00241223,-0.00192244,-0.00023692,-0.00139494,0.00229642,-0.0009573
 8,-0.00031459,0.00023516,-0.17411353,0.08260133,-0.09102010,0.01319940
 ,-0.00759763,0.00169552,0.14255896,-0.07181437,0.08865997,-0.12093434,
 0.02248953,-0.00307560,0.00287045,-0.06985581,-0.00312224,0.00493832,0
 .02833581,0.00169168,-0.00219103,0.00208025,-0.00054798,-0.00409276,0.
 00356168,-0.00048040,-0.00060247,0.00368421,-0.00056193,0.00227570,0.0
 0155048,0.00070983,0.00051076,0.00160246,0.00006123,0.10727397,0.03860
 572,-0.72662015,-0.01494925,-0.05897498,-0.07220671,-0.00588456,0.0071
 8613,-0.04582564,0.00098039,0.00259044,-0.00076007,-0.00141981,0.00427
 325,-0.00068447,0.00166899,-0.00400135,0.00308971,-0.00120971,0.003580
 15,-0.00033023,0.00141112,-0.00027558,0.00160630,-0.00020144,0.0039128
 5,0.84713633,-0.00074305,-0.01480355,-0.07905937,-0.00402186,-0.007216
 00,0.02845682,-0.00077263,0.00426388,0.02487002,0.00396583,-0.00345885
 ,-0.00012694,-0.00382039,0.00164197,-0.00038304,-0.00051994,0.00023385
 ,0.00099970,0.00054585,0.00034751,-0.00234440,-0.00012259,-0.00040277,
 0.00034179,0.00442806,0.01932568,0.03324281,-0.05006353,0.02789167,-0.
 00197421,-0.29632024,0.19473111,-0.00549876,-0.00219906,-0.00654481,0.
 00061000,0.00026610,0.00028919,-0.00039716,0.00068952,-0.00009397,0.00
 021990,-0.00074676,0.00130449,-0.00085218,-0.00041031,0.00014631,-0.00
 006076,-0.00032289,-0.00051282,0.00023591,0.00995140,0.00310337,0.0010
 6073,0.33915577,-0.01968407,0.02412673,-0.00034512,0.24154337,-0.23648
 508,0.00275299,-0.00266130,-0.00111267,-0.00078621,-0.00018392,-0.0001
 5449,0.00005914,-0.00020671,0.00001621,0.00012497,-0.00085587,0.000292
 60,0.00012288,-0.00006712,0.00014540,-0.00003505,-0.00020838,-0.000064
 79,0.00009135,0.00263854,-0.00540506,0.00006828,-0.22031454,0.21864116
 ,-0.00400433,0.00185347,0.00378635,-0.00356567,0.00087393,-0.01588478,
 -0.00066490,-0.00188516,0.00439646,0.00079491,-0.00064186,0.00023993,0
 .00002444,0.00085634,0.00005839,-0.00011762,0.00065184,0.00016705,0.00
 005513,0.00007488,0.00002860,-0.00007585,-0.00000880,0.00020821,0.0008
 9734,0.00027860,-0.00599738,0.00665654,-0.00205324,0.01299716\\0.00000
 010,0.00000051,0.00000001,-0.00000014,0.00000005,-0.00000021,0.,-0.000
 00005,-0.00000006,-0.00000015,-0.00000023,-0.00000011,-0.00000009,0.00
 000005,-0.00000024,0.00000003,-0.00000005,0.00000014,0.00000009,-0.000
 00019,0.00000028,-0.00000002,-0.00000026,0.00000013,0.00000016,-0.0000
 0012,0.00000020,0.00000002,0.00000029,-0.00000014\\\@
 The archive entry for this job was punched.


 WHEN YOU'VE SEEN ONE NUCLEAR WAR YOU'VE SEEN THEM ALL.
 Job cpu time:       0 days  0 hours 24 minutes 44.3 seconds.
 Elapsed time:       0 days  0 hours  1 minutes 33.7 seconds.
 File lengths (MBytes):  RWF=     51 Int=      0 D2E=      0 Chk=      5 Scr=      1
 Normal termination of Gaussian 16 at Tue Nov 30 11:41:48 2021.
