Title Card Required                                                     
Freq      RB3LYP                                                      def2TZVPP           
Number of atoms                            I               10
Info1-9                                    I   N=           9
          30          30        1002           0           0         100
           6          18        -502
Full Title                                 C   N=           2
Title Card Required     
Route                                      C   N=           9
#p opt=(calcall,verytight,maxstep=7,maxcycles=100) freq b3ly
p geom=connectivity def2tzvpp int=ultrafine     
Charge                                     I                0
Multiplicity                               I                1
Number of electrons                        I               40
Number of alpha electrons                  I               20
Number of beta electrons                   I               20
Number of basis functions                  I              225
Number of independent functions            I              225
Number of point charges in /Mol/           I                0
Number of translation vectors              I                0
Atomic numbers                             I   N=          10
           6           8           6           1           1           7
           1           1           8           1
Nuclear charges                            R   N=          10
  6.00000000E+00  8.00000000E+00  6.00000000E+00  1.00000000E+00  1.00000000E+00
  7.00000000E+00  1.00000000E+00  1.00000000E+00  8.00000000E+00  1.00000000E+00
Current cartesian coordinates              R   N=          30
 -1.01449888E+00  1.96860258E-01  2.76578566E-02 -3.09219979E+00 -1.27816006E+00
 -1.29007239E-01  1.37196611E+00 -1.35625646E+00  1.98949879E-01  1.35492232E+00
 -2.18664183E+00  2.10600021E+00  1.21581194E+00 -2.93624721E+00 -1.11924810E+00
  3.56971656E+00  1.84688711E-01 -3.68679641E-01  3.30354259E+00  1.96684003E+00
  2.75758695E-01  5.14673707E+00 -5.26159586E-01  4.38205086E-01 -1.10890965E+00
  2.46728914E+00  8.74470912E-02 -4.54495775E+00 -1.67267848E-01 -1.47123630E-01
Number of symbols in /Mol/                 I                0
Int Atom Types                             I   N=          10
    20001002    20001022    20001001    20001034    20001034    20001020
    20001029    20001029    20001025    20001031
Force Field                                I                2
Atom Types                                 C   N=          10
AMB-C       AMB-OH      AMB-CT      AMB-HC      AMB-HC      
AMB-N3      AMB-H       AMB-H       AMB-O2      AMB-HO      
MM charges                                 R   N=          10
  0.00000000E+00  0.00000000E+00  0.00000000E+00  0.00000000E+00  0.00000000E+00
  0.00000000E+00  0.00000000E+00  0.00000000E+00  0.00000000E+00  0.00000000E+00
Integer atomic weights                     I   N=          10
          12          16          12           1           1          14
           1           1          16           1
Real atomic weights                        R   N=          10
  1.20000000E+01  1.59949146E+01  1.20000000E+01  1.00782504E+00  1.00782504E+00
  1.40030740E+01  1.00782504E+00  1.00782504E+00  1.59949146E+01  1.00782504E+00
Atom fragment info                         I   N=          10
           0           0           0           0           0           0
           0           0           0           0
Atom residue num                           I   N=          10
           0           0           0           0           0           0
           0           0           0           0
Nuclear spins                              I   N=          10
           0           0           0           1           1           2
           1           1           0           1
Nuclear ZEff                               R   N=          10
 -3.60000000E+00 -5.60000000E+00 -3.60000000E+00 -1.00000000E+00 -1.00000000E+00
 -4.55000000E+00 -1.00000000E+00 -1.00000000E+00 -5.60000000E+00 -1.00000000E+00
Nuclear ZNuc                               R   N=          10
  6.00000000E+00  8.00000000E+00  6.00000000E+00  1.00000000E+00  1.00000000E+00
  7.00000000E+00  1.00000000E+00  1.00000000E+00  8.00000000E+00  1.00000000E+00
Nuclear QMom                               R   N=          10
  0.00000000E+00  0.00000000E+00  0.00000000E+00  0.00000000E+00  0.00000000E+00
  2.04400000E+00  0.00000000E+00  0.00000000E+00  0.00000000E+00  0.00000000E+00
Nuclear GFac                               R   N=          10
  0.00000000E+00  0.00000000E+00  0.00000000E+00  2.79284600E+00  2.79284600E+00
  4.03761000E-01  2.79284600E+00  2.79284600E+00  0.00000000E+00  2.79284600E+00
MicOpt                                     I   N=          10
          -1          -1          -1          -1          -1          -1
          -1          -1          -1          -1
Number of residues                         I                0
Number of secondary structures             I                0
Redundant internal dimensions              I   N=           4
          36           9          13          14
Redundant internal coordinate indices      I   N=         144
           1           2           0           0           1           3
           0           0           1           9           0           0
           2          10           0           0           3           4
           0           0           3           5           0           0
           3           6           0           0           6           7
           0           0           6           8           0           0
           2           1           3           0           2           1
           9           0           3           1           9           0
           1           2          10           0           1           3
           4           0           1           3           5           0
           1           3           6           0           4           3
           5           0           4           3           6           0
           5           3           6           0           3           6
           7           0           3           6           8           0
           7           6           8           0           3           1
           2          10           9           1           2          10
           2           1           3           4           2           1
           3           5           2           1           3           6
           9           1           3           4           9           1
           3           5           9           1           3           6
           1           3           6           7           1           3
           6           8           4           3           6           7
           4           3           6           8           5           3
           6           7           5           3           6           8
Redundant internal coordinates             R   N=          36
  2.55285525E+00  2.85249499E+00  2.27317739E+00  1.82891099E+00  2.08006522E+00
  2.06358931E+00  2.74350548E+00  1.91369085E+00  1.90875926E+00  1.94980161E+00
  2.14707296E+00  2.18582984E+00  1.87144175E+00  1.83958216E+00  1.89147632E+00
  1.93045722E+00  1.85394379E+00  2.00476940E+00  1.93745360E+00  1.91980741E+00
  1.94465790E+00  1.89586866E+00  3.09263686E+00 -1.72017183E-02 -1.25364951E+00
  7.25218524E-01  2.85281000E+00  1.85534343E+00 -2.44897384E+00 -3.21382366E-01
  6.04814871E-01  2.70830051E+00 -1.47458841E+00  6.28897233E-01  2.70515010E+00
 -1.47454957E+00
ZRed-IntVec                                I   N=          36
           0           0           0           0           0           0
           0           0           0           0           0           0
           0           0           0           0           0           0
           0           0           0           0           0           0
           0           0           0           0           0           0
           0           0           0           0           0           0
ZRed-FPVec                                 R   N=          36
  0.00000000E+00  0.00000000E+00  0.00000000E+00  0.00000000E+00  0.00000000E+00
  0.00000000E+00  0.00000000E+00  0.00000000E+00  0.00000000E+00  0.00000000E+00
  0.00000000E+00  0.00000000E+00  0.00000000E+00  0.00000000E+00  0.00000000E+00
  0.00000000E+00  0.00000000E+00  0.00000000E+00  0.00000000E+00  0.00000000E+00
  0.00000000E+00  0.00000000E+00  0.00000000E+00  0.00000000E+00  0.00000000E+00
  0.00000000E+00  0.00000000E+00  0.00000000E+00  0.00000000E+00  0.00000000E+00
  0.00000000E+00  0.00000000E+00  0.00000000E+00  0.00000000E+00  0.00000000E+00
  0.00000000E+00
ZRed-Constraint1                           R   N=          36
  2.55285525E+00  2.85249499E+00  2.27317739E+00  1.82891099E+00  2.08006522E+00
  2.06358931E+00  2.74350548E+00  1.91369085E+00  1.90875926E+00  1.94980161E+00
  2.14707296E+00  2.18582984E+00  1.87144175E+00  1.83958216E+00  1.89147632E+00
  1.93045722E+00  1.85394379E+00  2.00476940E+00  1.93745360E+00  1.91980741E+00
  1.94465790E+00  1.89586866E+00  3.09263686E+00 -1.72017183E-02 -1.25364951E+00
  7.25218524E-01  2.85281000E+00  1.85534343E+00 -2.44897384E+00 -3.21382366E-01
  6.04814871E-01  2.70830051E+00 -1.47458841E+00  6.28897233E-01  2.70515010E+00
 -1.47454957E+00
ZRed-Constraint2                           R   N=          36
  2.55993800E+00  2.87399832E+00  2.26196612E+00  1.81413708E+00  2.07808350E+00
  2.07274333E+00  2.73941574E+00  1.91538184E+00  1.90763028E+00  2.01624808E+00
  2.10135035E+00  2.16527821E+00  2.09439510E+00  1.84912684E+00  1.89269228E+00
  1.93760918E+00  1.85691254E+00  1.98912228E+00  1.93324485E+00  1.90717026E+00
  1.95284594E+00  1.89682488E+00  3.07501530E+00 -4.09452750E-02 -1.21354964E+00
  7.73911091E-01  2.90157275E+00  1.90135599E+00 -2.39436858E+00 -2.66706925E-01
  3.77247569E-01  2.47876219E+00 -1.70897879E+00  3.92535831E-01  2.48107892E+00
 -1.70059177E+00
SymInf integers                            I   N=          26
           1           1           1           1           1           0
           0           0           0           0           0           0
           0           0           0           0           0           0
           0           0           0           0           0           0
           0           0
RotTr to input orientation                 R   N=          12
  9.99492174E-01 -3.18549287E-02  8.11023021E-04  3.18557978E-02  9.99491889E-01
 -1.08232848E-03 -7.76133435E-04  1.10761463E-03  9.99999085E-01 -7.64077427E-02
  5.74083140E-02 -5.39810810E-03
Number of contracted shells                I               85
Number of primitive shells                 I              140
Pure/Cartesian d shells                    I                0
Pure/Cartesian f shells                    I                0
Highest angular momentum                   I                3
Largest degree of contraction              I                6
Shell types                                I   N=          85
           0           0           0           0           0           1
           1           1          -2          -2          -3           0
           0           0           0           0           1           1
           1          -2          -2          -3           0           0
           0           0           0           1           1           1
          -2          -2          -3           0           0           0
           1           1          -2           0           0           0
           1           1          -2           0           0           0
           0           0           1           1           1          -2
          -2          -3           0           0           0           1
           1          -2           0           0           0           1
           1          -2           0           0           0           0
           0           1           1           1          -2          -2
          -3           0           0           0           1           1
          -2
Number of primitives per shell             I   N=          85
           6           2           1           1           1           4
           1           1           1           1           1           6
           2           1           1           1           4           1
           1           1           1           1           6           2
           1           1           1           4           1           1
           1           1           1           3           1           1
           1           1           1           3           1           1
           1           1           1           6           2           1
           1           1           4           1           1           1
           1           1           3           1           1           1
           1           1           3           1           1           1
           1           1           6           2           1           1
           1           4           1           1           1           1
           1           3           1           1           1           1
           1
Shell to atom map                          I   N=          85
           1           1           1           1           1           1
           1           1           1           1           1           2
           2           2           2           2           2           2
           2           2           2           2           3           3
           3           3           3           3           3           3
           3           3           3           4           4           4
           4           4           4           5           5           5
           5           5           5           6           6           6
           6           6           6           6           6           6
           6           6           7           7           7           7
           7           7           8           8           8           8
           8           8           9           9           9           9
           9           9           9           9           9           9
           9          10          10          10          10          10
          10
Primitive exponents                        R   N=         140
  1.35753497E+04  2.03523337E+03  4.63225624E+02  1.31200196E+02  4.28530159E+01
  1.55841858E+01  6.20671385E+00  2.57648965E+00  5.76963394E-01  2.29728314E-01
  9.51644400E-02  3.46972322E+01  7.95826228E+00  2.37808269E+00  8.14332082E-01
  2.88875473E-01  1.00568237E-01  1.09700000E+00  3.18000000E-01  7.61000000E-01
  2.70323826E+04  4.05238714E+03  9.22327227E+02  2.61240710E+02  8.53546414E+01
  3.10350352E+01  1.22608607E+01  4.99870760E+00  1.17031082E+00  4.64747410E-01
  1.85045364E-01  6.32749548E+01  1.46270494E+01  4.45012235E+00  1.52757996E+00
  5.29351179E-01  1.74784213E-01  2.31400000E+00  6.45000000E-01  1.42800000E+00
  1.35753497E+04  2.03523337E+03  4.63225624E+02  1.31200196E+02  4.28530159E+01
  1.55841858E+01  6.20671385E+00  2.57648965E+00  5.76963394E-01  2.29728314E-01
  9.51644400E-02  3.46972322E+01  7.95826228E+00  2.37808269E+00  8.14332082E-01
  2.88875473E-01  1.00568237E-01  1.09700000E+00  3.18000000E-01  7.61000000E-01
  3.40613410E+01  5.12357460E+00  1.16466260E+00  3.27230410E-01  1.03072410E-01
  1.40700000E+00  3.88000000E-01  1.05700000E+00  3.40613410E+01  5.12357460E+00
  1.16466260E+00  3.27230410E-01  1.03072410E-01  1.40700000E+00  3.88000000E-01
  1.05700000E+00  1.97308006E+04  2.95789587E+03  6.73221336E+02  1.90682495E+02
  6.22954419E+01  2.26541612E+01  8.97914774E+00  3.68630024E+00  8.46600768E-01
  3.36471338E-01  1.36476537E-01  4.92003805E+01  1.13467905E+01  3.42739724E+00
  1.17855251E+00  4.16422050E-01  1.42608260E-01  1.65400000E+00  4.69000000E-01
  1.09300000E+00  3.40613410E+01  5.12357460E+00  1.16466260E+00  3.27230410E-01
  1.03072410E-01  1.40700000E+00  3.88000000E-01  1.05700000E+00  3.40613410E+01
  5.12357460E+00  1.16466260E+00  3.27230410E-01  1.03072410E-01  1.40700000E+00
  3.88000000E-01  1.05700000E+00  2.70323826E+04  4.05238714E+03  9.22327227E+02
  2.61240710E+02  8.53546414E+01  3.10350352E+01  1.22608607E+01  4.99870760E+00
  1.17031082E+00  4.64747410E-01  1.85045364E-01  6.32749548E+01  1.46270494E+01
  4.45012235E+00  1.52757996E+00  5.29351179E-01  1.74784213E-01  2.31400000E+00
  6.45000000E-01  1.42800000E+00  3.40613410E+01  5.12357460E+00  1.16466260E+00
  3.27230410E-01  1.03072410E-01  1.40700000E+00  3.88000000E-01  1.05700000E+00
Contraction coefficients                   R   N=         140
  6.06455036E-04  4.69790889E-03  2.43324776E-02  9.73999683E-02  3.01955843E-01
  6.62336091E-01  6.55953085E-01  3.75856333E-01  1.00000000E+00  1.00000000E+00
  1.00000000E+00  1.13272200E-02  7.61696592E-02  3.01922522E-01  7.27850273E-01
  1.00000000E+00  1.00000000E+00  1.00000000E+00  1.00000000E+00  1.00000000E+00
  5.72273352E-04  4.43532335E-03  2.30201077E-02  9.28224907E-02  2.93785000E-01
  6.74016045E-01  6.38399370E-01  3.95345871E-01  1.00000000E+00  1.00000000E+00
  1.00000000E+00  1.20183322E-02  8.30054218E-02  3.19917439E-01  7.07155429E-01
  1.00000000E+00  1.00000000E+00  1.00000000E+00  1.00000000E+00  1.00000000E+00
  6.06455036E-04  4.69790889E-03  2.43324776E-02  9.73999683E-02  3.01955843E-01
  6.62336091E-01  6.55953085E-01  3.75856333E-01  1.00000000E+00  1.00000000E+00
  1.00000000E+00  1.13272200E-02  7.61696592E-02  3.01922522E-01  7.27850273E-01
  1.00000000E+00  1.00000000E+00  1.00000000E+00  1.00000000E+00  1.00000000E+00
  2.54393072E-02  1.90085949E-01  8.52441130E-01  1.00000000E+00  1.00000000E+00
  1.00000000E+00  1.00000000E+00  1.00000000E+00  2.54393072E-02  1.90085949E-01
  8.52441130E-01  1.00000000E+00  1.00000000E+00  1.00000000E+00  1.00000000E+00
  1.00000000E+00  5.86264026E-04  4.54288206E-03  2.35584135E-02  9.47091933E-02
  2.97197849E-01  6.69162469E-01  6.45966836E-01  3.87005744E-01  1.00000000E+00
  1.00000000E+00  1.00000000E+00  1.14488251E-02  7.84223380E-02  3.08180947E-01
  7.20271964E-01  1.00000000E+00  1.00000000E+00  1.00000000E+00  1.00000000E+00
  1.00000000E+00  2.54393072E-02  1.90085949E-01  8.52441130E-01  1.00000000E+00
  1.00000000E+00  1.00000000E+00  1.00000000E+00  1.00000000E+00  2.54393072E-02
  1.90085949E-01  8.52441130E-01  1.00000000E+00  1.00000000E+00  1.00000000E+00
  1.00000000E+00  1.00000000E+00  5.72273352E-04  4.43532335E-03  2.30201077E-02
  9.28224907E-02  2.93785000E-01  6.74016045E-01  6.38399370E-01  3.95345871E-01
  1.00000000E+00  1.00000000E+00  1.00000000E+00  1.20183322E-02  8.30054218E-02
  3.19917439E-01  7.07155429E-01  1.00000000E+00  1.00000000E+00  1.00000000E+00
  1.00000000E+00  1.00000000E+00  2.54393072E-02  1.90085949E-01  8.52441130E-01
  1.00000000E+00  1.00000000E+00  1.00000000E+00  1.00000000E+00  1.00000000E+00
Coordinates of each shell                  R   N=         255
 -1.01449888E+00  1.96860258E-01  2.76578566E-02 -1.01449888E+00  1.96860258E-01
  2.76578566E-02 -1.01449888E+00  1.96860258E-01  2.76578566E-02 -1.01449888E+00
  1.96860258E-01  2.76578566E-02 -1.01449888E+00  1.96860258E-01  2.76578566E-02
 -1.01449888E+00  1.96860258E-01  2.76578566E-02 -1.01449888E+00  1.96860258E-01
  2.76578566E-02 -1.01449888E+00  1.96860258E-01  2.76578566E-02 -1.01449888E+00
  1.96860258E-01  2.76578566E-02 -1.01449888E+00  1.96860258E-01  2.76578566E-02
 -1.01449888E+00  1.96860258E-01  2.76578566E-02 -3.09219979E+00 -1.27816006E+00
 -1.29007239E-01 -3.09219979E+00 -1.27816006E+00 -1.29007239E-01 -3.09219979E+00
 -1.27816006E+00 -1.29007239E-01 -3.09219979E+00 -1.27816006E+00 -1.29007239E-01
 -3.09219979E+00 -1.27816006E+00 -1.29007239E-01 -3.09219979E+00 -1.27816006E+00
 -1.29007239E-01 -3.09219979E+00 -1.27816006E+00 -1.29007239E-01 -3.09219979E+00
 -1.27816006E+00 -1.29007239E-01 -3.09219979E+00 -1.27816006E+00 -1.29007239E-01
 -3.09219979E+00 -1.27816006E+00 -1.29007239E-01 -3.09219979E+00 -1.27816006E+00
 -1.29007239E-01  1.37196611E+00 -1.35625646E+00  1.98949879E-01  1.37196611E+00
 -1.35625646E+00  1.98949879E-01  1.37196611E+00 -1.35625646E+00  1.98949879E-01
  1.37196611E+00 -1.35625646E+00  1.98949879E-01  1.37196611E+00 -1.35625646E+00
  1.98949879E-01  1.37196611E+00 -1.35625646E+00  1.98949879E-01  1.37196611E+00
 -1.35625646E+00  1.98949879E-01  1.37196611E+00 -1.35625646E+00  1.98949879E-01
  1.37196611E+00 -1.35625646E+00  1.98949879E-01  1.37196611E+00 -1.35625646E+00
  1.98949879E-01  1.37196611E+00 -1.35625646E+00  1.98949879E-01  1.35492232E+00
 -2.18664183E+00  2.10600021E+00  1.35492232E+00 -2.18664183E+00  2.10600021E+00
  1.35492232E+00 -2.18664183E+00  2.10600021E+00  1.35492232E+00 -2.18664183E+00
  2.10600021E+00  1.35492232E+00 -2.18664183E+00  2.10600021E+00  1.35492232E+00
 -2.18664183E+00  2.10600021E+00  1.21581194E+00 -2.93624721E+00 -1.11924810E+00
  1.21581194E+00 -2.93624721E+00 -1.11924810E+00  1.21581194E+00 -2.93624721E+00
 -1.11924810E+00  1.21581194E+00 -2.93624721E+00 -1.11924810E+00  1.21581194E+00
 -2.93624721E+00 -1.11924810E+00  1.21581194E+00 -2.93624721E+00 -1.11924810E+00
  3.56971656E+00  1.84688711E-01 -3.68679641E-01  3.56971656E+00  1.84688711E-01
 -3.68679641E-01  3.56971656E+00  1.84688711E-01 -3.68679641E-01  3.56971656E+00
  1.84688711E-01 -3.68679641E-01  3.56971656E+00  1.84688711E-01 -3.68679641E-01
  3.56971656E+00  1.84688711E-01 -3.68679641E-01  3.56971656E+00  1.84688711E-01
 -3.68679641E-01  3.56971656E+00  1.84688711E-01 -3.68679641E-01  3.56971656E+00
  1.84688711E-01 -3.68679641E-01  3.56971656E+00  1.84688711E-01 -3.68679641E-01
  3.56971656E+00  1.84688711E-01 -3.68679641E-01  3.30354259E+00  1.96684003E+00
  2.75758695E-01  3.30354259E+00  1.96684003E+00  2.75758695E-01  3.30354259E+00
  1.96684003E+00  2.75758695E-01  3.30354259E+00  1.96684003E+00  2.75758695E-01
  3.30354259E+00  1.96684003E+00  2.75758695E-01  3.30354259E+00  1.96684003E+00
  2.75758695E-01  5.14673707E+00 -5.26159586E-01  4.38205086E-01  5.14673707E+00
 -5.26159586E-01  4.38205086E-01  5.14673707E+00 -5.26159586E-01  4.38205086E-01
  5.14673707E+00 -5.26159586E-01  4.38205086E-01  5.14673707E+00 -5.26159586E-01
  4.38205086E-01  5.14673707E+00 -5.26159586E-01  4.38205086E-01 -1.10890965E+00
  2.46728914E+00  8.74470912E-02 -1.10890965E+00  2.46728914E+00  8.74470912E-02
 -1.10890965E+00  2.46728914E+00  8.74470912E-02 -1.10890965E+00  2.46728914E+00
  8.74470912E-02 -1.10890965E+00  2.46728914E+00  8.74470912E-02 -1.10890965E+00
  2.46728914E+00  8.74470912E-02 -1.10890965E+00  2.46728914E+00  8.74470912E-02
 -1.10890965E+00  2.46728914E+00  8.74470912E-02 -1.10890965E+00  2.46728914E+00
  8.74470912E-02 -1.10890965E+00  2.46728914E+00  8.74470912E-02 -1.10890965E+00
  2.46728914E+00  8.74470912E-02 -4.54495775E+00 -1.67267848E-01 -1.47123630E-01
 -4.54495775E+00 -1.67267848E-01 -1.47123630E-01 -4.54495775E+00 -1.67267848E-01
 -1.47123630E-01 -4.54495775E+00 -1.67267848E-01 -1.47123630E-01 -4.54495775E+00
 -1.67267848E-01 -1.47123630E-01 -4.54495775E+00 -1.67267848E-01 -1.47123630E-01
Num ILSW                                   I              100
ILSW                                       I   N=         100
           0           0           0           0           2           0
           0           0           0           0         402          -1
           5           0           0           0           2           0
           0           0           0           0           1           0
           1           0           0           0           0           0
           0           0      100000           0          -1           0
           0           0           0           0           0           0
           0           0           0           1           0           0
           0 -2000000000           1           0           0           0
           0           0           4          52           0           0
           0           0           5           0           0           0
           0           0           0          10           0           1
           0           0           0           0           0           0
           0           0           0           0           0           0
           0           0           0           0           0           0
           0           0           0           0           0           0
           0           0           0           0
Num RLSW                                   I               52
RLSW                                       R   N=          52
  8.00000000E-01  7.20000000E-01  1.00000000E+00  8.10000000E-01  2.00000000E-01
  0.00000000E+00  0.00000000E+00  1.00000000E+00  0.00000000E+00  0.00000000E+00
  0.00000000E+00  0.00000000E+00  1.00000000E+00  0.00000000E+00  0.00000000E+00
  0.00000000E+00  0.00000000E+00  1.00000000E+00  0.00000000E+00  0.00000000E+00
  0.00000000E+00  0.00000000E+00  1.00000000E+00  0.00000000E+00  0.00000000E+00
  0.00000000E+00  0.00000000E+00  1.00000000E+00  0.00000000E+00  0.00000000E+00
  0.00000000E+00  0.00000000E+00  1.00000000E+00  0.00000000E+00  0.00000000E+00
  0.00000000E+00  0.00000000E+00  0.00000000E+00  1.00000000E+00  1.00000000E+00
  0.00000000E+00  1.00000000E+00  0.00000000E+00  0.00000000E+00  0.00000000E+00
  0.00000000E+00  0.00000000E+00  0.00000000E+00  0.00000000E+00  0.00000000E+00
  0.00000000E+00  0.00000000E+00
ECP-MxAtEC                                 I           250000
ECP-MaxLECP                                I               10
ECP-MaxAtL                                 I          2250000
ECP-MxTECP                                 I         11250000
ECP-LenNCZ                                 I                0
ECP-KFirst                                 I   N=         100
           0           0           0           0           0           0
           0           0           0           0           0           0
           0           0           0           0           0           0
           0           0           0           0           0           0
           0           0           0           0           0           0
           0           0           0           0           0           0
           0           0           0           0           0           0
           0           0           0           0           0           0
           0           0           0           0           0           0
           0           0           0           0           0           0
           0           0           0           0           0           0
           0           0           0           0           0           0
           0           0           0           0           0           0
           0           0           0           0           0           0
           0           0           0           0           0           0
           0           0           0           0           0           0
           0           0           0           0
ECP-KLast                                  I   N=         100
           0           0           0           0           0           0
           0           0           0           0           0           0
           0           0           0           0           0           0
           0           0           0           0           0           0
           0           0           0           0           0           0
           0           0           0           0           0           0
           0           0           0           0           0           0
           0           0           0           0           0           0
           0           0           0           0           0           0
           0           0           0           0           0           0
           0           0           0           0           0           0
           0           0           0           0           0           0
           0           0           0           0           0           0
           0           0           0           0           0           0
           0           0           0           0           0           0
           0           0           0           0           0           0
           0           0           0           0
ECP-LMax                                   I   N=          10
           0           0           0           0           0           0
           0           0           0           0
ECP-LPSkip                                 I   N=          10
           1           1           1           1           1           1
           1           1           1           1
ECP-RNFroz                                 R   N=          10
  0.00000000E+00  0.00000000E+00  0.00000000E+00  0.00000000E+00  0.00000000E+00
  0.00000000E+00  0.00000000E+00  0.00000000E+00  0.00000000E+00  0.00000000E+00
ECP-NLP                                    I                0
ECP-CLP1                                   R      0.000000000000000E+00
ECP-CLP2                                   R      0.000000000000000E+00
ECP-ZLP                                    R      0.000000000000000E+00
MxBond                                     I                4
NBond                                      I   N=          10
           3           2           4           1           1           3
           1           1           1           1
IBond                                      I   N=          40
           2           3           9           0           1          10
           0           0           1           4           5           6
           3           0           0           0           3           0
           0           0           3           7           8           0
           6           0           0           0           6           0