Title Card Required                                                     
Freq      RAMBER                                                      ZDO                 
Number of atoms                            I               10
Info1-9                                    I   N=           9
          58          49           0           0           0         100
           6           8        1101
Full Title                                 C   N=           2
Title Card Required     
Route                                      C   N=           5
#P Amber=Softonly Geom=Connectivity Freq=intmodes           
Charge                                     I                0
Multiplicity                               I                1
Number of electrons                        I               14
Number of alpha electrons                  I                7
Number of beta electrons                   I                7
Number of basis functions                  I                0
Number of independent functions            I                0
Number of point charges in /Mol/           I                0
Number of translation vectors              I                0
Atomic numbers                             I   N=          10
           6           8           6           1           1           7
           1           1           8           1
Nuclear charges                            R   N=          10
  2.00000000E+00  2.00000000E+00  2.00000000E+00  1.00000000E+00  1.00000000E+00
  1.00000000E+00  1.00000000E+00  1.00000000E+00  2.00000000E+00  1.00000000E+00
Current cartesian coordinates              R   N=          30
 -1.01449947E+00  1.96860329E-01  2.76580316E-02 -3.09220043E+00 -1.27815973E+00
 -1.29007823E-01  1.37196573E+00 -1.35625644E+00  1.98950366E-01  1.35492229E+00
 -2.18664178E+00  2.10599961E+00  1.21581199E+00 -2.93624700E+00 -1.11924888E+00
  3.56971722E+00  1.84688603E-01 -3.68679898E-01  3.30354173E+00  1.96684018E+00
  2.75758285E-01  5.14673713E+00 -5.26160224E-01  4.38204812E-01 -1.10891019E+00
  2.46728879E+00  8.74470764E-02 -4.54495763E+00 -1.67267218E-01 -1.47122738E-01
Number of symbols in /Mol/                 I                0
Redundant internal dimensions              I   N=           4
          36           9          13          14
Redundant internal coordinate indices      I   N=         144
           1           2           0           0           1           3
           0           0           1           9           0           0
           2          10           0           0           3           4
           0           0           3           5           0           0
           3           6           0           0           6           7
           0           0           6           8           0           0
           2           1           3           0           2           1
           9           0           3           1           9           0
           1           2          10           0           1           3
           4           0           1           3           5           0
           1           3           6           0           4           3
           5           0           4           3           6           0
           5           3           6           0           3           6
           7           0           3           6           8           0
           7           6           8           0           3           1
           2          10           9           1           2          10
           2           1           3           4           2           1
           3           5           2           1           3           6
           9           1           3           4           9           1
           3           5           9           1           3           6
           1           3           6           7           1           3
           6           8           4           3           6           7
           4           3           6           8           5           3
           6           7           5           3           6           8
Redundant internal coordinates             R   N=          36
  2.55285519E+00  2.85249521E+00  2.27317696E+00  1.82891055E+00  2.08006421E+00
  2.06358994E+00  2.74350639E+00  1.91369125E+00  1.90875897E+00  1.94980175E+00
  2.14707287E+00  2.18582981E+00  1.87144141E+00  1.83958248E+00  1.89147622E+00
  1.93045744E+00  1.85394415E+00  2.00476945E+00  1.93745279E+00  1.91980644E+00
  1.94465763E+00  1.89586965E+00  3.09263596E+00 -1.72029160E-02 -1.25364968E+00
  7.25218876E-01  2.85280943E+00  1.85534356E+00 -2.44897319E+00 -3.21382640E-01
  6.04814651E-01  2.70830071E+00 -1.47458925E+00  6.28896808E-01  2.70514936E+00
 -1.47454989E+00
ZRed-IntVec                                I   N=          36
           0           0           0           0           0           0
           0           0           0           0           0           0
           0           0           0           0           0           0
           0           0           0           0           0           0
           0           0           0           0           0           0
           0           0           0           0           0           0
ZRed-FPVec                                 R   N=          36
  0.00000000E+00  0.00000000E+00  0.00000000E+00  0.00000000E+00  0.00000000E+00
  0.00000000E+00  0.00000000E+00  0.00000000E+00  0.00000000E+00  0.00000000E+00
  0.00000000E+00  0.00000000E+00  0.00000000E+00  0.00000000E+00  0.00000000E+00
  0.00000000E+00  0.00000000E+00  0.00000000E+00  0.00000000E+00  0.00000000E+00
  0.00000000E+00  0.00000000E+00  0.00000000E+00  0.00000000E+00  0.00000000E+00
  0.00000000E+00  0.00000000E+00  0.00000000E+00  0.00000000E+00  0.00000000E+00
  0.00000000E+00  0.00000000E+00  0.00000000E+00  0.00000000E+00  0.00000000E+00
  0.00000000E+00
ZRed-Constraint1                           R   N=          36
  2.55285519E+00  2.85249521E+00  2.27317696E+00  1.82891055E+00  2.08006421E+00
  2.06358994E+00  2.74350639E+00  1.91369125E+00  1.90875897E+00  1.94980175E+00
  2.14707287E+00  2.18582981E+00  1.87144141E+00  1.83958248E+00  1.89147622E+00
  1.93045744E+00  1.85394415E+00  2.00476945E+00  1.93745279E+00  1.91980644E+00
  1.94465763E+00  1.89586965E+00  3.09263596E+00 -1.72029160E-02 -1.25364968E+00
  7.25218876E-01  2.85280943E+00  1.85534356E+00 -2.44897319E+00 -3.21382640E-01
  6.04814651E-01  2.70830071E+00 -1.47458925E+00  6.28896808E-01  2.70514936E+00
 -1.47454989E+00
ZRed-Constraint2                           R   N=          36
  0.00000000E+00  0.00000000E+00  0.00000000E+00  0.00000000E+00  0.00000000E+00
  0.00000000E+00  0.00000000E+00  0.00000000E+00  0.00000000E+00  0.00000000E+00
  0.00000000E+00  0.00000000E+00  0.00000000E+00  0.00000000E+00  0.00000000E+00
  0.00000000E+00  0.00000000E+00  0.00000000E+00  0.00000000E+00  0.00000000E+00
  0.00000000E+00  0.00000000E+00  0.00000000E+00  0.00000000E+00  0.00000000E+00
  0.00000000E+00  0.00000000E+00  0.00000000E+00  0.00000000E+00  0.00000000E+00
  0.00000000E+00  0.00000000E+00  0.00000000E+00  0.00000000E+00  0.00000000E+00
  0.00000000E+00
Force Field                                I                2
Atom Types                                 C   N=          10
#200C       #200OH      #200CT      #200HC      #200HC      
#200N3      #200H       #200H       #200O2      #200HO      
Int Atom Types                             I   N=          10
    20001002    20001022    20001001    20001034    20001034    20001020
    20001029    20001029    20001025    20001031
MM charges                                 R   N=          10
  5.92878775-323  7.90505033-323  5.92878775-323  4.94065646-324  4.94065646-324
  6.91691904-323  4.94065646-324  4.94065646-324  7.90505033-323  4.94065646-324
Integer atomic weights                     I   N=          10
           0           0           0           0           0           0
           0           0           0           0
Real atomic weights                        R   N=          10
  0.00000000E+00  0.00000000E+00  0.00000000E+00  0.00000000E+00  0.00000000E+00
  0.00000000E+00  0.00000000E+00  0.00000000E+00  0.00000000E+00  0.00000000E+00
Atom fragment info                         I   N=          10
           0           0           0           0           0           0
           0           0           0           0
Atom residue num                           I   N=          10
           0           0           0           0           0           0
           0           0           0           0
Nuclear spins                              I   N=          10
           0           0           0           0           0           0
           0           0           0           0
Nuclear ZEff                               R   N=          10
  0.00000000E+00  0.00000000E+00  0.00000000E+00  0.00000000E+00  0.00000000E+00
  0.00000000E+00  0.00000000E+00  0.00000000E+00  0.00000000E+00  0.00000000E+00
Nuclear ZNuc                               R   N=          10
  0.00000000E+00  0.00000000E+00  0.00000000E+00  0.00000000E+00  0.00000000E+00
  0.00000000E+00  0.00000000E+00  0.00000000E+00  0.00000000E+00  0.00000000E+00
Nuclear QMom                               R   N=          10
  0.00000000E+00  0.00000000E+00  0.00000000E+00  0.00000000E+00  0.00000000E+00
  0.00000000E+00  0.00000000E+00  0.00000000E+00  0.00000000E+00  0.00000000E+00
Nuclear GFac                               R   N=          10
  0.00000000E+00  0.00000000E+00  0.00000000E+00  0.00000000E+00  0.00000000E+00
  0.00000000E+00  0.00000000E+00  0.00000000E+00  0.00000000E+00  0.00000000E+00
MicOpt                                     I   N=          10
           0           0           0           0           0           0
           0           0           0           0
Number of residues                         I                0
Number of secondary structures             I                0
Number of contracted shells                I               10
Number of primitive shells                 I               10
Pure/Cartesian d shells                    I                0
Pure/Cartesian f shells                    I                0
Highest angular momentum                   I                0
Largest degree of contraction              I                1
Shell types                                I   N=          10
           0           0           0           0           0           0
           0           0           0           0
Number of primitives per shell             I   N=          10
           1           1           1           1           1           1
           1           1           1           1
Shell to atom map                          I   N=          10
           1           2           3           4           5           6
           7           8           9          10
Primitive exponents                        R   N=          10
  1.00000000E+00  1.00000000E+00  1.00000000E+00  1.00000000E+00  1.00000000E+00
  1.00000000E+00  1.00000000E+00  1.00000000E+00  1.00000000E+00  1.00000000E+00
Contraction coefficients                   R   N=          10
  1.00000000E+00  1.00000000E+00  1.00000000E+00  1.00000000E+00  1.00000000E+00
  1.00000000E+00  1.00000000E+00  1.00000000E+00  1.00000000E+00  1.00000000E+00
Coordinates of each shell                  R   N=          30
 -1.01449921E+00  1.96860230E-01  2.76581260E-02 -3.09220002E+00 -1.27816003E+00
 -1.29007729E-01  1.37196615E+00 -1.35625631E+00  1.98950461E-01  1.35492279E+00
 -2.18664165E+00  2.10599970E+00  1.21581256E+00 -2.93624688E+00 -1.11924878E+00
  3.56971748E+00  1.84688952E-01 -3.68679803E-01  3.30354182E+00  1.96684050E+00
  2.75758379E-01  5.14673747E+00 -5.26159721E-01  4.38204906E-01 -1.10891014E+00
  2.46728868E+00  8.74471709E-02 -4.54495733E+00 -1.67267663E-01 -1.47122643E-01
Constraint Structure                       R   N=          30
 -1.01449921E+00  1.96860230E-01  2.76581260E-02 -3.09220002E+00 -1.27816003E+00
 -1.29007729E-01  1.37196615E+00 -1.35625631E+00  1.98950461E-01  1.35492279E+00
 -2.18664165E+00  2.10599970E+00  1.21581256E+00 -2.93624688E+00 -1.11924878E+00
  3.56971748E+00  1.84688952E-01 -3.68679803E-01  3.30354182E+00  1.96684050E+00
  2.75758379E-01  5.14673747E+00 -5.26159721E-01  4.38204906E-01 -1.10891014E+00
  2.46728868E+00  8.74471709E-02 -4.54495733E+00 -1.67267663E-01 -1.47122643E-01
Num ILSW                                   I              100
ILSW                                       I   N=         100
           0           0           0           0           0           0
           0           0           0           0           0          -1
           5           0           0           0           2           0
           0           0           0           0           1           0
           1           0           0           0           0           0
           0           0      100000           0          -1           0
           0           0           0           0           0           0
           0           0           0         101           0           0
           0 -2000000000           1           0           0           0
           0           0           4          41           0           0
           0           0           0           0           0           0
           0           0           0          10           0           1
           0           0           0           0           0           0
           0           0           0           0           0           0
           0           0           0           0           0           0
           0           0           0           0           0           0
           0           0           0           0
Num RLSW                                   I               41
RLSW                                       R   N=          41
  1.00000000E+00  1.00000000E+00  1.00000000E+00  1.00000000E+00  1.00000000E+00
  0.00000000E+00  0.00000000E+00  1.00000000E+00  0.00000000E+00  0.00000000E+00
  0.00000000E+00  0.00000000E+00  1.00000000E+00  0.00000000E+00  0.00000000E+00
  0.00000000E+00  0.00000000E+00  1.00000000E+00  0.00000000E+00  0.00000000E+00
  0.00000000E+00  0.00000000E+00  1.00000000E+00  0.00000000E+00  0.00000000E+00
  0.00000000E+00  0.00000000E+00  1.00000000E+00  0.00000000E+00  0.00000000E+00
  0.00000000E+00  0.00000000E+00  1.00000000E+00  0.00000000E+00  0.00000000E+00
  0.00000000E+00  0.00000000E+00  0.00000000E+00  1.00000000E+00  1.00000000E+00
  0.00000000E+00
MxBond                                     I                4
NBond                                      I   N=          10
           3           2           4           1           1           3
           1           1           1           1
IBond                                      I   N=          40
           2           3           9           0           1          10
           0           0           1           4           5           6
           3           0           0           0           3           0
           0           0           3           7           8           0
           6           0           0           0           6           0
           0           0           1           0           0           0
           2           0           0           0
RBond                                      R   N=          40
  1.00000000E+00  1.00000000E+00  2.00000000E+00  0.00000000E+00  1.00000000E+00
  1.00000000E+00  0.00000000E+00  0.00000000E+00  1.00000000E+00  1.00000000E+00
  1.00000000E+00  1.00000000E+00  1.00000000E+00  0.00000000E+00  0.00000000E+00
  0.00000000E+00  1.00000000E+00  0.00000000E+00  0.00000000E+00  0.00000000E+00
  1.00000000E+00  1.00000000E+00  1.00000000E+00  0.00000000E+00  1.00000000E+00
  0.00000000E+00  0.00000000E+00  0.00000000E+00  1.00000000E+00  0.00000000E+00
  0.00000000E+00  0.00000000E+00  2.00000000E+00  0.00000000E+00  0.00000000E+00
  0.00000000E+00  1.00000000E+00  0.00000000E+00  0.00000000E+00  0.00000000E+00
Virial Ratio                               R      0.000000000000000E+00
SCF Energy                                 R      6.314824124211375E-06
Total Energy                               R      6.314824124211375E-06
RMS Force                                  R      2.847284230998982E-05
External E-field                           R   N=         105
  0.00000000E+00  0.00000000E+00  0.00000000E+00  0.00000000E+00  0.00000000E+00
  0.00000000E+00  0.00000000E+00  0.00000000E+00  0.00000000E+00  0.00000000E+00
  0.00000000E+00  0.00000000E+00  0.00000000E+00  0.00000000E+00  0.00000000E+00
  0.00000000E+00  0.00000000E+00  0.00000000E+00  0.00000000E+00  0.00000000E+00
  0.00000000E+00  0.00000000E+00  0.00000000E+00  0.00000000E+00  0.00000000E+00
  0.00000000E+00  0.00000000E+00  0.00000000E+00  0.00000000E+00  0.00000000E+00
  0.00000000E+00  0.00000000E+00  0.00000000E+00  0.00000000E+00  0.00000000E+00
  0.00000000E+00  0.00000000E+00  0.00000000E+00  0.00000000E+00  0.00000000E+00
  0.00000000E+00  0.00000000E+00  0.00000000E+00  0.00000000E+00  0.00000000E+00
  0.00000000E+00  0.00000000E+00  0.00000000E+00  0.00000000E+00  0.00000000E+00
  0.00000000E+00  0.00000000E+00  0.00000000E+00  0.00000000E+00  0.00000000E+00
  0.00000000E+00  0.00000000E+00  0.00000000E+00  0.00000000E+00  0.00000000E+00
  0.00000000E+00  0.00000000E+00  0.00000000E+00  0.00000000E+00  0.00000000E+00
  0.00000000E+00  0.00000000E+00  0.00000000E+00  0.00000000E+00  0.00000000E+00
  0.00000000E+00  0.00000000E+00  0.00000000E+00  0.00000000E+00  0.00000000E+00
  0.00000000E+00  0.00000000E+00  0.00000000E+00  0.00000000E+00  0.00000000E+00
  0.00000000E+00  0.00000000E+00  0.00000000E+00  0.00000000E+00  0.00000000E+00
  0.00000000E+00  0.00000000E+00  0.00000000E+00  0.00000000E+00  0.00000000E+00
  0.00000000E+00  0.00000000E+00  0.00000000E+00  0.00000000E+00  0.00000000E+00
  0.00000000E+00  0.00000000E+00  0.00000000E+00  0.00000000E+00  0.00000000E+00
  0.00000000E+00  0.00000000E+00  0.00000000E+00  0.00000000E+00  0.00000000E+00
IOpCl                                      I                0
IROHF                                      I                0
Grdnt Energy                               R      6.314824124211375E-06
Grdnt NVar                                 I               36
Grdnt IGetFC                               I                4
Internal Forces                            R   N=          36
 -2.59286778E-07 -2.89614832E-07 -2.30431368E-07 -1.85416544E-07 -7.56211234E-06
  7.14130406E-06 -2.79208436E-07 -2.39531529E-06  2.00678266E-06 -9.46565202E-10
  2.21137974E-10  7.25368871E-10  2.06677769E-09  7.30440668E-05 -7.26389479E-05
 -1.58948316E-06 -1.61325972E-06 -8.14476240E-05  8.10616071E-05  3.94679326E-05
 -3.97345088E-05 -2.62363991E-07  4.95897002E-12 -4.95896996E-12 -1.80911452E-05
 -1.70347222E-05  3.51258702E-05 -1.80911470E-05 -1.70347241E-05  3.51258684E-05
  2.54602509E-05  2.55965478E-05 -1.21935657E-05 -1.20572689E-05 -1.34711304E-05
 -1.33348336E-05
Internal Force Constants                   R   N=         666
  8.92507706E-04 -4.85180472E-18  8.92507706E-04  1.44419691E-18  2.67142998E-19
  8.92507706E-04 -3.27082086E-18 -1.22873839E-18 -2.29838782E-19  8.92507706E-04
 -2.92734587E-18 -1.38235777E-18 -5.62429877E-19  2.25649577E-18  8.92507706E-04
  1.04693272E-18  1.99222149E-18  1.53228260E-18 -1.99052743E-19 -1.84653183E-19
  8.92507706E-04 -8.05429820E-19  9.45282505E-19  4.27507981E-18 -4.05856899E-18
 -2.22298639E-18  1.32004041E-18  8.92507706E-04  2.19550940E-18  3.90312782E-18
  1.13163602E-18  1.06726151E-18 -1.24683250E-18 -1.57209315E-18  1.74827600E-18
  8.92507706E-04 -5.21772296E-19 -1.15196481E-18  1.70253622E-19  1.10707206E-18
 -2.05490193E-18  3.31105179E-18 -2.47333621E-18  5.72594272E-19  8.92507706E-04
 -3.07642366E-18  1.52601456E-17  3.80275442E-18  2.21668522E-18  5.54340712E-18
  6.64920864E-19  8.34073343E-18  2.87567686E-18  3.18484388E-18  2.12506255E-03
  2.56142763E-18 -9.47152242E-18  3.66924085E-19 -1.76585194E-18 -1.65023194E-18
 -7.25960175E-19 -2.97689729E-18 -3.84764716E-19 -3.95860848E-18 -1.06254623E-03
  2.12321933E-03 -2.10402984E-18 -1.24039505E-17 -3.45547091E-18 -3.25218300E-18
 -3.91922145E-18 -2.48180654E-19 -4.74084341E-18 -2.09217138E-18 -1.35525272E-19
 -1.06212396E-03 -1.06140884E-03  2.12387665E-03 -6.34240798E-18  4.25213053E-18
 -1.21259183E-17  4.30457740E-18  2.40730462E-18  8.12753421E-19 -5.29543045E-18
 -5.91500574E-18  1.71065978E-18 -4.72494853E-18 -8.91187730E-18  1.10105267E-17
  3.18720287E-03 -2.68340038E-18  1.30104261E-18 -1.98883336E-18  3.55415025E-18
  1.28749008E-18 -1.85330809E-18 -3.92345661E-18 -5.52265482E-19 -4.40457133E-20
  1.75166413E-17 -7.01343280E-18 -1.05574187E-17 -1.02999206E-18  1.16307895E-03
  3.72694497E-18  4.93311988E-18 -1.70761842E-18  3.54398585E-18  2.43945489E-19
 -3.19162015E-18  7.07441918E-18  2.60208521E-18  8.47032947E-19  4.70272692E-18
 -9.62229428E-19 -3.41523684E-18  2.64274280E-18 -7.65516349E-06  1.13583457E-03
  4.05559375E-18 -3.00188477E-18  3.72652145E-18 -6.37244062E-18 -6.93296467E-18
  3.46775289E-18 -5.58025306E-18 -3.17150311E-18  1.52508282E-18 -3.55508198E-17
  1.41369799E-17  2.03135441E-17 -1.75759337E-18 -8.11092975E-04 -7.23433962E-04
  2.08086140E-03 -5.01443505E-19 -1.24683250E-18  1.16212920E-18 -1.95156391E-18
  5.21772296E-19  1.62630326E-18  4.06575815E-19  6.67461962E-19  1.55854062E-19
 -9.83913472E-18  2.95445092E-18  6.88468380E-18 -4.14707331E-18 -2.27146135E-04
 -1.93035580E-04  5.06770006E-04  5.42440835E-04  2.65629532E-18  3.25260652E-18
 -2.84603070E-18  3.01543729E-18  1.37558151E-18 -2.34458720E-18  3.68628739E-18
  9.62229428E-19  1.28749008E-18  1.58971144E-17 -6.32903018E-18 -9.86623977E-18
  4.60785923E-19 -4.92624551E-04  3.94814213E-04 -5.49371865E-04 -2.97551962E-04
  1.06802972E-03  6.64073831E-19  3.95733793E-18 -2.04643160E-18  7.89434707E-19
 -1.31798327E-18 -2.08370105E-18  1.63307952E-18 -2.86297136E-18  1.37558151E-18
 -5.96311195E-19 -1.14518854E-18  1.66696084E-18  1.15060956E-17  4.42306747E-04
 -4.94540249E-04 -5.98703904E-04 -3.29105133E-04 -1.37992891E-04  1.06413087E-03
  5.78692910E-18 -3.53043332E-18 -1.67543117E-18 -2.07692479E-18 -4.20043639E-18
 -1.49586018E-18 -4.47911023E-18 -4.98732999E-18  1.03592129E-18 -1.43046924E-17
  3.69645178E-18  1.00051532E-17  3.31698102E-18 -1.13908991E-17 -8.61940727E-18
  2.39473155E-17  7.94347498E-18 -4.09286320E-18 -6.50521303E-18  2.63161860E-03
  1.75505227E-18  5.25838054E-18  3.21364300E-18  4.36391374E-18  1.55515249E-18
  1.04523866E-18  2.53432258E-18  3.40337838E-18 -7.97905036E-19  1.17805342E-17
 -5.94617129E-18 -5.54975987E-18  3.38813179E-19  3.95733793E-18  2.28021269E-18
 -6.07153217E-18 -2.88668828E-18  1.59581007E-18 -1.46367293E-18 -5.41991434E-04
  2.65821132E-03 -1.57209315E-18 -1.95156391E-18  1.09097844E-18 -3.24583025E-18
  1.82281490E-18 -8.80914265E-20 -7.99599102E-19  4.06575815E-19 -1.36202898E-18
 -9.05308814E-18  5.57008866E-18  4.01154804E-18  4.49943902E-18  7.86046575E-19
 -2.78504433E-18  1.30104261E-18 -1.43317975E-18 -9.89334482E-19  3.79470760E-18
 -1.04289993E-03 -1.01763899E-03  1.22977021E-03 -1.08954907E-18 -1.49961889E-18
  1.16142610E-18 -3.85985635E-19 -6.82634109E-19  3.67590792E-19 -4.18209283E-19
 -4.33740426E-19 -1.53369212E-19 -7.20644606E-07 -2.56951938E-05  2.64279475E-05
 -4.53526586E-19  6.77434452E-19  1.37668166E-18 -1.57818120E-18 -4.42966799E-19
  1.24252454E-19 -1.50348348E-20 -9.17674172E-19 -4.84214987E-19  8.31260267E-19
  4.83025744E-07 -1.48482229E-19  6.73523542E-20  6.72884959E-19  2.45929068E-19
 -5.03063124E-19  1.83791260E-19 -4.88499783E-20 -3.63742748E-19 -3.03525654E-20
  7.20644606E-07  2.56951938E-05 -2.64279475E-05 -1.27414269E-18  1.09405555E-18
  7.43569196E-19 -1.24910890E-18 -1.62322615E-19 -1.75203471E-19 -7.87078896E-20
 -4.60375642E-20 -2.04824809E-19  2.28580609E-19 -4.83025744E-07  4.83025744E-07
  5.14996032E-19  1.00288701E-18 -1.32645360E-18 -5.60735811E-19 -2.13452303E-19
 -2.76132741E-19  2.87991202E-19  3.65918233E-19  4.91279109E-20 -2.35519275E-07
 -8.34442229E-06  8.57926646E-06 -9.48676901E-20 -2.09312761E-04 -7.75064841E-05
  5.77676716E-05 -2.11552679E-04  3.53913639E-04  4.81059728E-05 -8.87690529E-19
 -1.86347248E-19  6.43321523E-19  8.07936376E-08 -8.07936376E-08  2.36284573E-04
  8.53809211E-19  1.21972744E-18  1.25699689E-18 -2.84603070E-19  1.26038503E-18
 -1.01643954E-19  1.31459513E-18  1.48061359E-18  3.04931861E-19 -2.35519275E-07
 -8.34442229E-06  8.57926646E-06 -2.05998413E-18  8.69682039E-05  2.02071696E-04
 -7.39060383E-05  2.13737768E-04 -4.80335086E-05 -3.34864988E-04  2.34458720E-18
  1.71100655E-18 -2.66476565E-18  8.07936376E-08 -8.07936376E-08 -1.40645303E-04
  2.35210354E-04 -1.49077799E-19  1.30104261E-18 -1.02999206E-18  6.77626358E-19
  1.42301535E-19 -5.89534931E-19 -6.36968776E-19 -7.11507676E-20  4.06575815E-20
 -2.35519275E-07 -8.34442229E-06  8.57926646E-06 -3.38813179E-19  1.22344557E-04
 -1.24565212E-04  1.61383667E-05 -2.18508893E-06 -3.05880130E-04  2.86759015E-04
  1.62630326E-19 -1.83636743E-18  9.55453165E-19  8.07936376E-08 -8.07936376E-08
 -9.53263816E-05 -9.42521633E-05  1.89891433E-04 -8.13151629E-20 -1.09775470E-18
 -3.81164826E-19 -1.01813360E-18 -4.30292737E-19  5.57347679E-19  1.20617492E-18
  5.28548559E-19 -1.37219337E-19  2.35519275E-07  8.34442229E-06 -8.57926646E-06
 -5.86146799E-19 -2.09312761E-04 -7.75064841E-05  5.77676716E-05 -2.11552679E-04
  3.53913639E-04  4.81059728E-05 -3.25260652E-19  3.93023288E-19  3.85399991E-19
 -8.07936376E-08  8.07936376E-08  2.36075981E-04 -1.40853895E-04 -9.55349735E-05
  2.36284573E-04  5.69206141E-19  5.69206141E-19  4.50621528E-19  7.79270311E-19
  1.07742591E-18  3.01543729E-19  2.19550940E-18  1.32814766E-18 -2.23616698E-19
  2.35519275E-07  8.34442229E-06 -8.57926646E-06 -3.67273486E-18  8.69682039E-05
  2.02071696E-04 -7.39060383E-05  2.13737768E-04 -4.80335086E-05 -3.34864988E-04
  6.91178885E-19  2.84264257E-18 -2.06676039E-18 -8.07936376E-08  8.07936376E-08
 -1.40853895E-04  2.35001762E-04 -9.44607553E-05 -1.40645303E-04  2.35210354E-04
 -9.35124374E-19 -3.25260652E-19 -2.47333621E-19  7.45388994E-20 -1.21972744E-19
  7.58941521E-19 -1.16551734E-18 -3.08319993E-19 -7.04731412E-19  2.35519275E-07
  8.34442229E-06 -8.57926646E-06 -3.65918233E-19  1.22344557E-04 -1.24565212E-04
  1.61383667E-05 -2.18508893E-06 -3.05880130E-04  2.86759015E-04 -1.00288701E-18
 -2.26327204E-18  1.97189270E-18 -8.07936376E-08  8.07936376E-08 -9.55349735E-05
 -9.44607553E-05  1.89682841E-04 -9.53263816E-05 -9.42521633E-05  1.89891433E-04
  1.89735380E-19 -9.21571847E-19 -1.82959117E-19 -1.82959117E-19 -1.06387338E-18
 -7.86046575E-19  1.08420217E-19 -8.80914265E-20  2.71050543E-19  2.73761049E-18
 -1.69406589E-18 -7.86046575E-19 -3.22550146E-18  2.76288088E-04 -2.98374928E-04
  9.87171637E-06 -6.07786882E-07 -1.17185214E-04  1.18114875E-04 -4.86552071E-05
 -4.74794003E-05 -9.12362906E-05 -7.14895807E-19 -4.36221968E-20  1.39543966E-05
  1.37524340E-05 -2.77068306E-05  1.39543966E-05  1.37524340E-05 -2.77068306E-05
  2.81380359E-04 -3.62530101E-19 -2.69356477E-18  6.88637786E-19 -1.34170019E-18
  7.21672071E-19  2.95318037E-18 -2.83586631E-18  3.34578014E-19 -1.71100655E-18
  2.75201005E-18  1.01643954E-20 -2.51399379E-18 -1.25530283E-18  2.76288088E-04
 -2.98374928E-04  9.87171637E-06 -6.07786882E-07 -1.17185214E-04  1.18114875E-04
  4.86552071E-05  4.74794003E-05  9.12362906E-05 -4.57609550E-19  1.40025134E-20
  1.39543966E-05  1.37524340E-05 -2.77068306E-05  1.39543966E-05  1.37524340E-05
 -2.77068306E-05  1.03017707E-04  2.81380359E-04  2.65629532E-18  3.68628739E-18
 -1.96511644E-19  4.67562187E-19 -8.74138002E-19 -2.63596653E-18  3.33392168E-18
 -1.69406589E-19  2.00577402E-18 -1.11130723E-18  4.20128342E-19  8.40256684E-19
  3.52365706E-19 -2.95652908E-04 -2.48931727E-05 -9.77941561E-05  1.24473560E-04
  1.94015100E-04  8.14747561E-05 -4.86552071E-05 -4.74794003E-05 -9.12362906E-05
 -3.48130541E-19 -3.52789223E-19 -5.61378646E-07 -1.14862173E-05  1.20475959E-05
 -5.61378646E-07 -1.14862173E-05  1.20475959E-05 -4.30425761E-06 -1.82666909E-04
  3.18706201E-04  8.50421079E-19 -1.69406589E-19  5.26007460E-19 -1.63138546E-18
  2.54109884E-19 -7.40306796E-19  8.43644815E-19 -2.42251423E-19  3.54906805E-19
 -4.30631550E-18  2.22600259E-18  2.01255028E-18  1.20278679E-18 -2.95652908E-04
 -2.48931727E-05 -9.77941561E-05  1.24473560E-04  1.94015100E-04  8.14747561E-05
  4.86552071E-05  4.74794003E-05  9.12362906E-05 -1.15937635E-19 -2.08978910E-19
 -5.61378646E-07 -1.14862173E-05  1.20475959E-05 -5.61378646E-07 -1.14862173E-05
  1.20475959E-05 -1.82666909E-04 -4.30425761E-06  1.40343550E-04  3.18706201E-04
  1.19939865E-18  2.91379334E-18  1.37558151E-18  7.69105916E-19 -2.21245006E-18
 -8.04681300E-19  1.59919820E-18  1.05540305E-18  4.54009660E-19 -3.79470760E-19
  5.35324823E-19 -8.13151629E-20 -3.65240607E-18  1.93648192E-05  3.23268101E-04
  8.79224397E-05 -1.23865773E-04 -7.68298867E-05 -1.99589631E-04 -4.86552071E-05
 -4.74794003E-05 -9.12362906E-05 -2.66391862E-19 -3.40401366E-20 -1.33930180E-05
 -2.26621670E-06  1.56592347E-05 -1.33930180E-05 -2.26621670E-06  1.56592347E-05
 -9.53212425E-06 -1.87894776E-04 -4.68579667E-05 -2.25220618E-04  3.23934068E-04
  3.79470760E-19  1.35525272E-18  2.22261445E-18 -2.30392962E-19 -2.43945489E-19
  1.38235777E-18 -1.65340831E-18  7.58941521E-19 -1.50433051E-18  6.77626358E-19
  2.71050543E-18 -3.03576608E-18 -1.59919820E-18  1.93648192E-05  3.23268101E-04
  8.79224397E-05 -1.23865773E-04 -7.68298867E-05 -1.99589631E-04  4.86552071E-05
  4.74794003E-05  9.12362906E-05  4.39610100E-19  3.06625927E-19 -1.33930180E-05
 -2.26621670E-06  1.56592347E-05 -1.33930180E-05 -2.26621670E-06  1.56592347E-05
 -1.87894776E-04 -9.53212425E-06 -2.25220618E-04 -4.68579667E-05  1.45571417E-04
  3.23934068E-04