 Entering Gaussian System, Link 0=g09
 Input=mm_new.gjf
 Output=mm_new.log
 Initial command:
 /home/emanuele/chem_software/gaussian//gdv/l1.exe "/home/emanuele/chem_software/gaussian/scratch/Gau-14292.inp" -scrdir="/home/emanuele/chem_software/gaussian/scratch/"
 Entering Link 1 = /home/emanuele/chem_software/gaussian//gdv/l1.exe PID=     14294.
  
 Copyright (c) 1988-2020, Gaussian, Inc.  All Rights Reserved.
  
 This is the private, development version of
 the Gaussian(R) DV system of programs. It is based on
 the Gaussian(R) 16 system (copyright 2016, Gaussian, Inc.),
 the Gaussian(R) 09 system (copyright 2009, Gaussian, Inc.),
 the Gaussian(R) 03 system (copyright 2003, Gaussian, Inc.),
 the Gaussian(R) 98 system (copyright 1998, Gaussian, Inc.),
 the Gaussian(R) 94 system (copyright 1995, Gaussian, Inc.),
 the Gaussian 92(TM) system (copyright 1992, Gaussian, Inc.),
 the Gaussian 90(TM) system (copyright 1990, Gaussian, Inc.),
 the Gaussian 88(TM) system (copyright 1988, Gaussian, Inc.),
 the Gaussian 86(TM) system (copyright 1986, Carnegie Mellon
 University), and the Gaussian 82(TM) system (copyright 1983,
 Carnegie Mellon University). Gaussian is a federally registered
 trademark of Gaussian, Inc.
  
 This software contains proprietary and confidential information,
 including trade secrets, belonging to Gaussian, Inc.
  
 This software is provided under written license and may be
 used, copied, transmitted, or stored only in accord with that
 written license.
  
 The following legend is applicable only to US Government
 contracts under FAR:
  
                    RESTRICTED RIGHTS LEGEND
  
 Use, reproduction and disclosure by the US Government is
 subject to restrictions as set forth in subparagraphs (a)
 and (c) of the Commercial Computer Software - Restricted
 Rights clause in FAR 52.227-19.
  
 Gaussian, Inc.
 340 Quinnipiac St., Bldg. 40, Wallingford CT 06492
  
  
 ---------------------------------------------------------------
 Warning -- This program may not be used in any manner that
 competes with the business of Gaussian, Inc. or will provide
 assistance to any competitor of Gaussian, Inc.  The licensee
 of this program is prohibited from giving any competitor of
 Gaussian, Inc. access to this program.  By using this program,
 the user acknowledges that Gaussian, Inc. is engaged in the
 business of creating and licensing software in the field of
 computational chemistry and represents and warrants to the
 licensee that it is not a competitor of Gaussian, Inc. and that
 it will not use this program in any manner prohibited above.
 ---------------------------------------------------------------
  

 Cite this work as:
 Gaussian Development Version, Revision J.14,
 M. J. Frisch, G. W. Trucks, H. B. Schlegel, G. E. Scuseria, 
 M. A. Robb, J. R. Cheeseman, G. Scalmani, V. Barone, 
 G. A. Petersson, H. Nakatsuji, X. Li, A. V. Marenich, M. Caricato, 
 J. Bloino, B. G. Janesko, J. Zheng, R. Gomperts, B. Mennucci, 
 H. P. Hratchian, J. V. Ortiz, A. F. Izmaylov, J. L. Sonnenberg, 
 D. Williams-Young, F. Ding, F. Lipparini, F. Egidi, J. Goings, 
 B. Peng, A. Petrone, T. Henderson, D. Ranasinghe, V. G. Zakrzewski, 
 J. Gao, N. Rega, G. Zheng, W. Liang, M. Hada, M. Ehara, K. Toyota, 
 R. Fukuda, J. Hasegawa, M. Ishida, T. Nakajima, Y. Honda, O. Kitao, 
 H. Nakai, T. Vreven, K. Throssell, J. A. Montgomery, Jr., 
 J. E. Peralta, F. Ogliaro, M. J. Bearpark, J. J. Heyd, 
 E. N. Brothers, K. N. Kudin, V. N. Staroverov, T. A. Keith, 
 R. Kobayashi, J. Normand, K. Raghavachari, A. P. Rendell, 
 J. C. Burant, S. S. Iyengar, J. Tomasi, M. Cossi, J. M. Millam, 
 M. Klene, C. Adamo, R. Cammi, J. W. Ochterski, R. L. Martin, 
 K. Morokuma, O. Farkas, J. B. Foresman, and D. J. Fox, 
 Gaussian, Inc., Wallingford CT, 2020.
 
 ******************************************
 Gaussian DV:  ES64L-GDVRevJ.14 29-Dec-2020
                24-Nov-2023 
 ******************************************
 %mem=1GB
 %nprocshared=2
 Will use up to    2 processors via shared memory.
 %chk=mm_new.chk
 -------------------------------------------------
 #P Amber=Softonly Geom=Connectivity Freq=intmodes
 -------------------------------------------------
 1/10=4,18=20,30=1,37=210000000,38=1,56=2,57=2,64=303/1,3;
 2/9=110,12=2,40=1/2;
 3/5=30,11=9,25=1,30=1,41=10030000,43=2,71=2,140=1/1;
 4/20=11,22=2,24=3/2;
 7/8=21,25=1,44=-1/16;
 1/10=4,18=20,30=1,64=303/3;
 99//99;
 Leave Link    1 at Fri Nov 24 11:59:28 2023, MaxMem=   134217728 cpu:               0.1 elap:               0.0
 (Enter /home/emanuele/chem_software/gaussian//gdv/l101.exe)
 -------------------
 Title Card Required
 -------------------
 Symbolic Z-matrix:
 Charge =  0 Multiplicity = 1
 C-C-+0.000           -0.53685   0.10417   0.01464 
 O-OH--0.0000         -1.63632  -0.67637  -0.06827 
 C-CT--0.0000          0.72601  -0.7177    0.10528 
 H-HC-+0.0000          0.71699  -1.15712   1.11445 
 H-HC-+0.0000          0.64338  -1.5538   -0.59228 
 N-N3--0.0000          1.88901   0.09773  -0.1951 
 H-H-+0.000            1.74816   1.04081   0.14593 
 H-H-+0.000            2.72354  -0.27843   0.23189 
 O-O2--0.000          -0.58681   1.30563   0.04628 
 H-HO-+0.000          -2.40509  -0.08851  -0.07785 
 
 ITRead=  0  0  0  0  0  0  0  0  0  0
 MicOpt= -1 -1 -1 -1 -1 -1 -1 -1 -1 -1
 NAtoms=     10 NQM=       10 NQMF=       0 NMMI=      0 NMMIF=      0
                NMic=       0 NMicF=      0.
                    Isotopes and Nuclear Properties:
 (Nuclear quadrupole moments (NQMom) in fm**2, nuclear magnetic moments (NMagM)
  in nuclear magnetons)

  Atom         1           2           3           4           5           6           7           8           9          10
 IAtWgt=          12          16          12           1           1          14           1           1          16           1
 AtmWgt=  12.0000000  15.9949146  12.0000000   1.0078250   1.0078250  14.0030740   1.0078250   1.0078250  15.9949146   1.0078250
 NucSpn=           0           0           0           1           1           2           1           1           0           1
 AtZEff=  -0.0000000  -0.0000000  -0.0000000  -0.0000000  -0.0000000  -0.0000000  -0.0000000  -0.0000000  -0.0000000  -0.0000000
 NQMom=    0.0000000   0.0000000   0.0000000   0.0000000   0.0000000   2.0440000   0.0000000   0.0000000   0.0000000   0.0000000
 NMagM=    0.0000000   0.0000000   0.0000000   2.7928460   2.7928460   0.4037610   2.7928460   2.7928460   0.0000000   2.7928460
 AtZNuc=   6.0000000   8.0000000   6.0000000   1.0000000   1.0000000   7.0000000   1.0000000   1.0000000   8.0000000   1.0000000
 Generating MM parameters.
 Read MM parameter file:
 Include all MM classes

 MM sanity checks:
 All charges sum to:                0.00000000
 Charges of atoms sum to:           0.00000000
 WARNING -- There are centers with partial charges, but
 there is no Vanderwaals repulsion. Centers can collapse
 onto each other.
 MMInit generated parameter data with length LenPar=        1697.
 Leave Link  101 at Fri Nov 24 11:59:28 2023, MaxMem=   134217728 cpu:               0.5 elap:               0.3
 (Enter /home/emanuele/chem_software/gaussian//gdv/l103.exe)

 GradGradGradGradGradGradGradGradGradGradGradGradGradGradGradGradGradGrad
 Berny optimization.
 Initialization pass.
                           ----------------------------
                           !    Initial Parameters    !
                           ! (Angstroms and Degrees)  !
 --------------------------                            --------------------------
 ! Name  Definition              Value          Derivative Info.                !
 --------------------------------------------------------------------------------
 ! R1    R(1,2)                  1.3509         calculate D2E/DX2 analytically  !
 ! R2    R(1,3)                  1.5095         calculate D2E/DX2 analytically  !
 ! R3    R(1,9)                  1.2029         calculate D2E/DX2 analytically  !
 ! R4    R(2,10)                 0.9678         calculate D2E/DX2 analytically  !
 ! R5    R(3,4)                  1.1007         calculate D2E/DX2 analytically  !
 ! R6    R(3,5)                  1.092          calculate D2E/DX2 analytically  !
 ! R7    R(3,6)                  1.4518         calculate D2E/DX2 analytically  !
 ! R8    R(6,7)                  1.0127         calculate D2E/DX2 analytically  !
 ! R9    R(6,8)                  1.0101         calculate D2E/DX2 analytically  !
 ! A1    A(2,1,3)              111.7154         calculate D2E/DX2 analytically  !
 ! A2    A(2,1,9)              123.0182         calculate D2E/DX2 analytically  !
 ! A3    A(3,1,9)              125.2388         calculate D2E/DX2 analytically  !
 ! A4    A(1,2,10)             107.2257         calculate D2E/DX2 analytically  !
 ! A5    A(1,3,4)              105.4003         calculate D2E/DX2 analytically  !
 ! A6    A(1,3,5)              108.3736         calculate D2E/DX2 analytically  !
 ! A7    A(1,3,6)              110.6071         calculate D2E/DX2 analytically  !
 ! A8    A(4,3,5)              106.2232         calculate D2E/DX2 analytically  !
 ! A9    A(4,3,6)              114.8648         calculate D2E/DX2 analytically  !
 ! A10   A(5,3,6)              111.0079         calculate D2E/DX2 analytically  !
 ! A11   A(3,6,7)              109.9968         calculate D2E/DX2 analytically  !
 ! A12   A(3,6,8)              111.4207         calculate D2E/DX2 analytically  !
 ! A13   A(7,6,8)              108.6253         calculate D2E/DX2 analytically  !
 ! D1    D(3,1,2,10)           177.195          calculate D2E/DX2 analytically  !
 ! D2    D(9,1,2,10)            -0.9857         calculate D2E/DX2 analytically  !
 ! D3    D(2,1,3,4)            -71.8288         calculate D2E/DX2 analytically  !
 ! D4    D(2,1,3,5)             41.552          calculate D2E/DX2 analytically  !
 ! D5    D(2,1,3,6)            163.4539         calculate D2E/DX2 analytically  !
 ! D6    D(9,1,3,4)            106.3034         calculate D2E/DX2 analytically  !
 ! D7    D(9,1,3,5)           -140.3158         calculate D2E/DX2 analytically  !
 ! D8    D(9,1,3,6)            -18.4139         calculate D2E/DX2 analytically  !
 ! D9    D(1,3,6,7)             34.6533         calculate D2E/DX2 analytically  !
 ! D10   D(1,3,6,8)            155.1742         calculate D2E/DX2 analytically  !
 ! D11   D(4,3,6,7)            -84.4877         calculate D2E/DX2 analytically  !
 ! D12   D(4,3,6,8)             36.0331         calculate D2E/DX2 analytically  !
 ! D13   D(5,3,6,7)            154.9936         calculate D2E/DX2 analytically  !
 ! D14   D(5,3,6,8)            -84.4855         calculate D2E/DX2 analytically  !
 --------------------------------------------------------------------------------
 Trust Radius=3.00D-01 FncErr=1.00D-07 GrdErr=1.00D-07 EigMax=2.50D+02 EigMin=1.00D-04
 Number of steps in this run=      2 maximum allowed number of steps=      2.
 GradGradGradGradGradGradGradGradGradGradGradGradGradGradGradGradGradGrad

 Leave Link  103 at Fri Nov 24 11:59:28 2023, MaxMem=   134217728 cpu:               0.0 elap:               0.0
 (Enter /home/emanuele/chem_software/gaussian//gdv/l202.exe)
                          Input orientation:                          
 ---------------------------------------------------------------------
 Center     Atomic      Atomic             Coordinates (Angstroms)
 Number     Number       Type             X           Y           Z
 ---------------------------------------------------------------------
      1          6    20001002       -0.536850    0.104174    0.014636
      2          8    20001022       -1.636322   -0.676373   -0.068268
      3          6    20001001        0.726013   -0.717700    0.105280
      4          1    20001034        0.716994   -1.157121    1.114447
      5          1    20001034        0.643380   -1.553795   -0.592281
      6          7    20001020        1.889013    0.097733   -0.195097
      7          1    20001029        1.748159    1.040807    0.145925
      8          1    20001029        2.723536   -0.278432    0.231888
      9          8    20001025       -0.586810    1.305633    0.046275
     10          1    20001031       -2.405088   -0.088514   -0.077854
 ---------------------------------------------------------------------
                    Distance matrix (angstroms):
                    1          2          3          4          5
     1  C    0.000000
     2  O    1.350913   0.000000
     3  C    1.509475   2.369062   0.000000
     4  H    2.091070   2.677318   1.100723   0.000000
     5  H    2.123712   2.498299   1.092005   1.753764   0.000000
     6  N    2.434921   3.611553   1.451801   2.159443   2.106395
     7  H    2.473011   3.801223   2.034400   2.613852   2.915038
     8  H    3.289940   4.388258   2.049167   2.361613   2.575433
     9  O    1.202913   2.245650   2.412646   2.984301   3.177648
    10  H    1.880424   0.967818   3.198938   3.508689   3.421234
                    6          7          8          9         10
     6  N    0.000000
     7  H    1.012682   0.000000
     8  H    1.010072   1.642906   0.000000
     9  O    2.765318   2.352051   3.674521   0.000000
    10  H    4.299737   4.309861   5.141478   2.294600   0.000000
 Stoichiometry    C2H5NO2
 Framework group  C1[X(C2H5NO2)]
 Deg. of freedom    24
 Full point group                 C1      NOp   1
 Largest Abelian subgroup         C1      NOp   1
 Largest concise Abelian subgroup C1      NOp   1
                         Standard orientation:                         
 ---------------------------------------------------------------------
 Center     Atomic      Atomic             Coordinates (Angstroms)
 Number     Number       Type             X           Y           Z
 ---------------------------------------------------------------------
      1          6    20001002       -0.536850    0.104174    0.014636
      2          8    20001022       -1.636322   -0.676373   -0.068268
      3          6    20001001        0.726013   -0.717700    0.105280
      4          1    20001034        0.716994   -1.157121    1.114447
      5          1    20001034        0.643380   -1.553795   -0.592281
      6          7    20001020        1.889013    0.097733   -0.195097
      7          1    20001029        1.748159    1.040807    0.145925
      8          1    20001029        2.723536   -0.278432    0.231888
      9          8    20001025       -0.586810    1.305633    0.046275
     10          1    20001031       -2.405088   -0.088514   -0.077854
 ---------------------------------------------------------------------
 Rotational constants (GHZ):          10.4489861           3.9571341           2.9518000
 Leave Link  202 at Fri Nov 24 11:59:28 2023, MaxMem=   134217728 cpu:               0.0 elap:               0.0
 (Enter /home/emanuele/chem_software/gaussian//gdv/l301.exe)
 Standard basis: Dummy (5D, 7F)
 There are    10 symmetry adapted cartesian basis functions of A   symmetry.
 There are    10 symmetry adapted basis functions of A   symmetry.
    10 basis functions,    10 primitive gaussians,    10 cartesian basis functions
     7 alpha electrons        7 beta electrons
       nuclear repulsion energy        22.8502286820 Hartrees.
 IExCor=       0 DFT=F Ex=HF Corr=None N6=None ScaHFX=  1.000000
 ScaDFX=  1.000000  1.000000  1.000000  1.000000  1.000000  0.000000
 ScaDFX=  0.000000  0.000000  0.000000  0.000000  0.000000  0.000000
 IRadAn=      5 IRanWt=     -1 IRanGd=            0 ICorTp=0 IEmpDi=  4
 NAtoms=   10 NActive=   10 NUniq=   10 SFac= 1.00D+00 NAtFMM=   60 NAOKFM=F Big=F
 Integral buffers will be    131072 words long.
 Raffenetti 1 integral format.
 Two-electron integral symmetry is turned on.
 Leave Link  301 at Fri Nov 24 11:59:29 2023, MaxMem=   134217728 cpu:               0.1 elap:               0.1
 (Enter /home/emanuele/chem_software/gaussian//gdv/l402.exe)
 AMBER calculation of energy, first and second derivatives.
 Energy per function type:
 Direct Coulomb + vdW (small)                           0.000000000
 Direct Coulomb (large)                                 0.000000000
 Direct vdW (large)                                     0.000000000
 Non-direct Coulomb + vdW (small)                       0.000000000
 Non-direct Coulomb (large)                             0.000000000
 Non-direct vdW (large)                                 0.000000000
 Harmonic stretch I                                     0.000000066
 Harmonic bend I                                        0.000006249
 Energy per function class:
        Coulomb               0.000000000
    Vanderwaals               0.000000000
     Stretching               0.000000066
        Bending               0.000006249
 Energy=    6.314824124E-06 NIter=   0.
 Dipole moment=       0.000000       0.000000       0.000000
 Leave Link  402 at Fri Nov 24 11:59:29 2023, MaxMem=   134217728 cpu:               0.0 elap:               0.1
 (Enter /home/emanuele/chem_software/gaussian//gdv/l716.exe)
 Dipole        = 0.00000000D+00 0.00000000D+00 0.00000000D+00
 Full mass-weighted force constant matrix:
 Low frequencies ---   -8.6083   -4.2148   -0.0000    0.0000    0.0000    0.4034
 Low frequencies ---    1.2096    1.6970    5.9666
 ******    1 imaginary frequencies (negative Signs) ****** 
 Diagonal vibrational polarizability:
        0.0000000       0.0000000       0.0000000
 Harmonic frequencies (cm**-1), IR intensities (KM/Mole), Raman scattering
 activities (A**4/AMU), depolarization ratios for plane and unpolarized
 incident light, reduced masses (AMU), force constants (mDyne/A),
 and normal coordinates:
                      1                      2                      3
                      A                      A                      A
 Frequencies --     -7.1713                 1.6936                 4.8582
 Red. masses --      1.6911                 1.0878                 4.5868
 Frc consts  --      0.0001                 0.0000                 0.0001
 IR Inten    --      0.0000                 0.0000                 0.0000
  Atom  AN      X      Y      Z        X      Y      Z        X      Y      Z
     1   6    -0.00  -0.00  -0.08    -0.00   0.00   0.01    -0.03  -0.02   0.50
     2   8    -0.02  -0.01   0.12     0.00   0.00  -0.07     0.01   0.00  -0.14
     3   6    -0.00  -0.00  -0.11    -0.00  -0.00   0.01     0.01  -0.02   0.02
     4   1    -0.08  -0.16  -0.17    -0.00   0.00   0.01     0.24  -0.26  -0.09
     5   1     0.06   0.10  -0.25    -0.00  -0.00   0.01    -0.14   0.14  -0.15
     6   7     0.01   0.05   0.11    -0.00  -0.00   0.01    -0.06   0.05  -0.05
     7   1     0.20  -0.14   0.72    -0.00   0.00   0.01     0.10  -0.08   0.38
     8   1     0.07  -0.31  -0.34    -0.00   0.00   0.02     0.08  -0.16  -0.50
     9   8    -0.00  -0.00  -0.08     0.00   0.00  -0.02     0.03   0.00  -0.16
    10   1    -0.01  -0.00   0.11    -0.04  -0.04   0.99     0.01   0.00  -0.25
                      4                      5                      6
                      A                      A                      A
 Frequencies --      7.3271                27.6815                34.6734
 Red. masses --      1.4976                 6.4116                 7.0410
 Frc consts  --      0.0000                 0.0029                 0.0050
 IR Inten    --      0.0000                 0.0000                 0.0000
  Atom  AN      X      Y      Z        X      Y      Z        X      Y      Z
     1   6     0.00  -0.01   0.06    -0.13   0.09   0.09     0.03   0.05   0.02
     2   8    -0.02   0.01   0.06    -0.11  -0.05   0.00     0.45  -0.05   0.03
     3   6    -0.00  -0.04  -0.13     0.15  -0.03  -0.05    -0.12   0.04  -0.08
     4   1    -0.01  -0.29  -0.24     0.15  -0.18  -0.12    -0.15  -0.07  -0.13
     5   1    -0.00   0.13  -0.34     0.07   0.04  -0.13    -0.21   0.12  -0.16
     6   7     0.00   0.02   0.08     0.41  -0.17  -0.00    -0.21  -0.23   0.04
     7   1    -0.29   0.13  -0.34     0.48  -0.09  -0.21    -0.15  -0.22  -0.01
     8   1    -0.13   0.31   0.59     0.28  -0.20   0.24    -0.30  -0.31   0.14
     9   8     0.04  -0.01  -0.06    -0.32   0.19  -0.01    -0.18   0.24  -0.01
    10   1    -0.00   0.03   0.04    -0.17  -0.13  -0.00     0.33  -0.25   0.00
                      7                      8                      9
                      A                      A                      A
 Frequencies --     39.7398                50.7782                59.9672
 Red. masses --      9.6583                 3.3817                 4.9153
 Frc consts  --      0.0090                 0.0051                 0.0104
 IR Inten    --      0.0000                 0.0000                 0.0000
  Atom  AN      X      Y      Z        X      Y      Z        X      Y      Z
     1   6     0.11  -0.03  -0.03    -0.02  -0.08  -0.05     0.10   0.21   0.03
     2   8    -0.24  -0.42  -0.02    -0.01   0.13   0.00    -0.12  -0.04  -0.01
     3   6     0.03  -0.02   0.01     0.28  -0.23   0.03     0.27   0.28  -0.07
     4   1     0.03   0.02   0.02     0.39  -0.15   0.08     0.37   0.27  -0.11
     5   1     0.05  -0.03   0.02     0.45  -0.29   0.05     0.28   0.31  -0.05
     6   7    -0.11   0.00   0.01    -0.15   0.01   0.01    -0.17  -0.21   0.05
     7   1    -0.16  -0.02   0.06    -0.40  -0.07   0.15    -0.11  -0.21   0.01
     8   1    -0.08   0.04  -0.05     0.02   0.22  -0.15    -0.27  -0.28   0.15
     9   8     0.27   0.49   0.03    -0.09   0.10  -0.00    -0.02  -0.15  -0.00
    10   1    -0.31  -0.52  -0.04     0.06   0.24   0.01    -0.18  -0.10  -0.01
                     10                     11                     12
                      A                      A                      A
 Frequencies --     97.9268               105.8739               117.4418
 Red. masses --      4.3089                 4.1191                 1.3524
 Frc consts  --      0.0243                 0.0272                 0.0110
 IR Inten    --      0.0000                 0.0000                 0.0000
  Atom  AN      X      Y      Z        X      Y      Z        X      Y      Z
     1   6    -0.24   0.41  -0.04     0.42   0.18  -0.02    -0.07  -0.06  -0.05
     2   8     0.09  -0.06   0.01    -0.07  -0.02  -0.00     0.01   0.01   0.00
     3   6     0.03  -0.18   0.05    -0.06  -0.14   0.10     0.02   0.06   0.10
     4   1    -0.01  -0.32   0.09    -0.24  -0.56   0.09     0.04  -0.53  -0.04
     5   1    -0.04  -0.14  -0.10    -0.32   0.16  -0.26     0.09   0.55  -0.24
     6   7    -0.01   0.02  -0.01    -0.02   0.03  -0.01    -0.03  -0.03   0.02
     7   1    -0.16   0.01   0.02    -0.08   0.08  -0.11     0.17   0.12  -0.38
     8   1     0.13   0.19  -0.16     0.15   0.17  -0.27     0.15  -0.02  -0.32
     9   8     0.10  -0.07   0.00    -0.15  -0.03  -0.01     0.02   0.01   0.00
    10   1    -0.26  -0.63  -0.04    -0.03   0.09   0.00     0.03   0.03   0.00
                     13                     14                     15
                      A                      A                      A
 Frequencies --    135.5136               152.4196               156.4437
 Red. masses --      1.2799                 1.0110                 1.0452
 Frc consts  --      0.0138                 0.0138                 0.0151
 IR Inten    --      0.0000                 0.0000                 0.0000
  Atom  AN      X      Y      Z        X      Y      Z        X      Y      Z
     1   6    -0.01  -0.01  -0.03    -0.00  -0.00  -0.00    -0.00   0.00  -0.01
     2   8     0.00   0.00   0.00    -0.00  -0.00   0.00    -0.00   0.00   0.00
     3   6     0.01   0.01   0.07    -0.01   0.00  -0.00     0.00  -0.01  -0.00
     4   1     0.10  -0.33   0.16    -0.02   0.12  -0.26     0.10  -0.04  -0.00
     5   1    -0.08   0.36   0.02    -0.10   0.31   0.25    -0.07   0.12   0.11
     6   7     0.04   0.02  -0.12    -0.00  -0.01  -0.00    -0.02  -0.03  -0.04
     7   1    -0.15  -0.31   0.48    -0.35  -0.39   0.05    -0.12   0.80   0.27
     8   1    -0.40  -0.00   0.44     0.68   0.11   0.07     0.30  -0.29   0.24
     9   8     0.00   0.00  -0.00     0.00   0.00  -0.00    -0.00  -0.00   0.00
    10   1     0.01   0.01   0.00     0.01   0.00   0.00     0.01  -0.01   0.00
                     16                     17                     18
                      A                      A                      A
 Frequencies --    157.1093               157.7989               164.8002
 Red. masses --      1.0581                 1.0734                 1.2325
 Frc consts  --      0.0154                 0.0157                 0.0197
 IR Inten    --      0.0000                 0.0000                 0.0000
  Atom  AN      X      Y      Z        X      Y      Z        X      Y      Z
     1   6    -0.00   0.01   0.00    -0.01  -0.01   0.01    -0.00  -0.00   0.02
     2   8    -0.05   0.02  -0.00     0.00  -0.00  -0.00     0.00   0.00  -0.00
     3   6     0.00   0.00  -0.00    -0.00   0.06  -0.02     0.01  -0.02  -0.13
     4   1     0.00  -0.00   0.01    -0.06  -0.17   0.62    -0.26  -0.10   0.65
     5   1    -0.00  -0.01  -0.01     0.05  -0.33  -0.40     0.08   0.39   0.47
     6   7     0.00   0.00   0.00    -0.02   0.01  -0.02     0.02  -0.02   0.03
     7   1     0.00  -0.01  -0.00    -0.06  -0.18  -0.02    -0.08   0.08  -0.03
     8   1    -0.00   0.00  -0.00     0.44  -0.17   0.21    -0.09   0.15  -0.21
     9   8    -0.00  -0.00  -0.00     0.00   0.00   0.00    -0.00   0.00  -0.00
    10   1     0.92  -0.40   0.02     0.00   0.04   0.00    -0.01  -0.01  -0.00
                     19                     20                     21
                      A                      A                      A
 Frequencies --    170.7045               174.5909               177.3115
 Red. masses --      1.2527                 1.2793                 1.0786
 Frc consts  --      0.0215                 0.0230                 0.0200
 IR Inten    --      0.0000                 0.0000                 0.0000
  Atom  AN      X      Y      Z        X      Y      Z        X      Y      Z
     1   6    -0.03  -0.01  -0.00    -0.05   0.08  -0.01    -0.00   0.02   0.04
     2   8     0.00  -0.03  -0.00     0.00  -0.10  -0.00     0.00  -0.01  -0.00
     3   6     0.01   0.07   0.03     0.00  -0.03  -0.01     0.00  -0.00   0.03
     4   1    -0.12   0.07   0.03     0.13  -0.02   0.02    -0.68   0.01  -0.20
     5   1    -0.22  -0.15  -0.31    -0.07   0.04   0.12     0.68   0.01  -0.05
     6   7     0.06  -0.09   0.00    -0.02   0.03   0.01    -0.00  -0.01  -0.05
     7   1    -0.48   0.20   0.29     0.14  -0.05  -0.09    -0.05   0.05   0.07
     8   1    -0.06   0.50  -0.34    -0.00  -0.12   0.07     0.01  -0.05   0.07
     9   8     0.01   0.00   0.00     0.01  -0.00   0.00     0.00  -0.00  -0.00
    10   1     0.11   0.25   0.02     0.39   0.86   0.05     0.06   0.12   0.01
                     22                     23                     24
                      A                      A                      A
 Frequencies --    198.0020               230.8229               244.7549
 Red. masses --      1.3535                 1.1184                 1.0986
 Frc consts  --      0.0313                 0.0351                 0.0388
 IR Inten    --      0.0000                 0.0000                 0.0000
  Atom  AN      X      Y      Z        X      Y      Z        X      Y      Z
     1   6     0.03   0.03  -0.00     0.00   0.00   0.00     0.00   0.00   0.00
     2   8    -0.00  -0.00  -0.00     0.00  -0.00  -0.00    -0.00  -0.00  -0.00
     3   6    -0.16   0.03  -0.01    -0.03  -0.09   0.02     0.00   0.00  -0.01
     4   1     0.64  -0.19   0.02     0.15   0.63   0.24    -0.02  -0.01   0.00
     5   1     0.66  -0.10   0.12     0.15   0.48  -0.50     0.01  -0.00   0.01
     6   7     0.03  -0.03   0.01     0.00  -0.00  -0.00    -0.06  -0.05  -0.02
     7   1    -0.14   0.01   0.06     0.03   0.01  -0.00     0.66   0.04   0.25
     8   1     0.04   0.15  -0.10    -0.01  -0.00   0.01     0.21   0.64   0.21
     9   8    -0.00  -0.00  -0.00    -0.00  -0.00  -0.00    -0.00  -0.00  -0.00
    10   1     0.01   0.01   0.00     0.00   0.00  -0.00     0.00   0.00  -0.00

 -------------------
 - Thermochemistry -
 -------------------
 Temperature   298.150 Kelvin.  Pressure      1.00000 Atm.
 Atom     1 has atomic number  6 and mass  12.00000
 Atom     2 has atomic number  8 and mass  15.99491
 Atom     3 has atomic number  6 and mass  12.00000
 Atom     4 has atomic number  1 and mass   1.00783
 Atom     5 has atomic number  1 and mass   1.00783
 Atom     6 has atomic number  7 and mass  14.00307
 Atom     7 has atomic number  1 and mass   1.00783
 Atom     8 has atomic number  1 and mass   1.00783
 Atom     9 has atomic number  8 and mass  15.99491
 Atom    10 has atomic number  1 and mass   1.00783
 Molecular mass:    75.03203 amu.
 Principal axes and moments of inertia in atomic units:
                                 1                 2                 3
     Eigenvalues --          172.719265        456.072796        611.403614
           X                   0.999892         -0.007942          0.012399
           Y                   0.008029          0.999944         -0.006947
           Z                  -0.012343          0.007045          0.999899
 This molecule is an asymmetric top.
 Rotational symmetry number  1.
 Rotational temperatures (Kelvin)      0.50147     0.18991     0.14166
 Rotational constants (GHZ):          10.44899     3.95713     2.95180
    1 imaginary frequencies ignored.
 Zero-point vibrational energy      15959.6 (Joules/Mol)
                                    3.81443 (Kcal/Mol)
 Warning -- explicit consideration of  23 degrees of freedom as
           vibrations may cause significant error
 Vibrational temperatures:      2.44     6.99    10.54    39.83    49.89
          (Kelvin)             57.18    73.06    86.28   140.89   152.33
                              168.97   194.97   219.30   225.09   226.05
                              227.04   237.11   245.61   251.20   255.11
                              284.88   332.10   352.15
 
 Zero-point correction=                           0.006079 (Hartree/Particle)
 Thermal correction to Energy=                    0.025328
 Thermal correction to Enthalpy=                  0.026272
 Thermal correction to Gibbs Free Energy=        -0.049085
 Sum of electronic and zero-point Energies=              0.006085
 Sum of electronic and thermal Energies=                 0.025334
 Sum of electronic and thermal Enthalpies=               0.026278
 Sum of electronic and thermal Free Energies=           -0.049078
 
                     E (Thermal)             CV                S
                      KCal/Mol        Cal/Mol-Kelvin    Cal/Mol-Kelvin
 Total                   15.893             50.070            158.601
 Electronic               0.000              0.000              0.000
 Translational            0.889              2.981             38.862
 Rotational               0.889              2.981             25.380
 Vibrational             14.116             44.108             94.360
 Vibration     1          0.592              1.987             11.540
 Vibration     2          0.593              1.987              9.446
 Vibration     3          0.593              1.987              8.629
 Vibration     4          0.593              1.984              5.989
 Vibration     5          0.594              1.983              5.542
 Vibration     6          0.594              1.981              5.272
 Vibration     7          0.595              1.977              4.787
 Vibration     8          0.597              1.973              4.458
 Vibration     9          0.603              1.951              3.495
 Vibration    10          0.605              1.945              3.343
 Vibration    11          0.608              1.935              3.142
 Vibration    12          0.613              1.918              2.866
 Vibration    13          0.619              1.900              2.642
 Vibration    14          0.620              1.895              2.592
 Vibration    15          0.621              1.895              2.584
 Vibration    16          0.621              1.894              2.576
 Vibration    17          0.623              1.886              2.494
 Vibration    18          0.626              1.879              2.428
 Vibration    19          0.627              1.874              2.385
 Vibration    20          0.628              1.870              2.357
 Vibration    21          0.637              1.843              2.152
 Vibration    22          0.653              1.794              1.873
 Vibration    23          0.660              1.771              1.768
                       Q            Log10(Q)             Ln(Q)
 Total Bot       0.377841D+23         22.577309         51.986176
 Total V=0       0.236215D+26         25.373307         58.424199
 Vib (Bot)       0.188273D+11         10.274788         23.658574
 Vib (Bot)    1  0.122357D+03          2.087628          4.806940
 Vib (Bot)    2  0.426540D+02          1.629960          3.753122
 Vib (Bot)    3  0.282804D+02          1.451486          3.342170
 Vib (Bot)    4  0.748046D+01          0.873929          2.012295
 Vib (Bot)    5  0.596951D+01          0.775938          1.786664
 Vib (Bot)    6  0.520655D+01          0.716550          1.649918
 Vib (Bot)    7  0.407078D+01          0.609678          1.403835
 Vib (Bot)    8  0.344360D+01          0.537013          1.236518
 Vib (Bot)    9  0.209656D+01          0.321506          0.740296
 Vib (Bot)   10  0.193615D+01          0.286939          0.660702
 Vib (Bot)   11  0.174109D+01          0.240822          0.554513
 Vib (Bot)   12  0.150227D+01          0.176747          0.406976
 Vib (Bot)   13  0.132940D+01          0.123654          0.284725
 Vib (Bot)   14  0.129365D+01          0.111818          0.257471
 Vib (Bot)   15  0.128792D+01          0.109887          0.253025
 Vib (Bot)   16  0.128202D+01          0.107895          0.248436
 Vib (Bot)   17  0.122489D+01          0.088099          0.202855
 Vib (Bot)   18  0.118028D+01          0.071986          0.165753
 Vib (Bot)   19  0.115252D+01          0.061650          0.141954
 Vib (Bot)   20  0.113380D+01          0.054536          0.125574
 Vib (Bot)   21  0.100780D+01          0.003375          0.007771
 Vib (Bot)   22  0.852979D+00         -0.069062         -0.159020
 Vib (Bot)   23  0.799380D+00         -0.097247         -0.223919
 Vib (V=0)       0.117703D+14         13.070786         30.096597
 Vib (V=0)    1  0.122858D+03          2.089402          4.811027
 Vib (V=0)    2  0.431570D+02          1.635051          3.764844
 Vib (V=0)    3  0.287848D+02          1.459164          3.359849
 Vib (V=0)    4  0.799716D+01          0.902936          2.079086
 Vib (V=0)    5  0.649041D+01          0.812272          1.870326
 Vib (V=0)    6  0.573051D+01          0.758193          1.745804
 Vib (V=0)    7  0.460137D+01          0.662888          1.526355
 Vib (V=0)    8  0.397971D+01          0.599852          1.381210
 Vib (V=0)    9  0.265535D+01          0.424122          0.976578
 Vib (V=0)   10  0.249967D+01          0.397883          0.916159
 Vib (V=0)   11  0.231147D+01          0.363887          0.837882
 Vib (V=0)   12  0.208329D+01          0.318750          0.733949
 Vib (V=0)   13  0.192031D+01          0.283372          0.652489
 Vib (V=0)   14  0.188692D+01          0.275753          0.634945
 Vib (V=0)   15  0.188157D+01          0.274520          0.632105
 Vib (V=0)   16  0.187607D+01          0.273249          0.629180
 Vib (V=0)   17  0.182301D+01          0.260790          0.600491
 Vib (V=0)   18  0.178182D+01          0.250864          0.577636
 Vib (V=0)   19  0.175631D+01          0.244601          0.563214
 Vib (V=0)   20  0.173915D+01          0.240338          0.553398
 Vib (V=0)   21  0.162502D+01          0.210858          0.485518
 Vib (V=0)   22  0.148872D+01          0.172814          0.397919
 Vib (V=0)   23  0.144287D+01          0.159228          0.366636
 Electronic      0.100000D+01          0.000000          0.000000
 Translational   0.255461D+08          7.407324         17.055994
 Rotational      0.785592D+05          4.895197         11.271608
                           ----------------------------
                           ! Normal Mode     1        !
 --------------------------                            --------------------------
 ! Name  Definition              Value          Relative Weight (%)             !
 --------------------------------------------------------------------------------
 ! D2    D(9,1,2,10)             0.0773                  2.8                    !
 ! D3    D(2,1,3,4)              0.1674                  6.1                    !
 ! D4    D(2,1,3,5)              0.1684                  6.1                    !
 ! D5    D(2,1,3,6)              0.1687                  6.1                    !
 ! D6    D(9,1,3,4)              0.0989                  3.6                    !
 ! D7    D(9,1,3,5)              0.0999                  3.6                    !
 ! D8    D(9,1,3,6)              0.1002                  3.6                    !
 ! D9    D(1,3,6,7)              0.3045                 11.0                    !
 ! D10   D(1,3,6,8)              0.3101                 11.2                    !
 ! D11   D(4,3,6,7)              0.3058                 11.1                    !
 ! D12   D(4,3,6,8)              0.3113                 11.3                    !
 ! D13   D(5,3,6,7)              0.3048                 11.0                    !
 ! D14   D(5,3,6,8)              0.3104                 11.2                    !
 --------------------------------------------------------------------------------
                           ----------------------------
                           ! Normal Mode     2        !
 --------------------------                            --------------------------
 ! Name  Definition              Value          Relative Weight (%)             !
 --------------------------------------------------------------------------------
 ! D1    D(3,1,2,10)            -0.6076                 42.8                    !
 ! D2    D(9,1,2,10)            -0.6544                 46.0                    !
 ! D3    D(2,1,3,4)             -0.0316                  2.2                    !
 ! D4    D(2,1,3,5)             -0.0316                  2.2                    !
 ! D5    D(2,1,3,6)             -0.0316                  2.2                    !
 --------------------------------------------------------------------------------
                           ----------------------------
                           ! Normal Mode     3        !
 --------------------------                            --------------------------
 ! Name  Definition              Value          Relative Weight (%)             !
 --------------------------------------------------------------------------------
 ! D1    D(3,1,2,10)             0.2648                  6.6                    !
 ! D2    D(9,1,2,10)            -0.5291                 13.2                    !
 ! D3    D(2,1,3,4)             -0.2974                  7.4                    !
 ! D4    D(2,1,3,5)             -0.3021                  7.6                    !
 ! D5    D(2,1,3,6)             -0.2971                  7.4                    !
 ! D6    D(9,1,3,4)              0.5175                 12.9                    !
 ! D7    D(9,1,3,5)              0.5129                 12.8                    !
 ! D8    D(9,1,3,6)              0.5179                 12.9                    !
 ! D9    D(1,3,6,7)              0.111                   2.8                    !
 ! D10   D(1,3,6,8)              0.1156                  2.9                    !
 ! D11   D(4,3,6,7)              0.1105                  2.8                    !
 ! D12   D(4,3,6,8)              0.115                   2.9                    !
 ! D13   D(5,3,6,7)              0.1165                  2.9                    !
 ! D14   D(5,3,6,8)              0.1211                  3.0                    !
 --------------------------------------------------------------------------------
                           ----------------------------
                           ! Normal Mode     4        !
 --------------------------                            --------------------------
 ! Name  Definition              Value          Relative Weight (%)             !
 --------------------------------------------------------------------------------
 ! D1    D(3,1,2,10)             0.086                   2.4                    !
 ! D2    D(9,1,2,10)            -0.0554                  1.5                    !
 ! D3    D(2,1,3,4)              0.0838                  2.3                    !
 ! D4    D(2,1,3,5)              0.0836                  2.3                    !
 ! D5    D(2,1,3,6)              0.0827                  2.3                    !
 ! D6    D(9,1,3,4)              0.2289                  6.4                    !
 ! D7    D(9,1,3,5)              0.2288                  6.4                    !
 ! D8    D(9,1,3,6)              0.2279                  6.4                    !
 ! D9    D(1,3,6,7)             -0.4109                 11.5                    !
 ! D10   D(1,3,6,8)             -0.4154                 11.6                    !
 ! D11   D(4,3,6,7)             -0.4122                 11.5                    !
 ! D12   D(4,3,6,8)             -0.4167                 11.6                    !
 ! D13   D(5,3,6,7)             -0.4115                 11.5                    !
 ! D14   D(5,3,6,8)             -0.416                  11.6                    !
 --------------------------------------------------------------------------------
                           ----------------------------
                           ! Normal Mode     5        !
 --------------------------                            --------------------------
 ! Name  Definition              Value          Relative Weight (%)             !
 --------------------------------------------------------------------------------
 ! R1    R(1,2)                  0.0689                  2.5                    !
 ! R2    R(1,3)                  0.2857                 10.3                    !
 ! R3    R(1,9)                  0.102                   3.7                    !
 ! R7    R(3,6)                  0.1247                  4.5                    !
 ! A3    A(3,1,9)                0.0698                  2.5                    !
 ! A7    A(1,3,6)                0.1307                  4.7                    !
 ! D1    D(3,1,2,10)             0.0621                  2.2                    !
 ! D2    D(9,1,2,10)            -0.0815                  2.9                    !
 ! D4    D(2,1,3,5)             -0.0449                  1.6                    !
 ! D6    D(9,1,3,4)              0.1545                  5.6                    !
 ! D7    D(9,1,3,5)              0.1002                  3.6                    !
 ! D8    D(9,1,3,6)              0.1202                  4.3                    !
 ! D9    D(1,3,6,7)             -0.1827                  6.6                    !
 ! D10   D(1,3,6,8)             -0.1828                  6.6                    !
 ! D11   D(4,3,6,7)             -0.238                   8.6                    !
 ! D12   D(4,3,6,8)             -0.2382                  8.6                    !
 ! D13   D(5,3,6,7)             -0.1566                  5.6                    !
 ! D14   D(5,3,6,8)             -0.1568                  5.6                    !
 --------------------------------------------------------------------------------
                           ----------------------------
                           ! Normal Mode     6        !
 --------------------------                            --------------------------
 ! Name  Definition              Value          Relative Weight (%)             !
 --------------------------------------------------------------------------------
 ! R1    R(1,2)                 -0.2831                 13.0                    !
 ! R2    R(1,3)                 -0.1297                  6.0                    !
 ! R3    R(1,9)                  0.1994                  9.2                    !
 ! R7    R(3,6)                 -0.2517                 11.6                    !
 ! A1    A(2,1,3)               -0.1586                  7.3                    !
 ! A2    A(2,1,9)                0.0358                  1.6                    !
 ! A3    A(3,1,9)                0.1244                  5.7                    !
 ! A7    A(1,3,6)                0.0432                  2.0                    !
 ! D1    D(3,1,2,10)             0.0442                  2.0                    !
 ! D3    D(2,1,3,4)              0.0289                  1.3                    !
 ! D6    D(9,1,3,4)              0.0823                  3.8                    !
 ! D7    D(9,1,3,5)              0.0623                  2.9                    !
 ! D8    D(9,1,3,6)              0.0601                  2.8                    !
 ! D9    D(1,3,6,7)             -0.0734                  3.4                    !
 ! D10   D(1,3,6,8)             -0.0854                  3.9                    !
 ! D11   D(4,3,6,7)             -0.0998                  4.6                    !
 ! D12   D(4,3,6,8)             -0.1118                  5.1                    !
 ! D13   D(5,3,6,7)             -0.0782                  3.6                    !
 ! D14   D(5,3,6,8)             -0.0903                  4.2                    !
 --------------------------------------------------------------------------------
                           ----------------------------
                           ! Normal Mode     7        !
 --------------------------                            --------------------------
 ! Name  Definition              Value          Relative Weight (%)             !
 --------------------------------------------------------------------------------
 ! R1    R(1,2)                  0.5136                 25.3                    !
 ! R2    R(1,3)                 -0.0716                  3.5                    !
 ! R3    R(1,9)                  0.5146                 25.4                    !
 ! R7    R(3,6)                 -0.0978                  4.8                    !
 ! A1    A(2,1,3)               -0.0591                  2.9                    !
 ! A2    A(2,1,9)                0.129                   6.4                    !
 ! A3    A(3,1,9)               -0.0713                  3.5                    !
 ! A7    A(1,3,6)               -0.0523                  2.6                    !
 ! D2    D(9,1,2,10)             0.0353                  1.7                    !
 ! D6    D(9,1,3,4)             -0.0449                  2.2                    !
 ! D8    D(9,1,3,6)             -0.0311                  1.5                    !
 ! D9    D(1,3,6,7)              0.038                   1.9                    !
 ! D10   D(1,3,6,8)              0.0357                  1.8                    !
 ! D11   D(4,3,6,7)              0.0587                  2.9                    !
 ! D12   D(4,3,6,8)              0.0563                  2.8                    !
 ! D13   D(5,3,6,7)              0.0286                  1.4                    !
 ! D14   D(5,3,6,8)              0.0262                  1.3                    !
 --------------------------------------------------------------------------------
                           ----------------------------
                           ! Normal Mode     8        !
 --------------------------                            --------------------------
 ! Name  Definition              Value          Relative Weight (%)             !
 --------------------------------------------------------------------------------
 ! R1    R(1,2)                 -0.1328                  5.5                    !
 ! R2    R(1,3)                  0.3437                 14.3                    !
 ! R3    R(1,9)                  0.187                   7.8                    !
 ! R6    R(3,5)                  0.0246                  1.0                    !
 ! R7    R(3,6)                 -0.2088                  8.7                    !
 ! A1    A(2,1,3)                0.0783                  3.3                    !
 ! A2    A(2,1,9)               -0.0856                  3.6                    !
 ! A5    A(1,3,4)                0.0374                  1.6                    !
 ! A6    A(1,3,5)                0.0609                  2.5                    !
 ! A7    A(1,3,6)               -0.1529                  6.4                    !
 ! A8    A(4,3,5)                0.023                   1.0                    !
 ! A10   A(5,3,6)                0.0277                  1.2                    !
 ! A11   A(3,6,7)               -0.0244                  1.0                    !
 ! D1    D(3,1,2,10)            -0.0273                  1.1                    !
 ! D2    D(9,1,2,10)             0.0386                  1.6                    !
 ! D3    D(2,1,3,4)             -0.0301                  1.3                    !
 ! D4    D(2,1,3,5)              0.0413                  1.7                    !
 ! D5    D(2,1,3,6)              0.0195                  0.8                    !
 ! D6    D(9,1,3,4)             -0.0997                  4.1                    !
 ! D7    D(9,1,3,5)             -0.0283                  1.2                    !
 ! D8    D(9,1,3,6)             -0.0501                  2.1                    !
 ! D9    D(1,3,6,7)              0.0848                  3.5                    !
 ! D10   D(1,3,6,8)              0.081                   3.4                    !
 ! D11   D(4,3,6,7)              0.1396                  5.8                    !
 ! D12   D(4,3,6,8)              0.1358                  5.7                    !
 ! D13   D(5,3,6,7)              0.078                   3.2                    !
 ! D14   D(5,3,6,8)              0.0742                  3.1                    !
 --------------------------------------------------------------------------------
                           ----------------------------
                           ! Normal Mode     9        !
 --------------------------                            --------------------------
 ! Name  Definition              Value          Relative Weight (%)             !
 --------------------------------------------------------------------------------
 ! R1    R(1,2)                  0.3283                 13.4                    !
 ! R2    R(1,3)                  0.1006                  4.1                    !
 ! R3    R(1,9)                 -0.3546                 14.4                    !
 ! R5    R(3,4)                 -0.0368                  1.5                    !
 ! R6    R(3,5)                 -0.0352                  1.4                    !
 ! R7    R(3,6)                 -0.656                  26.7                    !
 ! R8    R(6,7)                 -0.029                   1.2                    !
 ! A1    A(2,1,3)                0.0207                  0.8                    !
 ! A2    A(2,1,9)               -0.0273                  1.1                    !
 ! A7    A(1,3,6)                0.1124                  4.6                    !
 ! A9    A(4,3,6)               -0.0466                  1.9                    !
 ! A10   A(5,3,6)               -0.0402                  1.6                    !
 ! A12   A(3,6,8)               -0.0348                  1.4                    !
 ! D1    D(3,1,2,10)             0.042                   1.7                    !
 ! D2    D(9,1,2,10)            -0.017                   0.7                    !
 ! D3    D(2,1,3,4)             -0.0262                  1.1                    !
 ! D4    D(2,1,3,5)             -0.0441                  1.8                    !
 ! D5    D(2,1,3,6)             -0.0325                  1.3                    !
 ! D6    D(9,1,3,4)              0.0336                  1.4                    !
 ! D7    D(9,1,3,5)              0.0157                  0.6                    !
 ! D8    D(9,1,3,6)              0.0273                  1.1                    !
 ! D9    D(1,3,6,7)             -0.0294                  1.2                    !
 ! D10   D(1,3,6,8)             -0.0634                  2.6                    !
 ! D11   D(4,3,6,7)             -0.0731                  3.0                    !
 ! D12   D(4,3,6,8)             -0.1071                  4.4                    !
 ! D14   D(5,3,6,8)             -0.0325                  1.3                    !
 --------------------------------------------------------------------------------
                           ----------------------------
                           ! Normal Mode    10        !
 --------------------------                            --------------------------
 ! Name  Definition              Value          Relative Weight (%)             !
 --------------------------------------------------------------------------------
 ! R2    R(1,3)                  0.557                  16.5                    !
 ! R3    R(1,9)                 -0.4917                 14.6                    !
 ! R4    R(2,10)                -0.0738                  2.2                    !
 ! R5    R(3,4)                  0.0882                  2.6                    !
 ! R6    R(3,5)                  0.0683                  2.0                    !
 ! R7    R(3,6)                  0.0975                  2.9                    !
 ! A1    A(2,1,3)               -0.3449                 10.2                    !
 ! A2    A(2,1,9)                0.3663                 10.9                    !
 ! A3    A(3,1,9)               -0.0233                  0.7                    !
 ! A4    A(1,2,10)               0.1379                  4.1                    !
 ! A5    A(1,3,4)                0.0746                  2.2                    !
 ! A7    A(1,3,6)               -0.1939                  5.8                    !
 ! A9    A(4,3,6)                0.0805                  2.4                    !
 ! A11   A(3,6,7)               -0.0271                  0.8                    !
 ! A12   A(3,6,8)                0.0664                  2.0                    !
 ! D1    D(3,1,2,10)            -0.0241                  0.7                    !
 ! D2    D(9,1,2,10)             0.0421                  1.2                    !
 ! D3    D(2,1,3,4)              0.0499                  1.5                    !
 ! D4    D(2,1,3,5)              0.1077                  3.2                    !
 ! D7    D(9,1,3,5)              0.0481                  1.4                    !
 ! D8    D(9,1,3,6)             -0.0409                  1.2                    !
 ! D10   D(1,3,6,8)              0.0343                  1.0                    !
 ! D12   D(4,3,6,8)              0.0255                  0.8                    !
 ! D13   D(5,3,6,7)             -0.1051                  3.1                    !
 ! D14   D(5,3,6,8)             -0.0635                  1.9                    !
 --------------------------------------------------------------------------------
                           ----------------------------
                           ! Normal Mode    11        !
 --------------------------                            --------------------------
 ! Name  Definition              Value          Relative Weight (%)             !
 --------------------------------------------------------------------------------
 ! R1    R(1,2)                  0.5123                 10.3                    !
 ! R2    R(1,3)                 -0.223                   4.5                    !
 ! R3    R(1,9)                 -0.1835                  3.7                    !
 ! R5    R(3,4)                  0.1554                  3.1                    !
 ! R7    R(3,6)                  0.1493                  3.0                    !
 ! A1    A(2,1,3)               -0.1357                  2.7                    !
 ! A2    A(2,1,9)               -0.301                   6.1                    !
 ! A3    A(3,1,9)                0.4332                  8.7                    !
 ! A5    A(1,3,4)                0.1277                  2.6                    !
 ! A6    A(1,3,5)               -0.1098                  2.2                    !
 ! A7    A(1,3,6)               -0.2363                  4.8                    !
 ! A9    A(4,3,6)                0.21                    4.2                    !
 ! A12   A(3,6,8)                0.1036                  2.1                    !
 ! D1    D(3,1,2,10)            -0.0635                  1.3                    !
 ! D3    D(2,1,3,4)              0.2167                  4.4                    !
 ! D4    D(2,1,3,5)              0.2615                  5.3                    !
 ! D6    D(9,1,3,4)              0.0901                  1.8                    !
 ! D7    D(9,1,3,5)              0.1349                  2.7                    !
 ! D8    D(9,1,3,6)             -0.1089                  2.2                    !
 ! D10   D(1,3,6,8)              0.1004                  2.0                    !
 ! D11   D(4,3,6,7)             -0.1751                  3.5                    !
 ! D13   D(5,3,6,7)             -0.3478                  7.0                    !
 ! D14   D(5,3,6,8)             -0.2082                  4.2                    !
 --------------------------------------------------------------------------------
                           ----------------------------
                           ! Normal Mode    12        !
 --------------------------                            --------------------------
 ! Name  Definition              Value          Relative Weight (%)             !
 --------------------------------------------------------------------------------
 ! R1    R(1,2)                 -0.1082                  2.3                    !
 ! R3    R(1,9)                  0.0704                  1.5                    !
 ! R5    R(3,4)                  0.1044                  2.2                    !
 ! R6    R(3,5)                 -0.1525                  3.3                    !
 ! R7    R(3,6)                 -0.0766                  1.6                    !
 ! A1    A(2,1,3)                0.0621                  1.3                    !
 ! A3    A(3,1,9)               -0.1054                  2.2                    !
 ! A5    A(1,3,4)                0.1801                  3.8                    !
 ! A6    A(1,3,5)               -0.1711                  3.6                    !
 ! A9    A(4,3,6)                0.1611                  3.4                    !
 ! A10   A(5,3,6)               -0.2154                  4.6                    !
 ! A11   A(3,6,7)                0.1587                  3.4                    !
 ! A12   A(3,6,8)                0.1183                  2.5                    !
 ! A13   A(7,6,8)                0.1094                  2.3                    !
 ! D1    D(3,1,2,10)            -0.0589                  1.3                    !
 ! D3    D(2,1,3,4)              0.3198                  6.8                    !
 ! D4    D(2,1,3,5)              0.3222                  6.9                    !
 ! D6    D(9,1,3,4)              0.218                   4.6                    !
 ! D7    D(9,1,3,5)              0.2204                  4.7                    !
 ! D8    D(9,1,3,6)             -0.1258                  2.7                    !
 ! D9    D(1,3,6,7)             -0.0778                  1.7                    !
 ! D10   D(1,3,6,8)              0.2434                  5.2                    !
 ! D11   D(4,3,6,7)             -0.4602                  9.8                    !
 ! D12   D(4,3,6,8)             -0.139                   3.0                    !
 ! D13   D(5,3,6,7)             -0.4019                  8.6                    !
 ! D14   D(5,3,6,8)             -0.0806                  1.7                    !
 --------------------------------------------------------------------------------
                           ----------------------------
                           ! Normal Mode    13        !
 --------------------------                            --------------------------
 ! Name  Definition              Value          Relative Weight (%)             !
 --------------------------------------------------------------------------------
 ! R5    R(3,4)                  0.2115                  4.7                    !
 ! R6    R(3,5)                 -0.223                   4.9                    !
 ! R7    R(3,6)                  0.0654                  1.4                    !
 ! R8    R(6,7)                 -0.0777                  1.7                    !
 ! R9    R(6,8)                 -0.1168                  2.6                    !
 ! A5    A(1,3,4)                0.1354                  3.0                    !
 ! A6    A(1,3,5)               -0.1313                  2.9                    !
 ! A9    A(4,3,6)                0.0862                  1.9                    !
 ! A10   A(5,3,6)               -0.0865                  1.9                    !
 ! A11   A(3,6,7)               -0.2727                  6.0                    !
 ! A12   A(3,6,8)               -0.273                   6.0                    !
 ! A13   A(7,6,8)               -0.2139                  4.7                    !
 ! D3    D(2,1,3,4)              0.134                   3.0                    !
 ! D4    D(2,1,3,5)              0.1356                  3.0                    !
 ! D5    D(2,1,3,6)             -0.0581                  1.3                    !
 ! D6    D(9,1,3,4)              0.0674                  1.5                    !
 ! D7    D(9,1,3,5)              0.0691                  1.5                    !
 ! D8    D(9,1,3,6)             -0.1246                  2.7                    !
 ! D9    D(1,3,6,7)              0.379                   8.4                    !
 ! D10   D(1,3,6,8)             -0.2512                  5.5                    !
 ! D11   D(4,3,6,7)              0.1451                  3.2                    !
 ! D12   D(4,3,6,8)             -0.485                  10.7                    !
 ! D13   D(5,3,6,7)              0.1552                  3.4                    !
 ! D14   D(5,3,6,8)             -0.4749                 10.5                    !
 --------------------------------------------------------------------------------
                           ----------------------------
                           ! Normal Mode    14        !
 --------------------------                            --------------------------
 ! Name  Definition              Value          Relative Weight (%)             !
 --------------------------------------------------------------------------------
 ! R5    R(3,4)                 -0.2812                 12.4                    !
 ! R6    R(3,5)                 -0.3929                 17.3                    !
 ! R8    R(6,7)                 -0.2924                 12.9                    !
 ! R9    R(6,8)                  0.5499                 24.3                    !
 ! A6    A(1,3,5)               -0.0526                  2.3                    !
 ! A10   A(5,3,6)                0.0451                  2.0                    !
 ! A11   A(3,6,7)               -0.2265                 10.0                    !
 ! A12   A(3,6,8)                0.2245                  9.9                    !
 ! D13   D(5,3,6,7)             -0.0325                  1.4                    !
 ! D14   D(5,3,6,8)             -0.038                   1.7                    !
 --------------------------------------------------------------------------------
                           ----------------------------
                           ! Normal Mode    15        !
 --------------------------                            --------------------------
 ! Name  Definition              Value          Relative Weight (%)             !
 --------------------------------------------------------------------------------
 ! R4    R(2,10)                -0.0137                  0.6                    !
 ! R6    R(3,5)                 -0.1619                  7.6                    !
 ! R7    R(3,6)                 -0.0212                  1.0                    !
 ! R8    R(6,7)                  0.8871                 41.8                    !
 ! R9    R(6,8)                  0.4799                 22.6                    !
 ! A5    A(1,3,4)                0.0487                  2.3                    !
 ! A6    A(1,3,5)               -0.0373                  1.8                    !
 ! A9    A(4,3,6)               -0.0229                  1.1                    !
 ! A10   A(5,3,6)                0.0238                  1.1                    !
 ! A12   A(3,6,8)               -0.0772                  3.6                    !
 ! D4    D(2,1,3,5)             -0.0142                  0.7                    !
 ! D6    D(9,1,3,4)             -0.0207                  1.0                    !
 ! D7    D(9,1,3,5)             -0.0234                  1.1                    !
 ! D8    D(9,1,3,6)             -0.0213                  1.0                    !
 ! D9    D(1,3,6,7)              0.0214                  1.0                    !
 ! D10   D(1,3,6,8)             -0.015                   0.7                    !
 ! D11   D(4,3,6,7)             -0.0225                  1.1                    !
 ! D12   D(4,3,6,8)             -0.0589                  2.8                    !
 ! D14   D(5,3,6,8)             -0.0496                  2.3                    !
 --------------------------------------------------------------------------------
                           ----------------------------
                           ! Normal Mode    16        !
 --------------------------                            --------------------------
 ! Name  Definition              Value          Relative Weight (%)             !
 --------------------------------------------------------------------------------
 ! R1    R(1,2)                  0.039                   3.0                    !
 ! R4    R(2,10)                -1.0216                 77.9                    !
 ! A4    A(1,2,10)              -0.1301                  9.9                    !
 --------------------------------------------------------------------------------
                           ----------------------------
                           ! Normal Mode    17        !
 --------------------------                            --------------------------
 ! Name  Definition              Value          Relative Weight (%)             !
 --------------------------------------------------------------------------------
 ! R2    R(1,3)                 -0.0363                  1.4                    !
 ! R4    R(2,10)                 0.0231                  0.9                    !
 ! R5    R(3,4)                  0.6771                 25.2                    !
 ! R6    R(3,5)                  0.5435                 20.3                    !
 ! R7    R(3,6)                 -0.0482                  1.8                    !
 ! R8    R(6,7)                 -0.1823                  6.8                    !
 ! R9    R(6,8)                  0.5485                 20.5                    !
 ! A1    A(2,1,3)                0.0236                  0.9                    !
 ! A3    A(3,1,9)               -0.0262                  1.0                    !
 ! A4    A(1,2,10)              -0.0187                  0.7                    !
 ! A5    A(1,3,4)               -0.0488                  1.8                    !
 ! A6    A(1,3,5)                0.0222                  0.8                    !
 ! A7    A(1,3,6)                0.0334                  1.2                    !
 ! A8    A(4,3,5)                0.0391                  1.5                    !
 ! A10   A(5,3,6)               -0.0579                  2.2                    !
 ! A11   A(3,6,7)               -0.0508                  1.9                    !
 ! A12   A(3,6,8)                0.0193                  0.7                    !
 ! D4    D(2,1,3,5)              0.0254                  0.9                    !
 ! D7    D(9,1,3,5)              0.0431                  1.6                    !
 ! D11   D(4,3,6,7)              0.0454                  1.7                    !
 ! D12   D(4,3,6,8)              0.0225                  0.8                    !
 ! D13   D(5,3,6,7)              0.0282                  1.1                    !
 --------------------------------------------------------------------------------
                           ----------------------------
                           ! Normal Mode    18        !
 --------------------------                            --------------------------
 ! Name  Definition              Value          Relative Weight (%)             !
 --------------------------------------------------------------------------------
 ! R5    R(3,4)                  0.7529                 20.1                    !
 ! R6    R(3,5)                 -0.7088                 18.9                    !
 ! R8    R(6,7)                  0.0852                  2.3                    !
 ! R9    R(6,8)                 -0.2556                  6.8                    !
 ! A5    A(1,3,4)               -0.2187                  5.8                    !
 ! A6    A(1,3,5)                0.089                   2.4                    !
 ! A10   A(5,3,6)                0.0902                  2.4                    !
 ! A12   A(3,6,8)                0.1207                  3.2                    !
 ! A13   A(7,6,8)                0.0558                  1.5                    !
 ! D1    D(3,1,2,10)             0.0602                  1.6                    !
 ! D3    D(2,1,3,4)             -0.0795                  2.1                    !
 ! D4    D(2,1,3,5)             -0.1334                  3.6                    !
 ! D5    D(2,1,3,6)              0.0488                  1.3                    !
 ! D7    D(9,1,3,5)             -0.0492                  1.3                    !
 ! D8    D(9,1,3,6)              0.133                   3.6                    !
 ! D9    D(1,3,6,7)             -0.1622                  4.3                    !
 ! D11   D(4,3,6,7)              0.1063                  2.8                    !
 ! D12   D(4,3,6,8)              0.2552                  6.8                    !
 ! D14   D(5,3,6,8)              0.1719                  4.6                    !
 --------------------------------------------------------------------------------
                           ----------------------------
                           ! Normal Mode    19        !
 --------------------------                            --------------------------
 ! Name  Definition              Value          Relative Weight (%)             !
 --------------------------------------------------------------------------------
 ! R4    R(2,10)                 0.084                   2.6                    !
 ! R6    R(3,5)                  0.4027                 12.2                    !
 ! R7    R(3,6)                 -0.0458                  1.4                    !
 ! R8    R(6,7)                  0.4372                 13.3                    !
 ! R9    R(6,8)                 -0.4684                 14.2                    !
 ! A3    A(3,1,9)               -0.0489                  1.5                    !
 ! A4    A(1,2,10)              -0.1673                  5.1                    !
 ! A5    A(1,3,4)               -0.0546                  1.7                    !
 ! A6    A(1,3,5)               -0.142                   4.3                    !
 ! A7    A(1,3,6)                0.0849                  2.6                    !
 ! A8    A(4,3,5)                0.0479                  1.5                    !
 ! A9    A(4,3,6)                0.0449                  1.4                    !
 ! A11   A(3,6,7)               -0.3243                  9.9                    !
 ! A12   A(3,6,8)                0.3114                  9.5                    !
 ! D3    D(2,1,3,4)              0.0454                  1.4                    !
 ! D12   D(4,3,6,8)             -0.0485                  1.5                    !
 ! D13   D(5,3,6,7)             -0.1244                  3.8                    !
 ! D14   D(5,3,6,8)             -0.146                   4.4                    !
 --------------------------------------------------------------------------------
                           ----------------------------
                           ! Normal Mode    20        !
 --------------------------                            --------------------------
 ! Name  Definition              Value          Relative Weight (%)             !
 --------------------------------------------------------------------------------
 ! R1    R(1,2)                  0.0628                  2.6                    !
 ! R2    R(1,3)                  0.1001                  4.1                    !
 ! R3    R(1,9)                 -0.0855                  3.5                    !
 ! R4    R(2,10)                 0.2752                 11.3                    !
 ! R6    R(3,5)                 -0.1313                  5.4                    !
 ! R8    R(6,7)                 -0.1233                  5.0                    !
 ! R9    R(6,8)                  0.0924                  3.8                    !
 ! A1    A(2,1,3)               -0.0925                  3.8                    !
 ! A2    A(2,1,9)                0.0906                  3.7                    !
 ! A4    A(1,2,10)              -0.6141                 25.1                    !
 ! A5    A(1,3,4)                0.0523                  2.1                    !
 ! A7    A(1,3,6)               -0.0413                  1.7                    !
 ! A9    A(4,3,6)               -0.061                   2.5                    !
 ! A10   A(5,3,6)                0.0702                  2.9                    !
 ! A11   A(3,6,7)                0.1044                  4.3                    !
 ! A12   A(3,6,8)               -0.0787                  3.2                    !
 ! D3    D(2,1,3,4)             -0.05                    2.0                    !
 ! D4    D(2,1,3,5)             -0.0431                  1.8                    !
 ! D6    D(9,1,3,4)             -0.0466                  1.9                    !
 ! D7    D(9,1,3,5)             -0.0397                  1.6                    !
 --------------------------------------------------------------------------------
                           ----------------------------
                           ! Normal Mode    21        !
 --------------------------                            --------------------------
 ! Name  Definition              Value          Relative Weight (%)             !
 --------------------------------------------------------------------------------
 ! R5    R(3,4)                 -0.2121                  6.0                    !
 ! R8    R(6,7)                  0.0977                  2.8                    !
 ! R9    R(6,8)                  0.0759                  2.2                    !
 ! A4    A(1,2,10)              -0.0882                  2.5                    !
 ! A5    A(1,3,4)               -0.2634                  7.5                    !
 ! A6    A(1,3,5)                0.2905                  8.3                    !
 ! A9    A(4,3,6)                0.3334                  9.5                    !
 ! A10   A(5,3,6)               -0.3185                  9.1                    !
 ! A11   A(3,6,7)               -0.0552                  1.6                    !
 ! A12   A(3,6,8)               -0.0541                  1.5                    !
 ! D3    D(2,1,3,4)              0.1844                  5.3                    !
 ! D4    D(2,1,3,5)              0.1633                  4.7                    !
 ! D5    D(2,1,3,6)             -0.0476                  1.4                    !
 ! D6    D(9,1,3,4)              0.2181                  6.2                    !
 ! D7    D(9,1,3,5)              0.197                   5.6                    !
 ! D9    D(1,3,6,7)              0.0574                  1.6                    !
 ! D11   D(4,3,6,7)              0.1764                  5.0                    !
 ! D12   D(4,3,6,8)              0.0779                  2.2                    !
 ! D13   D(5,3,6,7)              0.2069                  5.9                    !
 ! D14   D(5,3,6,8)              0.1084                  3.1                    !
 --------------------------------------------------------------------------------
                           ----------------------------
                           ! Normal Mode    22        !
 --------------------------                            --------------------------
 ! Name  Definition              Value          Relative Weight (%)             !
 --------------------------------------------------------------------------------
 ! R2    R(1,3)                 -0.1613                  3.5                    !
 ! R5    R(3,4)                  0.1096                  2.4                    !
 ! R7    R(3,6)                  0.1139                  2.5                    !
 ! R8    R(6,7)                  0.0808                  1.8                    !
 ! R9    R(6,8)                 -0.1073                  2.3                    !
 ! A5    A(1,3,4)                0.3931                  8.6                    !
 ! A6    A(1,3,5)                0.4261                  9.3                    !
 ! A8    A(4,3,5)               -0.1368                  3.0                    !
 ! A9    A(4,3,6)               -0.3337                  7.3                    !
 ! A10   A(5,3,6)               -0.3049                  6.7                    !
 ! A11   A(3,6,7)               -0.1314                  2.9                    !
 ! A12   A(3,6,8)                0.1559                  3.4                    !
 ! D3    D(2,1,3,4)             -0.1227                  2.7                    !
 ! D4    D(2,1,3,5)              0.099                   2.2                    !
 ! D6    D(9,1,3,4)             -0.1294                  2.8                    !
 ! D7    D(9,1,3,5)              0.0923                  2.0                    !
 ! D11   D(4,3,6,7)             -0.3475                  7.6                    !
 ! D12   D(4,3,6,8)             -0.3289                  7.2                    !
 ! D13   D(5,3,6,7)              0.3055                  6.7                    !
 ! D14   D(5,3,6,8)              0.324                   7.1                    !
 --------------------------------------------------------------------------------
                           ----------------------------
                           ! Normal Mode    23        !
 --------------------------                            --------------------------
 ! Name  Definition              Value          Relative Weight (%)             !
 --------------------------------------------------------------------------------
 ! R5    R(3,4)                 -0.0926                  2.0                    !
 ! R6    R(3,5)                 -0.1158                  2.4                    !
 ! R7    R(3,6)                  0.0837                  1.8                    !
 ! A5    A(1,3,4)               -0.082                   1.7                    !
 ! A8    A(4,3,5)                0.7429                 15.7                    !
 ! A9    A(4,3,6)               -0.243                   5.1                    !
 ! A10   A(5,3,6)               -0.2669                  5.6                    !
 ! D3    D(2,1,3,4)             -0.3783                  8.0                    !
 ! D4    D(2,1,3,5)              0.4059                  8.6                    !
[...]
     36  0.000000D+00  0.000000D+00  0.000000D+00  0.000000D+00  0.000000D+00
               11            12            13            14            15 
     11  0.212322D-02
     12 -0.106141D-02  0.212388D-02
     13  0.000000D+00  0.000000D+00  0.318720D-02
     14  0.000000D+00  0.000000D+00  0.000000D+00  0.116308D-02
     15  0.000000D+00  0.000000D+00  0.000000D+00 -0.765516D-05  0.113583D-02
     16  0.000000D+00  0.000000D+00  0.000000D+00 -0.811093D-03 -0.723434D-03
     17  0.000000D+00  0.000000D+00  0.000000D+00 -0.227146D-03 -0.193036D-03
     18  0.000000D+00  0.000000D+00  0.000000D+00 -0.492625D-03  0.394814D-03
     19  0.000000D+00  0.000000D+00  0.000000D+00  0.442307D-03 -0.494540D-03
     20  0.000000D+00  0.000000D+00  0.000000D+00  0.000000D+00  0.000000D+00
     21  0.000000D+00  0.000000D+00  0.000000D+00  0.000000D+00  0.000000D+00
     22  0.000000D+00  0.000000D+00  0.000000D+00  0.000000D+00  0.000000D+00
     23 -0.256952D-04  0.264279D-04  0.000000D+00  0.000000D+00  0.000000D+00
     24  0.256952D-04 -0.264279D-04  0.000000D+00  0.000000D+00  0.000000D+00
     25 -0.834442D-05  0.857927D-05  0.000000D+00 -0.209313D-03 -0.775065D-04
     26 -0.834442D-05  0.857927D-05  0.000000D+00  0.869682D-04  0.202072D-03
     27 -0.834442D-05  0.857927D-05  0.000000D+00  0.122345D-03 -0.124565D-03
     28  0.834442D-05 -0.857927D-05  0.000000D+00 -0.209313D-03 -0.775065D-04
     29  0.834442D-05 -0.857927D-05  0.000000D+00  0.869682D-04  0.202072D-03
     30  0.834442D-05 -0.857927D-05  0.000000D+00  0.122345D-03 -0.124565D-03
     31  0.000000D+00  0.000000D+00  0.000000D+00  0.276288D-03 -0.298375D-03
     32  0.000000D+00  0.000000D+00  0.000000D+00  0.276288D-03 -0.298375D-03
     33  0.000000D+00  0.000000D+00  0.000000D+00 -0.295653D-03 -0.248932D-04
     34  0.000000D+00  0.000000D+00  0.000000D+00 -0.295653D-03 -0.248932D-04
     35  0.000000D+00  0.000000D+00  0.000000D+00  0.193648D-04  0.323268D-03
     36  0.000000D+00  0.000000D+00  0.000000D+00  0.193648D-04  0.323268D-03
               16            17            18            19            20 
     16  0.208086D-02
     17  0.506770D-03  0.542441D-03
     18 -0.549372D-03 -0.297552D-03  0.106803D-02
     19 -0.598704D-03 -0.329105D-03 -0.137993D-03  0.106413D-02
     20  0.000000D+00  0.000000D+00  0.000000D+00  0.000000D+00  0.263162D-02
     21  0.000000D+00  0.000000D+00  0.000000D+00  0.000000D+00 -0.541991D-03
     22  0.000000D+00  0.000000D+00  0.000000D+00  0.000000D+00 -0.104290D-02
     23  0.000000D+00  0.000000D+00  0.000000D+00  0.000000D+00  0.000000D+00
     24  0.000000D+00  0.000000D+00  0.000000D+00  0.000000D+00  0.000000D+00
     25  0.577677D-04 -0.211553D-03  0.353914D-03  0.481060D-04  0.000000D+00
     26 -0.739060D-04  0.213738D-03 -0.480335D-04 -0.334865D-03  0.000000D+00
     27  0.161384D-04 -0.218509D-05 -0.305880D-03  0.286759D-03  0.000000D+00
     28  0.577677D-04 -0.211553D-03  0.353914D-03  0.481060D-04  0.000000D+00
     29 -0.739060D-04  0.213738D-03 -0.480335D-04 -0.334865D-03  0.000000D+00
     30  0.161384D-04 -0.218509D-05 -0.305880D-03  0.286759D-03  0.000000D+00
     31  0.987172D-05  0.000000D+00 -0.117185D-03  0.118115D-03 -0.486552D-04
     32  0.987172D-05  0.000000D+00 -0.117185D-03  0.118115D-03  0.486552D-04
     33 -0.977942D-04  0.124474D-03  0.194015D-03  0.814748D-04 -0.486552D-04
     34 -0.977942D-04  0.124474D-03  0.194015D-03  0.814748D-04  0.486552D-04
     35  0.879224D-04 -0.123866D-03 -0.768299D-04 -0.199590D-03 -0.486552D-04
     36  0.879224D-04 -0.123866D-03 -0.768299D-04 -0.199590D-03  0.486552D-04
               21            22            23            24            25 
     21  0.265821D-02
     22 -0.101764D-02  0.122977D-02
     23  0.000000D+00  0.000000D+00  0.000000D+00
     24  0.000000D+00  0.000000D+00  0.000000D+00  0.000000D+00
     25  0.000000D+00  0.000000D+00  0.000000D+00  0.000000D+00  0.236285D-03
     26  0.000000D+00  0.000000D+00  0.000000D+00  0.000000D+00 -0.140645D-03
     27  0.000000D+00  0.000000D+00  0.000000D+00  0.000000D+00 -0.953264D-04
     28  0.000000D+00  0.000000D+00  0.000000D+00  0.000000D+00  0.236076D-03
     29  0.000000D+00  0.000000D+00  0.000000D+00  0.000000D+00 -0.140854D-03
     30  0.000000D+00  0.000000D+00  0.000000D+00  0.000000D+00 -0.955350D-04
     31 -0.474794D-04 -0.912363D-04  0.000000D+00  0.000000D+00  0.139544D-04
     32  0.474794D-04  0.912363D-04  0.000000D+00  0.000000D+00  0.139544D-04
     33 -0.474794D-04 -0.912363D-04  0.000000D+00  0.000000D+00  0.000000D+00
     34  0.474794D-04  0.912363D-04  0.000000D+00  0.000000D+00  0.000000D+00
     35 -0.474794D-04 -0.912363D-04  0.000000D+00  0.000000D+00 -0.133930D-04
     36  0.474794D-04  0.912363D-04  0.000000D+00  0.000000D+00 -0.133930D-04
               26            27            28            29            30 
     26  0.235210D-03
     27 -0.942522D-04  0.189891D-03
     28 -0.140854D-03 -0.955350D-04  0.236285D-03
     29  0.235002D-03 -0.944608D-04 -0.140645D-03  0.235210D-03
     30 -0.944608D-04  0.189683D-03 -0.953264D-04 -0.942522D-04  0.189891D-03
     31  0.137524D-04 -0.277068D-04  0.139544D-04  0.137524D-04 -0.277068D-04
     32  0.137524D-04 -0.277068D-04  0.139544D-04  0.137524D-04 -0.277068D-04
     33 -0.114862D-04  0.120476D-04  0.000000D+00 -0.114862D-04  0.120476D-04
     34 -0.114862D-04  0.120476D-04  0.000000D+00 -0.114862D-04  0.120476D-04
     35 -0.226622D-05  0.156592D-04 -0.133930D-04 -0.226622D-05  0.156592D-04
     36 -0.226622D-05  0.156592D-04 -0.133930D-04 -0.226622D-05  0.156592D-04
               31            32            33            34            35 
     31  0.281380D-03
     32  0.103018D-03  0.281380D-03
     33 -0.430426D-05 -0.182667D-03  0.318706D-03
     34 -0.182667D-03 -0.430426D-05  0.140344D-03  0.318706D-03
     35 -0.953212D-05 -0.187895D-03 -0.468580D-04 -0.225221D-03  0.323934D-03
     36 -0.187895D-03 -0.953212D-05 -0.225221D-03 -0.468580D-04  0.145571D-03
               36 
     36  0.323934D-03
 Leave Link  716 at Fri Nov 24 11:59:29 2023, MaxMem=   134217728 cpu:               0.1 elap:               0.1
 (Enter /home/emanuele/chem_software/gaussian//gdv/l103.exe)

 GradGradGradGradGradGradGradGradGradGradGradGradGradGradGradGradGradGrad
 Berny optimization.
 Internal  Forces:  Max     0.000081448 RMS     0.000030155
 Search for a local minimum.
 Step number   1 out of a maximum of    2
 All quantities printed in internal units (Hartrees-Bohrs-Radians)
 Second derivative matrix not updated -- analytic derivatives used.
 ITU=  0
     Eigenvalues ---   -0.00000  -0.00000   0.00000   0.00000   0.00068
     Eigenvalues ---    0.00089   0.00089   0.00089   0.00089   0.00089
     Eigenvalues ---    0.00089   0.00089   0.00089   0.00089   0.00092
     Eigenvalues ---    0.00110   0.00190   0.00258   0.00319   0.00319
     Eigenvalues ---    0.00319   0.00319   0.00319   0.00319
 Eigenvalue     1 is  -1.11D-15 should be greater than     0.000000 Eigenvector:
                          D2        D1        D4        D3        D5
   1                    0.45809   0.45809   0.30982   0.30982   0.30982
                          D7        D6        D8        D9        D11
   1                    0.30982   0.30982   0.30982   0.02706   0.02706
 Eigenvalue     2 is  -1.11D-16 should be greater than     0.000000 Eigenvector:
                          D12       D11       D10       D9        D14
   1                   -0.39738  -0.39738  -0.39738  -0.39738  -0.39738
                          D13       D2        D1        D7        D8
   1                   -0.39738   0.14792   0.14792  -0.03820  -0.03820
 Angle between quadratic step and forces=   9.95 degrees.
 Linear search not attempted -- first point.
 Iteration  1 RMS(Cart)=  0.01744951 RMS(Int)=  0.00025548
 Iteration  2 RMS(Cart)=  0.00023891 RMS(Int)=  0.00006919
 Iteration  3 RMS(Cart)=  0.00000003 RMS(Int)=  0.00006919
 ITry= 1 IFail=0 DXMaxC= 6.25D-02 DCOld= 1.00D+10 DXMaxT= 3.00D-01 DXLimC= 3.00D+00 Rises=F
 Variable       Old X    -DE/DX   Delta X   Delta X   Delta X     New X
                                 (Linear)    (Quad)   (Total)
    R1        2.55286  -0.00000   0.00000  -0.00029  -0.00029   2.55256
    R2        2.85250  -0.00000   0.00000  -0.00032  -0.00032   2.85217
    R3        2.27318  -0.00000   0.00000  -0.00026  -0.00026   2.27292
    R4        1.82891  -0.00000   0.00000  -0.00021  -0.00021   1.82870
    R5        2.08006  -0.00001   0.00000  -0.00847  -0.00847   2.07159
    R6        2.06359   0.00001   0.00000   0.00800   0.00800   2.07159
    R7        2.74351  -0.00000   0.00000  -0.00031  -0.00031   2.74319
    R8        1.91369  -0.00000   0.00000  -0.00268  -0.00268   1.91101
    R9        1.90876   0.00000   0.00000   0.00225   0.00225   1.91101
    A1        1.94980  -0.00000   0.00000  -0.00000  -0.00000   1.94980
    A2        2.14707   0.00000   0.00000   0.00000   0.00000   2.14707
    A3        2.18583   0.00000   0.00000   0.00000   0.00000   2.18583
    A4        1.87144   0.00000   0.00000   0.00000   0.00000   1.87144
    A5        1.83958   0.00007   0.00000   0.02568   0.02572   1.86530
    A6        1.89148  -0.00007   0.00000  -0.02625  -0.02622   1.86525
    A7        1.93046  -0.00000   0.00000   0.00043   0.00042   1.93088
    A8        1.85394  -0.00000   0.00000  -0.00047  -0.00015   1.85379
    A9        2.00477  -0.00008   0.00000  -0.03398  -0.03387   1.97090
   A10        1.93745   0.00008   0.00000   0.03335   0.03348   1.97093
   A11        1.91981   0.00004   0.00000   0.01243   0.01245   1.93225
   A12        1.94466  -0.00004   0.00000  -0.01243  -0.01240   1.93225
   A13        1.89587  -0.00000   0.00000  -0.00000   0.00004   1.89591
    D1        3.09264   0.00000   0.00000   0.00000   0.00000   3.09264
    D2       -0.01720  -0.00000   0.00000   0.00000   0.00000  -0.01720
    D3       -1.25365  -0.00002   0.00000  -0.00828  -0.00823  -1.26188
    D4        0.72522  -0.00002   0.00000  -0.00812  -0.00816   0.71706
    D5        2.85281   0.00004   0.00000   0.01639   0.01638   2.86919
    D6        1.85534  -0.00002   0.00000  -0.00828  -0.00823   1.84712
    D7       -2.44897  -0.00002   0.00000  -0.00811  -0.00815  -2.45713
    D8       -0.32138   0.00004   0.00000   0.01639   0.01638  -0.30500
    D9        0.60481   0.00003   0.00000   0.00690   0.00690   0.61172
   D10        2.70830   0.00003   0.00000   0.00710   0.00708   2.71538
   D11       -1.47459  -0.00001   0.00000  -0.00338  -0.00345  -1.47804
   D12        0.62890  -0.00001   0.00000  -0.00318  -0.00327   0.62563
   D13        2.70515  -0.00001   0.00000  -0.00382  -0.00372   2.70143
   D14       -1.47455  -0.00001   0.00000  -0.00362  -0.00354  -1.47809
         Item               Value     Threshold  Converged?
 Maximum Force            0.000081     0.000450     YES
 RMS     Force            0.000030     0.000300     YES
 Maximum Displacement     0.062455     0.001800     NO 
 RMS     Displacement     0.017439     0.001200     NO 
 Predicted change in Energy=-6.317152D-06
                           ----------------------------
                           ! Non-Optimized Parameters !
                           ! (Angstroms and Degrees)  !
 --------------------------                            --------------------------
 ! Name  Definition              Value          Derivative Info.                !
 --------------------------------------------------------------------------------
 ! R1    R(1,2)                  1.3508         -DE/DX =    0.0                 !
 ! R2    R(1,3)                  1.5093         -DE/DX =    0.0                 !
 ! R3    R(1,9)                  1.2028         -DE/DX =    0.0                 !
 ! R4    R(2,10)                 0.9677         -DE/DX =    0.0                 !
 ! R5    R(3,4)                  1.0962         -DE/DX =    0.0                 !
 ! R6    R(3,5)                  1.0962         -DE/DX =    0.0                 !
 ! R7    R(3,6)                  1.4516         -DE/DX =    0.0                 !
 ! R8    R(6,7)                  1.0113         -DE/DX =    0.0                 !
 ! R9    R(6,8)                  1.0113         -DE/DX =    0.0                 !
 ! A1    A(2,1,3)              111.7154         -DE/DX =    0.0                 !
 ! A2    A(2,1,9)              123.0182         -DE/DX =    0.0                 !
 ! A3    A(3,1,9)              125.2388         -DE/DX =    0.0                 !
 ! A4    A(1,2,10)             107.2257         -DE/DX =    0.0                 !
 ! A5    A(1,3,4)              106.8737         -DE/DX =    0.0001              !
 ! A6    A(1,3,5)              106.8711         -DE/DX =   -0.0001              !
 ! A7    A(1,3,6)              110.631          -DE/DX =    0.0                 !
 ! A8    A(4,3,5)              106.2143         -DE/DX =    0.0                 !
 ! A9    A(4,3,6)              112.9243         -DE/DX =   -0.0001              !
 ! A10   A(5,3,6)              112.9259         -DE/DX =    0.0001              !
 ! A11   A(3,6,7)              110.71           -DE/DX =    0.0                 !
 ! A12   A(3,6,8)              110.71           -DE/DX =    0.0                 !
 ! A13   A(7,6,8)              108.6276         -DE/DX =    0.0                 !
 ! D1    D(3,1,2,10)           177.1951         -DE/DX =    0.0                 !
 ! D2    D(9,1,2,10)            -0.9856         -DE/DX =    0.0                 !
 ! D3    D(2,1,3,4)            -72.3003         -DE/DX =    0.0                 !
 ! D4    D(2,1,3,5)             41.0846         -DE/DX =    0.0                 !
 ! D5    D(2,1,3,6)            164.3923         -DE/DX =    0.0                 !
 ! D6    D(9,1,3,4)            105.832          -DE/DX =    0.0                 !
 ! D7    D(9,1,3,5)           -140.7831         -DE/DX =    0.0                 !
 ! D8    D(9,1,3,6)            -17.4754         -DE/DX =    0.0                 !
 ! D9    D(1,3,6,7)             35.0488         -DE/DX =    0.0                 !
 ! D10   D(1,3,6,8)            155.5799         -DE/DX =    0.0                 !
 ! D11   D(4,3,6,7)            -84.6853         -DE/DX =    0.0                 !
 ! D12   D(4,3,6,8)             35.8458         -DE/DX =    0.0                 !
 ! D13   D(5,3,6,7)            154.7807         -DE/DX =    0.0                 !
 ! D14   D(5,3,6,8)            -84.6882         -DE/DX =    0.0                 !
 --------------------------------------------------------------------------------
 GradGradGradGradGradGradGradGradGradGradGradGradGradGradGradGradGradGrad

 Leave Link  103 at Fri Nov 24 11:59:29 2023, MaxMem=   134217728 cpu:               0.0 elap:               0.0
 (Enter /home/emanuele/chem_software/gaussian//gdv/l9999.exe)
 Unable to Open any file for archive entry.
 1\1\GINC-EMANUELE-XPS-13-9343\Freq\AMBER\ZDO\C2H5N1O2\EMANUELE\24-Nov-
 2023\0\\#P Amber=Softonly Geom=Connectivity Freq=intmodes\\Title Card 
 Required\\0,1\C,-0.53685,0.104174,0.014636\O,-1.636322,-0.676373,-0.06
 8268\C,0.726013,-0.7177,0.10528\H,0.716994,-1.157121,1.114447\H,0.6433
 8,-1.553795,-0.592281\N,1.889013,0.097733,-0.195097\H,1.748159,1.04080
 7,0.145925\H,2.723536,-0.278432,0.231888\O,-0.58681,1.305633,0.046275\
 H,-2.405088,-0.088514,-0.077854\\Version=ES64L-GDVRevJ.14\HF=0.0000063
 \RMSD=0.000e+00\RMSF=2.847e-05\ZeroPoint=0.0060787\Thermal=0.0253277\E
 Tot=0.0253341\HTot=0.0262782\GTot=-0.0490782\Dipole=0.,0.,0.\PG=C01 [X
 (C2H5N1O2)]\NImag=1\\0.00423971,-0.00005722,0.00400857,0.00025214,0.00
 005640,0.00057821,-0.00102187,0.00013390,-0.00006663,0.00151520,0.0008
 3878,-0.00199717,-0.00001026,-0.00022136,0.00308574,-0.00002678,-0.000
 03512,-0.00000421,0.00007758,0.00009526,0.00000880,-0.00132859,-0.0006
 7796,-0.00002711,-0.00013695,0.00019392,-0.00000955,0.00522088,-0.0004
 9012,-0.00165402,-0.00006189,-0.00021160,0.00029963,-0.00001476,0.0002
 8336,0.00516203,-0.00007336,-0.00004527,-0.00076992,-0.00001063,0.0000
 1505,-0.00000074,0.00011316,-0.00011578,0.00391405,0.00011519,0.000129
 10,-0.00043421,0.,0.,0.,-0.00142369,-0.00012563,-0.00003267,0.00113352
 ,-0.00005270,-0.00005536,0.00023232,0.,0.,0.,-0.00010209,-0.00136614,0
 .00000422,0.00003829,0.00104542,-0.00002192,-0.00002295,0.00009728,0.,
 0.,0.,-0.00009111,-0.00020961,-0.00089232,0.00006074,0.00006918,0.0009
 2453,0.00017302,0.00030386,0.00034465,0.,0.,0.,-0.00142662,-0.00010182
 ,0.00004367,0.00000184,0.00002072,0.00000904,0.00113979,-0.00006528,-0
 .00011287,-0.00011392,0.,0.,0.,-0.00007181,-0.00119966,0.00017159,0.00
 003850,0.00043315,0.00018895,0.00006570,0.00097759,0.00005775,0.000099
 29,0.00009572,0.,0.,0.,0.00008908,0.00037779,-0.00109331,-0.00004636,-
 0.00052163,-0.00022755,-0.00004779,-0.00010734,0.00101679,-0.00013063,
 -0.00019423,0.00005880,0.,0.,0.,-0.00122411,0.00046463,0.00033181,0.00
 017314,0.00009578,0.00004325,0.00011198,0.00003289,-0.00005268,0.00349
 863,0.00017478,0.00025988,-0.00007867,0.,0.,0.,0.00055673,-0.00141539,
 0.00028648,-0.00008026,-0.00005708,-0.00002557,-0.00028848,-0.00009821
 ,0.00015189,0.00022717,0.00345515,-0.00003129,-0.00004653,0.00001409,0
 .,0.,0.,-0.00014689,-0.00002537,-0.00137852,0.00045250,0.00021590,0.00
 009805,-0.00034957,-0.00013928,0.00020835,0.00037426,0.00019337,0.0027
 4705,0.,0.,0.,0.,0.,0.,0.00024229,-0.00043208,-0.00023488,0.,0.,0.,0.,
 0.,0.,-0.00165560,-0.00022443,-0.00021936,0.00131853,0.,0.,0.,0.,0.,0.
 ,0.00006822,-0.00012306,-0.00006994,0.,0.,0.,0.,0.,0.,-0.00009858,-0.0
 0066116,-0.00005606,0.00003945,0.00084341,0.,0.,0.,0.,0.,0.,-0.0000885
 8,0.00016185,0.00009640,0.,0.,0.,0.,0.,0.,-0.00007158,-0.00074077,-0.0
 0081706,0.00009587,0.00016038,0.00047759,0.,0.,0.,0.,0.,0.,-0.00018738
 ,0.00020330,-0.00017360,0.,0.,0.,0.,0.,0.,-0.00077340,-0.00036552,-0.0
 0007964,0.00009479,-0.00000909,0.00006429,0.00086600,0.,0.,0.,0.,0.,0.
 ,-0.00026071,0.00028055,-0.00024779,0.,0.,0.,0.,0.,0.,-0.00052766,-0.0
 0148320,-0.00014204,0.00061706,-0.00005919,0.00041855,0.00017131,0.001
 26184,0.,0.,0.,0.,0.,0.,0.00013655,-0.00015018,0.00012098,0.,0.,0.,0.,
 0.,0.,-0.00068385,0.00021327,-0.00087196,0.00035836,-0.00003437,0.0002
 4307,0.00018895,-0.00002872,0.00050790,-0.00180726,0.00002547,-0.00013
 123,0.00031694,-0.00044693,0.00000466,0.00026418,0.00040996,0.00003650
 ,0.,0.,0.,0.,0.,0.,0.,0.,0.,0.,0.,0.,0.,0.,0.,0.00122614,-0.00003455,-
 0.00089040,-0.00002866,0.00001271,-0.00001792,0.00000019,0.00001034,0.
 00001605,0.00000143,0.,0.,0.,0.,0.,0.,0.,0.,0.,0.,0.,0.,0.,0.,0.,0.000
 01150,0.00089227,-0.00013234,-0.00003986,-0.00001153,0.00001782,-0.000
 02513,0.00000026,0.00002445,0.00003795,0.00000338,0.,0.,0.,0.,0.,0.,0.
 ,0.,0.,0.,0.,0.,0.,0.,0.,0.00009007,0.00002704,0.00000789,-0.00023957,
 0.00033708,0.00000358,-0.00067331,-0.00036441,-0.00004592,0.,0.,0.,0.,
 0.,0.,0.,0.,0.,0.,0.,0.,0.,0.,0.,0.,0.,0.,0.,0.,0.,0.00091288,-0.00031
 369,0.00044136,0.00000469,0.00028635,-0.00137028,-0.00004556,0.,0.,0.,
 0.,0.,0.,0.,0.,0.,0.,0.,0.,0.,0.,0.,0.,0.,0.,0.,0.,0.,0.00002734,0.000
 92892,-0.00002419,0.00003404,0.00000036,-0.00001814,-0.00007491,-0.000
 00412,0.,0.,0.,0.,0.,0.,0.,0.,0.,0.,0.,0.,0.,0.,0.,0.,0.,0.,0.,0.,0.,0
 .00004234,0.00004087,0.00000376\\0.00000342,0.00001057,0.00004717,-0.0
 0000006,-0.00000026,-0.00000001,-0.00001272,0.00002477,0.00002138,-0.0
 0007999,-0.00000732,0.00000435,0.00007997,0.00000866,-0.00000867,0.000
 01909,-0.00004993,-0.00006321,-0.00001903,-0.00000313,0.00000790,0.000
 00947,0.00001629,-0.00000890,0.,0.00000023,0.,-0.00000015,0.00000011,0
 .\\\@
 The archive entry for this job was punched.


 EXPERIENCE IS A WONDERFUL THING.  IT ENABLES
 YOU TO RECOGNIZE A MISTAKE WHEN YOU MAKE IT AGAIN.
           - BACK OF A SUGAR PACKET
 Job cpu time:       0 days  0 hours  0 minutes  1.1 seconds.
 Elapsed time:       0 days  0 hours  0 minutes  0.8 seconds.
 File lengths (MBytes):  RWF=      6 Int=      0 D2E=      0 Chk=      1 Scr=      1
 Normal termination of Gaussian DV at Fri Nov 24 11:59:29 2023.
