 Entering Gaussian System, Link 0=g16
 Input=nb_2.gjf
 Output=nb_2.log
 Initial command:
 /home/emanuele/chemical_software//g16/l1.exe "/home/emanuele/chemical_software/scratch/Gau-111600.inp" -scrdir="/home/emanuele/chemical_software/scratch/"
 Entering Link 1 = /home/emanuele/chemical_software//g16/l1.exe PID=    111602.
  
 Copyright (c) 1988-2019, Gaussian, Inc.  All Rights Reserved.
  
 This is part of the Gaussian(R) 16 program.  It is based on
 the Gaussian(R) 09 system (copyright 2009, Gaussian, Inc.),
 the Gaussian(R) 03 system (copyright 2003, Gaussian, Inc.),
 the Gaussian(R) 98 system (copyright 1998, Gaussian, Inc.),
 the Gaussian(R) 94 system (copyright 1995, Gaussian, Inc.),
 the Gaussian 92(TM) system (copyright 1992, Gaussian, Inc.),
 the Gaussian 90(TM) system (copyright 1990, Gaussian, Inc.),
 the Gaussian 88(TM) system (copyright 1988, Gaussian, Inc.),
 the Gaussian 86(TM) system (copyright 1986, Carnegie Mellon
 University), and the Gaussian 82(TM) system (copyright 1983,
 Carnegie Mellon University). Gaussian is a federally registered
 trademark of Gaussian, Inc.
  
 This software contains proprietary and confidential information,
 including trade secrets, belonging to Gaussian, Inc.
  
 This software is provided under written license and may be
 used, copied, transmitted, or stored only in accord with that
 written license.
  
 The following legend is applicable only to US Government
 contracts under FAR:
  
                    RESTRICTED RIGHTS LEGEND
  
 Use, reproduction and disclosure by the US Government is
 subject to restrictions as set forth in subparagraphs (a)
 and (c) of the Commercial Computer Software - Restricted
 Rights clause in FAR 52.227-19.
  
 Gaussian, Inc.
 340 Quinnipiac St., Bldg. 40, Wallingford CT 06492
  
  
 ---------------------------------------------------------------
 Warning -- This program may not be used in any manner that
 competes with the business of Gaussian, Inc. or will provide
 assistance to any competitor of Gaussian, Inc.  The licensee
 of this program is prohibited from giving any competitor of
 Gaussian, Inc. access to this program.  By using this program,
 the user acknowledges that Gaussian, Inc. is engaged in the
 business of creating and licensing software in the field of
 computational chemistry and represents and warrants to the
 licensee that it is not a competitor of Gaussian, Inc. and that
 it will not use this program in any manner prohibited above.
 ---------------------------------------------------------------
  

 Cite this work as:
 Gaussian 16, Revision C.01,
 M. J. Frisch, G. W. Trucks, H. B. Schlegel, G. E. Scuseria, 
 M. A. Robb, J. R. Cheeseman, G. Scalmani, V. Barone, 
 G. A. Petersson, H. Nakatsuji, X. Li, M. Caricato, A. V. Marenich, 
 J. Bloino, B. G. Janesko, R. Gomperts, B. Mennucci, H. P. Hratchian, 
 J. V. Ortiz, A. F. Izmaylov, J. L. Sonnenberg, D. Williams-Young, 
 F. Ding, F. Lipparini, F. Egidi, J. Goings, B. Peng, A. Petrone, 
 T. Henderson, D. Ranasinghe, V. G. Zakrzewski, J. Gao, N. Rega, 
 G. Zheng, W. Liang, M. Hada, M. Ehara, K. Toyota, R. Fukuda, 
 J. Hasegawa, M. Ishida, T. Nakajima, Y. Honda, O. Kitao, H. Nakai, 
 T. Vreven, K. Throssell, J. A. Montgomery, Jr., J. E. Peralta, 
 F. Ogliaro, M. J. Bearpark, J. J. Heyd, E. N. Brothers, K. N. Kudin, 
 V. N. Staroverov, T. A. Keith, R. Kobayashi, J. Normand, 
 K. Raghavachari, A. P. Rendell, J. C. Burant, S. S. Iyengar, 
 J. Tomasi, M. Cossi, J. M. Millam, M. Klene, C. Adamo, R. Cammi, 
 J. W. Ochterski, R. L. Martin, K. Morokuma, O. Farkas, 
 J. B. Foresman, and D. J. Fox, Gaussian, Inc., Wallingford CT, 2019.
 
 ******************************************
 Gaussian 16:  ES64L-G16RevC.01  3-Jul-2019
                13-Dec-2021 
 ******************************************
 %mem=1GB
 %nprocshared=4
 Will use up to    4 processors via shared memory.
 %chk=nb_2.chk
 -------------------------------------------------
 #P Amber=SoftOnly Geom=Connectivity Freq=intmodes
 -------------------------------------------------
 1/10=4,18=20,30=1,38=1,56=2,57=2,64=303/1,3;
 2/9=110,12=2,17=6,18=5,40=1/2;
 3/5=30,11=9,25=1,30=1,41=10300000,43=2,71=2,140=1/1;
 4/20=11,22=2,24=3/2;
 7/8=21,25=1,44=-1/16;
 1/10=4,18=20,30=1,64=303/3;
 99//99;
 Leave Link    1 at Mon Dec 13 11:27:11 2021, MaxMem=   134217728 cpu:               0.2 elap:               0.1
 (Enter /home/emanuele/chemical_software//g16/l101.exe)
 -------------------
 Title Card Required
 -------------------
 Symbolic Z-matrix:
 Charge =  0 Multiplicity = 1
 C-C-+0.266361        -0.53685   0.10417   0.01464 
 O-OH--0.369148       -1.63632  -0.67637  -0.06827 
 C-CT--0.052402        0.72601  -0.7177    0.10528 
 H-HC-+0.101822        0.71699  -1.15712   1.11445 
 H-HC-+0.110601        0.64338  -1.5538   -0.59228 
 N-N3--0.660830        1.88901   0.09773  -0.1951 
 H-H-+0.284523         1.74816   1.04081   0.14593 
 H-H-+0.286815         2.72354  -0.27843   0.23189 
 O-O2--0.322325       -0.58681   1.30563   0.04628 
 H-HO-+0.354579       -2.40509  -0.08851  -0.07785 
 
 ITRead=  0  0  0  0  0  0  0  0  0  0
 MicOpt= -1 -1 -1 -1 -1 -1 -1 -1 -1 -1
 NAtoms=     10 NQM=       10 NQMF=       0 NMMI=      0 NMMIF=      0
                NMic=       0 NMicF=      0.
                    Isotopes and Nuclear Properties:
 (Nuclear quadrupole moments (NQMom) in fm**2, nuclear magnetic moments (NMagM)
  in nuclear magnetons)

  Atom         1           2           3           4           5           6           7           8           9          10
 IAtWgt=          12          16          12           1           1          14           1           1          16           1
 AtmWgt=  12.0000000  15.9949146  12.0000000   1.0078250   1.0078250  14.0030740   1.0078250   1.0078250  15.9949146   1.0078250
 NucSpn=           0           0           0           1           1           2           1           1           0           1
 AtZEff=  -0.0000000  -0.0000000  -0.0000000  -0.0000000  -0.0000000  -0.0000000  -0.0000000  -0.0000000  -0.0000000  -0.0000000
 NQMom=    0.0000000   0.0000000   0.0000000   0.0000000   0.0000000   2.0440000   0.0000000   0.0000000   0.0000000   0.0000000
 NMagM=    0.0000000   0.0000000   0.0000000   2.7928460   2.7928460   0.4037610   2.7928460   2.7928460   0.0000000   2.7928460
 AtZNuc=   6.0000000   8.0000000   6.0000000   1.0000000   1.0000000   7.0000000   1.0000000   1.0000000   8.0000000   1.0000000
 Generating MM parameters.
 Read MM parameter file:
 Include all MM classes

 MM sanity checks:
 All charges sum to:               -0.00000400
 Charges of atoms sum to:          -0.00000400
 WARNING -- The following centers have non-zero partial charges, but zero Vanderwaals
 parameters.  These centers can collapse onto other centers with non-zero charge.
   Center  Layer   Charge
     10 H    R    0.354579
 MMInit generated parameter data with length LenPar=        1845.
 MM Charge=             -0.0000 electrons
 MM Dipole moment (Debye):
    X=             -0.3182    Y=             -1.3217    Z=              1.2776  Tot=              1.8656
 MM Quadrupole moment (Debye-Ang):
   XX=              8.3472   YY=             -0.0584   ZZ=              0.7724
   XY=             -0.4350   XZ=              2.7104   YZ=             -0.1054
 MM Traceless Quadrupole moment (Debye-Ang):
   XX=              5.3268   YY=             -3.0788   ZZ=             -2.2480
   XY=             -0.4350   XZ=              2.7104   YZ=             -0.1054
 MM Octapole moment (Debye-Ang**2):
  XXX=             -1.8484  YYY=             -4.0462  ZZZ=              0.6109  XYY=              6.8587
  XXY=              1.5388  XXZ=              4.8626  XZZ=              0.5683  YZZ=             -0.9922
  YYZ=              0.1356  XYZ=              0.2707
 MM Hexadecapole moment (Debye-Ang**3):
 XXXX=             92.4935 YYYY=              0.6484 ZZZZ=              0.8198 XXXY=             -5.3697
 XXXZ=             13.1262 YYYX=              1.9755 YYYZ=              0.3674 ZZZX=              0.5140
 ZZZY=             -0.6102 XXYY=              3.0080 XXZZ=              0.6318 YYZZ=              1.2885
 XXYZ=             -0.1043 YYXZ=              0.4643 ZZXY=             -0.7187
 Leave Link  101 at Mon Dec 13 11:27:11 2021, MaxMem=   134217728 cpu:               0.6 elap:               0.2
 (Enter /home/emanuele/chemical_software//g16/l103.exe)

 GradGradGradGradGradGradGradGradGradGradGradGradGradGradGradGradGradGrad
 Berny optimization.
 Initialization pass.
                           ----------------------------
                           !    Initial Parameters    !
                           ! (Angstroms and Degrees)  !
 --------------------------                            --------------------------
 ! Name  Definition              Value          Derivative Info.                !
 --------------------------------------------------------------------------------
 ! R1    R(1,2)                  1.3509         calculate D2E/DX2 analytically  !
 ! R2    R(1,3)                  1.5095         calculate D2E/DX2 analytically  !
 ! R3    R(1,9)                  1.2029         calculate D2E/DX2 analytically  !
 ! R4    R(2,10)                 0.9678         calculate D2E/DX2 analytically  !
 ! R5    R(3,4)                  1.1007         calculate D2E/DX2 analytically  !
 ! R6    R(3,5)                  1.092          calculate D2E/DX2 analytically  !
 ! R7    R(3,6)                  1.4518         calculate D2E/DX2 analytically  !
 ! R8    R(6,7)                  1.0127         calculate D2E/DX2 analytically  !
 ! R9    R(6,8)                  1.0101         calculate D2E/DX2 analytically  !
 ! A1    A(2,1,3)              111.7154         calculate D2E/DX2 analytically  !
 ! A2    A(2,1,9)              123.0182         calculate D2E/DX2 analytically  !
 ! A3    A(3,1,9)              125.2388         calculate D2E/DX2 analytically  !
 ! A4    A(1,2,10)             107.2257         calculate D2E/DX2 analytically  !
 ! A5    A(1,3,4)              105.4003         calculate D2E/DX2 analytically  !
 ! A6    A(1,3,5)              108.3736         calculate D2E/DX2 analytically  !
 ! A7    A(1,3,6)              110.6071         calculate D2E/DX2 analytically  !
 ! A8    A(4,3,5)              106.2232         calculate D2E/DX2 analytically  !
 ! A9    A(4,3,6)              114.8648         calculate D2E/DX2 analytically  !
 ! A10   A(5,3,6)              111.0079         calculate D2E/DX2 analytically  !
 ! A11   A(3,6,7)              109.9968         calculate D2E/DX2 analytically  !
 ! A12   A(3,6,8)              111.4207         calculate D2E/DX2 analytically  !
 ! A13   A(7,6,8)              108.6253         calculate D2E/DX2 analytically  !
 ! D1    D(3,1,2,10)           177.195          calculate D2E/DX2 analytically  !
 ! D2    D(9,1,2,10)            -0.9857         calculate D2E/DX2 analytically  !
 ! D3    D(2,1,3,4)            -71.8288         calculate D2E/DX2 analytically  !
 ! D4    D(2,1,3,5)             41.552          calculate D2E/DX2 analytically  !
 ! D5    D(2,1,3,6)            163.4539         calculate D2E/DX2 analytically  !
 ! D6    D(9,1,3,4)            106.3034         calculate D2E/DX2 analytically  !
 ! D7    D(9,1,3,5)           -140.3158         calculate D2E/DX2 analytically  !
 ! D8    D(9,1,3,6)            -18.4139         calculate D2E/DX2 analytically  !
 ! D9    D(1,3,6,7)             34.6533         calculate D2E/DX2 analytically  !
 ! D10   D(1,3,6,8)            155.1742         calculate D2E/DX2 analytically  !
 ! D11   D(4,3,6,7)            -84.4877         calculate D2E/DX2 analytically  !
 ! D12   D(4,3,6,8)             36.0331         calculate D2E/DX2 analytically  !
 ! D13   D(5,3,6,7)            154.9936         calculate D2E/DX2 analytically  !
 ! D14   D(5,3,6,8)            -84.4855         calculate D2E/DX2 analytically  !
 --------------------------------------------------------------------------------
 Trust Radius=3.00D-01 FncErr=1.00D-07 GrdErr=1.00D-07 EigMax=2.50D+02 EigMin=1.00D-04
 Number of steps in this run=      2 maximum allowed number of steps=      2.
 GradGradGradGradGradGradGradGradGradGradGradGradGradGradGradGradGradGrad

 Leave Link  103 at Mon Dec 13 11:27:11 2021, MaxMem=   134217728 cpu:               0.0 elap:               0.0
 (Enter /home/emanuele/chemical_software//g16/l202.exe)
                          Input orientation:                          
 ---------------------------------------------------------------------
 Center     Atomic      Atomic             Coordinates (Angstroms)
 Number     Number       Type             X           Y           Z
 ---------------------------------------------------------------------
      1          6    20001002       -0.536850    0.104174    0.014636
      2          8    20001022       -1.636322   -0.676373   -0.068268
      3          6    20001001        0.726013   -0.717700    0.105280
      4          1    20001034        0.716994   -1.157121    1.114447
      5          1    20001034        0.643380   -1.553795   -0.592281
      6          7    20001020        1.889013    0.097733   -0.195097
      7          1    20001029        1.748159    1.040807    0.145925
      8          1    20001029        2.723536   -0.278432    0.231888
      9          8    20001025       -0.586810    1.305633    0.046275
     10          1    20001031       -2.405088   -0.088514   -0.077854
 ---------------------------------------------------------------------
                    Distance matrix (angstroms):
                    1          2          3          4          5
     1  C    0.000000
     2  O    1.350913   0.000000
     3  C    1.509475   2.369062   0.000000
     4  H    2.091070   2.677318   1.100723   0.000000
     5  H    2.123712   2.498299   1.092005   1.753764   0.000000
     6  N    2.434921   3.611553   1.451801   2.159443   2.106395
     7  H    2.473011   3.801223   2.034400   2.613852   2.915038
     8  H    3.289940   4.388258   2.049167   2.361613   2.575433
     9  O    1.202913   2.245650   2.412646   2.984301   3.177648
    10  H    1.880424   0.967818   3.198938   3.508689   3.421234
                    6          7          8          9         10
     6  N    0.000000
     7  H    1.012682   0.000000
     8  H    1.010072   1.642906   0.000000
     9  O    2.765318   2.352051   3.674521   0.000000
    10  H    4.299737   4.309861   5.141478   2.294600   0.000000
 Stoichiometry    C2H5NO2
 Framework group  C1[X(C2H5NO2)]
 Deg. of freedom    24
 Full point group                 C1      NOp   1
 Largest Abelian subgroup         C1      NOp   1
 Largest concise Abelian subgroup C1      NOp   1
                         Standard orientation:                         
 ---------------------------------------------------------------------
 Center     Atomic      Atomic             Coordinates (Angstroms)
 Number     Number       Type             X           Y           Z
 ---------------------------------------------------------------------
      1          6    20001002       -0.536850    0.104174    0.014636
      2          8    20001022       -1.636322   -0.676373   -0.068268
      3          6    20001001        0.726013   -0.717700    0.105280
      4          1    20001034        0.716994   -1.157121    1.114447
      5          1    20001034        0.643380   -1.553795   -0.592281
      6          7    20001020        1.889013    0.097733   -0.195097
      7          1    20001029        1.748159    1.040807    0.145925
      8          1    20001029        2.723536   -0.278432    0.231888
      9          8    20001025       -0.586810    1.305633    0.046275
     10          1    20001031       -2.405088   -0.088514   -0.077854
 ---------------------------------------------------------------------
 Rotational constants (GHZ):          10.4489861           3.9571341           2.9518000
 Leave Link  202 at Mon Dec 13 11:27:11 2021, MaxMem=   134217728 cpu:               0.0 elap:               0.0
 (Enter /home/emanuele/chemical_software//g16/l301.exe)
 Standard basis: Dummy (5D, 7F)
 There are    10 symmetry adapted cartesian basis functions of A   symmetry.
 There are    10 symmetry adapted basis functions of A   symmetry.
    10 basis functions,    10 primitive gaussians,    10 cartesian basis functions
     7 alpha electrons        7 beta electrons
       nuclear repulsion energy        22.8502286820 Hartrees.
 IExCor=    0 DFT=F Ex=HF Corr=None ExCW=0 ScaHFX=  1.000000
 ScaDFX=  1.000000  1.000000  1.000000  1.000000 ScalE2=  1.000000  1.000000
 IRadAn=      5 IRanWt=     -1 IRanGd=            0 ICorTp=0 IEmpDi=  4
 NAtoms=   10 NActive=   10 NUniq=   10 SFac= 1.00D+00 NAtFMM=   60 NAOKFM=F Big=F
 Integral buffers will be    131072 words long.
 Raffenetti 1 integral format.
 Two-electron integral symmetry is turned on.
 Leave Link  301 at Mon Dec 13 11:27:11 2021, MaxMem=   134217728 cpu:               0.1 elap:               0.0
 (Enter /home/emanuele/chemical_software//g16/l402.exe)
 AMBER calculation of energy, first and second derivatives.
 Energy per function type:
 Direct Coulomb + vdW (small)                           0.017185517
 Direct Coulomb (large)                                -0.313650549
 Direct vdW (large)                                   271.454023268
 Non-direct Coulomb + vdW (small)                      -0.022237723
 Non-direct Coulomb (large)                             0.324982482
 Non-direct vdW (large)                              -271.454023268
 Energy per function class:
        Coulomb               0.004487153
    Vanderwaals               0.001792574
 Energy=    6.279727020E-03 NIter=   0.
 Dipole moment=      -0.125205      -0.519989       0.502637
 Leave Link  402 at Mon Dec 13 11:27:11 2021, MaxMem=   134217728 cpu:               0.1 elap:               0.0
 (Enter /home/emanuele/chemical_software//g16/l716.exe)
 Dipole        =-1.25204533D-01-5.19988984D-01 5.02636663D-01
 Full mass-weighted force constant matrix:
 Low frequencies --- -271.9589 -207.3036 -149.6436 -130.8410 -102.4516  -87.9819
 Low frequencies ---  -85.1266  -62.0788  -58.1975
 ******   12 imaginary frequencies (negative Signs) ****** 
 Diagonal vibrational polarizability:
      711.0597156    3894.1727378     760.1904246
 Harmonic frequencies (cm**-1), IR intensities (KM/Mole), Raman scattering
 activities (A**4/AMU), depolarization ratios for plane and unpolarized
 incident light, reduced masses (AMU), force constants (mDyne/A),
 and normal coordinates:
                      1                      2                      3
                      A                      A                      A
 Frequencies --   -271.9269              -207.1007              -148.7659
 Red. masses --      1.0853                 1.0599                 1.0392
 Frc consts  --      0.0473                 0.0268                 0.0136
 IR Inten    --    171.1723                44.4371                35.5695
  Atom  AN      X      Y      Z        X      Y      Z        X      Y      Z
     1   6     0.01   0.01   0.00     0.03   0.04   0.00    -0.03   0.00  -0.00
     2   8    -0.00  -0.01   0.00    -0.01  -0.02  -0.00     0.02   0.02  -0.01
     3   6    -0.00   0.00   0.00     0.00   0.00  -0.00    -0.01  -0.01  -0.00
     4   1     0.00  -0.02   0.01    -0.07   0.08   0.01     0.05  -0.28  -0.05
     5   1    -0.01  -0.04  -0.00    -0.02   0.06  -0.03    -0.01  -0.25   0.16
     6   7    -0.02   0.01   0.00    -0.00   0.01   0.00     0.01  -0.02   0.00
     7   1     0.32  -0.11   0.01     0.84  -0.36   0.03     0.08  -0.11   0.01
     8   1     0.06  -0.05   0.00    -0.01  -0.02   0.01    -0.49   0.75  -0.12
     9   8    -0.06  -0.03  -0.01    -0.04   0.01  -0.00     0.02  -0.00   0.00
    10   1     0.75   0.56   0.02    -0.31  -0.21  -0.01     0.03   0.03  -0.00
                      4                      5                      6
                      A                      A                      A
 Frequencies --   -123.3287              -102.0128               -75.3417
 Red. masses --      1.1275                 1.1304                 2.2565
 Frc consts  --      0.0101                 0.0069                 0.0075
 IR Inten    --     18.0017                35.7735                40.4311
  Atom  AN      X      Y      Z        X      Y      Z        X      Y      Z
     1   6     0.00  -0.00  -0.05     0.05  -0.02  -0.02     0.05  -0.06   0.22
     2   8    -0.00  -0.01   0.06    -0.05  -0.01  -0.00    -0.03  -0.03  -0.03
     3   6    -0.00   0.01   0.03     0.00   0.00   0.00     0.02   0.01  -0.06
     4   1     0.01  -0.30  -0.27     0.10  -0.24  -0.54     0.22  -0.15  -0.42
     5   1     0.02   0.36  -0.53     0.09  -0.05   0.67     0.01   0.31  -0.36
     6   7    -0.01  -0.02  -0.02    -0.03  -0.01  -0.02    -0.05  -0.05   0.13
     7   1     0.01   0.01   0.20     0.06   0.11   0.09     0.07   0.15  -0.26
     8   1    -0.05   0.16   0.59     0.33   0.02   0.21     0.15   0.16  -0.52
     9   8     0.01   0.01  -0.03    -0.01   0.04   0.01    -0.00   0.09  -0.11
    10   1     0.02   0.00  -0.01    -0.02  -0.02  -0.04     0.04   0.01   0.12
                      7                      8                      9
                      A                      A                      A
 Frequencies --    -68.7825               -54.8394               -46.9238
 Red. masses --      3.0387                 1.7241                 4.4970
 Frc consts  --      0.0085                 0.0031                 0.0058
 IR Inten    --     38.2347                28.1786                 4.4594
  Atom  AN      X      Y      Z        X      Y      Z        X      Y      Z
     1   6     0.09  -0.13  -0.12     0.00  -0.07   0.20    -0.18   0.34   0.12
     2   8    -0.02  -0.11  -0.02    -0.01   0.04  -0.08     0.09  -0.25  -0.06
     3   6     0.04   0.06   0.02    -0.01  -0.01  -0.04     0.08   0.07   0.01
     4   1    -0.07   0.54   0.51    -0.16   0.29   0.16     0.00  -0.35  -0.02
     5   1     0.11   0.16  -0.03     0.06   0.04   0.13     0.03  -0.50  -0.04
     6   7    -0.15  -0.14  -0.04     0.01   0.01  -0.08    -0.07  -0.10  -0.05
     7   1     0.11   0.23   0.18     0.03   0.01  -0.46    -0.10  -0.18  -0.20
     8   1    -0.05   0.33   0.01    -0.04   0.19   0.72    -0.07  -0.37   0.35
     9   8     0.04   0.21   0.09     0.01  -0.02   0.00     0.06   0.12   0.01
    10   1     0.18   0.02  -0.04     0.03  -0.00  -0.08     0.03   0.06  -0.03
                     10                     11                     12
                      A                      A                      A
 Frequencies --    -33.6999               -20.4561                -4.7716
 Red. masses --      5.8510                10.4506                10.3893
 Frc consts  --      0.0039                 0.0026                 0.0001
 IR Inten    --      0.9124                 0.8586                 1.6208
  Atom  AN      X      Y      Z        X      Y      Z        X      Y      Z
     1   6     0.03  -0.02   0.10    -0.15   0.04  -0.01    -0.00  -0.03   0.01
     2   8    -0.01  -0.00  -0.21    -0.19   0.20  -0.05    -0.06   0.01  -0.01
     3   6    -0.09   0.02   0.52     0.80  -0.03   0.10    -0.08   0.77  -0.07
     4   1     0.07  -0.09  -0.30    -0.19   0.07  -0.11    -0.01   0.03  -0.08
     5   1     0.01   0.17  -0.30    -0.19   0.17   0.02     0.03   0.22   0.14
     6   7     0.02   0.02  -0.27    -0.13  -0.12  -0.02     0.06  -0.29   0.03
     7   1     0.03   0.04   0.13    -0.14  -0.02   0.02     0.03  -0.13   0.06
     8   1     0.06   0.01  -0.59    -0.13   0.03  -0.10     0.08  -0.00  -0.09
     9   8     0.03  -0.03   0.05    -0.13  -0.12   0.01     0.06  -0.31   0.03
    10   1     0.02  -0.01   0.05    -0.13  -0.00   0.02     0.09  -0.28   0.03
                     13                     14                     15
                      A                      A                      A
 Frequencies --     33.7257                53.5890                75.1680
 Red. masses --      2.2887                 4.9626                 3.2410
 Frc consts  --      0.0015                 0.0084                 0.0108
 IR Inten    --     71.6544                19.9665                 1.9354
  Atom  AN      X      Y      Z        X      Y      Z        X      Y      Z
     1   6     0.00   0.21  -0.01     0.09   0.19   0.01     0.39   0.13   0.04
     2   8    -0.14  -0.09  -0.00     0.30   0.15  -0.02    -0.11  -0.03  -0.01
     3   6    -0.02  -0.10  -0.03    -0.08  -0.09  -0.00     0.01   0.02  -0.01
     4   1     0.00   0.39   0.05     0.31   0.16   0.05    -0.19  -0.17   0.13
     5   1     0.15   0.64   0.17     0.38   0.31   0.10    -0.31  -0.54  -0.24
     6   7     0.08  -0.01   0.01    -0.21  -0.18  -0.01    -0.05   0.01  -0.00
     7   1    -0.02   0.23   0.03    -0.09   0.18   0.00    -0.25   0.20  -0.01
     8   1     0.08   0.43  -0.12     0.29   0.24  -0.01    -0.38  -0.09   0.11
     9   8     0.07  -0.08   0.01    -0.18  -0.10   0.01    -0.07  -0.05  -0.01
    10   1     0.17  -0.07  -0.01     0.03  -0.38  -0.00    -0.11   0.03  -0.01
                     16                     17                     18
                      A                      A                      A
 Frequencies --     89.1549               117.1714               163.0864
 Red. masses --      1.2823                 1.0548                 1.0781
 Frc consts  --      0.0060                 0.0085                 0.0169
 IR Inten    --     29.8419                 6.6722               104.9314
  Atom  AN      X      Y      Z        X      Y      Z        X      Y      Z
     1   6     0.00  -0.01   0.12    -0.03   0.01   0.04    -0.01   0.01   0.00
     2   8     0.01   0.00   0.01     0.01   0.00   0.01    -0.06   0.03  -0.00
     3   6     0.01   0.00  -0.05    -0.00  -0.01  -0.02    -0.00  -0.00   0.00
     4   1    -0.13  -0.26   0.33     0.02   0.59  -0.42     0.24  -0.21   0.33
     5   1     0.10   0.20   0.18    -0.14  -0.43  -0.19    -0.13  -0.29  -0.18
     6   7    -0.00   0.01  -0.06     0.01  -0.01  -0.00    -0.01   0.02  -0.00
     7   1    -0.02   0.00   0.73     0.02   0.10   0.44    -0.02  -0.15   0.00
     8   1    -0.08  -0.11  -0.11     0.05   0.11   0.05     0.57   0.24   0.03
     9   8    -0.00   0.01  -0.05     0.01  -0.01  -0.01     0.02   0.01   0.00
    10   1     0.01  -0.00  -0.37     0.04  -0.04  -0.12     0.26  -0.41  -0.13
                     19                     20                     21
                      A                      A                      A
 Frequencies --    178.6043               184.5679               218.9406
 Red. masses --      1.0612                 1.0581                 1.2622
 Frc consts  --      0.0199                 0.0212                 0.0356
 IR Inten    --    140.6362               143.9817                65.0037
  Atom  AN      X      Y      Z        X      Y      Z        X      Y      Z
     1   6     0.01   0.00   0.01    -0.02  -0.00   0.01    -0.04  -0.00  -0.00
     2   8     0.00  -0.01  -0.04    -0.01   0.02  -0.04    -0.01   0.00  -0.01
     3   6     0.00   0.00  -0.02    -0.00  -0.01  -0.02    -0.00   0.00   0.00
     4   1    -0.01   0.02   0.16     0.06  -0.06   0.06     0.45  -0.13   0.22
     5   1    -0.01  -0.03   0.00     0.00  -0.05   0.07    -0.09  -0.12  -0.07
     6   7     0.02  -0.01  -0.01    -0.00   0.01  -0.00     0.10  -0.06  -0.01
     7   1    -0.15  -0.25   0.27     0.17   0.32   0.20     0.29   0.65  -0.04
     8   1     0.35   0.23   0.07    -0.25  -0.19   0.10     0.04  -0.00   0.06
     9   8    -0.02  -0.00  -0.02     0.01   0.01  -0.02    -0.07   0.00   0.02
    10   1    -0.33   0.40   0.60     0.28  -0.41   0.67    -0.27   0.27  -0.15
                     22                     23                     24
                      A                      A                      A
 Frequencies --    233.4643               252.3819               378.1049
 Red. masses --      1.1142                 3.1060                 1.0646
 Frc consts  --      0.0358                 0.1166                 0.0897
 IR Inten    --     11.4904                24.4572                12.9635
  Atom  AN      X      Y      Z        X      Y      Z        X      Y      Z
     1   6     0.02  -0.01   0.01     0.03   0.00   0.00    -0.00  -0.00  -0.00
     2   8    -0.03  -0.00  -0.02    -0.03  -0.00  -0.00    -0.06   0.02   0.01
     3   6     0.00   0.00  -0.00     0.00  -0.00   0.00     0.00   0.00   0.00
     4   1     0.84   0.16   0.04     0.16   0.15  -0.12     0.03  -0.00   0.01
     5   1    -0.02   0.10   0.08     0.05   0.13   0.07     0.94  -0.28  -0.17
     6   7    -0.06   0.03   0.00     0.26  -0.11  -0.02     0.00   0.00   0.00
     7   1    -0.09  -0.32   0.08    -0.36  -0.57   0.01     0.02  -0.01  -0.01
     8   1    -0.28  -0.15   0.12    -0.24  -0.08   0.01    -0.03  -0.05  -0.03
     9   8     0.04  -0.02  -0.01    -0.22   0.15   0.02    -0.00  -0.00  -0.00
    10   1    -0.05   0.08  -0.03     0.33  -0.36   0.00    -0.05   0.04   0.01

 -------------------
 - Thermochemistry -
 -------------------
 Temperature   298.150 Kelvin.  Pressure   1.00000 Atm.
 Atom     1 has atomic number  6 and mass  12.00000
 Atom     2 has atomic number  8 and mass  15.99491
 Atom     3 has atomic number  6 and mass  12.00000
 Atom     4 has atomic number  1 and mass   1.00783
 Atom     5 has atomic number  1 and mass   1.00783
 Atom     6 has atomic number  7 and mass  14.00307
 Atom     7 has atomic number  1 and mass   1.00783
 Atom     8 has atomic number  1 and mass   1.00783
 Atom     9 has atomic number  8 and mass  15.99491
 Atom    10 has atomic number  1 and mass   1.00783
 Molecular mass:    75.03203 amu.
 Principal axes and moments of inertia in atomic units:
                           1         2         3
     Eigenvalues --   172.71927 456.07280 611.40361
           X            0.99989  -0.00794   0.01240
           Y            0.00803   0.99994  -0.00695
           Z           -0.01234   0.00705   0.99990
 This molecule is an asymmetric top.
 Rotational symmetry number  1.
 Rotational temperatures (Kelvin)      0.50147     0.18991     0.14166
 Rotational constants (GHZ):          10.44899     3.95713     2.95180
   12 imaginary frequencies ignored.
 Zero-point vibrational energy      11830.8 (Joules/Mol)
                                    2.82763 (Kcal/Mol)
 Warning -- explicit consideration of  12 degrees of freedom as
           vibrations may cause significant error
 Vibrational temperatures:     48.52    77.10   108.15   128.27   168.58
          (Kelvin)            234.64   256.97   265.55   315.01   335.90
                              363.12   544.01
 
 Zero-point correction=                           0.004506 (Hartree/Particle)
 Thermal correction to Energy=                    0.014934
 Thermal correction to Enthalpy=                  0.015878
 Thermal correction to Gibbs Free Energy=        -0.031196
 Sum of electronic and zero-point Energies=              0.010786
 Sum of electronic and thermal Energies=                 0.021214
 Sum of electronic and thermal Enthalpies=               0.022158
 Sum of electronic and thermal Free Energies=           -0.024916
 
                     E (Thermal)             CV                S
                      KCal/Mol        Cal/Mol-Kelvin    Cal/Mol-Kelvin
 Total                    9.371             28.273             99.076
 Electronic               0.000              0.000              0.000
 Translational            0.889              2.981             38.862
 Rotational               0.889              2.981             25.380
 Vibrational              7.594             22.311             34.835
 Vibration     1          0.594              1.983              5.597
 Vibration     2          0.596              1.976              4.680
 Vibration     3          0.599              1.966              4.013
 Vibration     4          0.602              1.957              3.679
 Vibration     5          0.608              1.935              3.147
 Vibration     6          0.623              1.888              2.514
 Vibration     7          0.629              1.869              2.343
 Vibration     8          0.631              1.861              2.282
 Vibration     9          0.647              1.812              1.968
 Vibration    10          0.654              1.790              1.852
 Vibration    11          0.664              1.759              1.714
 Vibration    12          0.748              1.517              1.047
                       Q            Log10(Q)             Ln(Q)
 Total Bot       0.223474D+15         14.349226         33.040315
 Total V=0       0.264178D+17         16.421897         37.812816
 Vib (Bot)       0.111354D+03          2.046705          4.712713
 Vib (Bot)    1  0.613765D+01          0.788002          1.814441
 Vib (Bot)    2  0.385617D+01          0.586157          1.349675
 Vib (Bot)    3  0.274176D+01          0.438030          1.008601
 Vib (Bot)    4  0.230649D+01          0.362952          0.835727
 Vib (Bot)    5  0.174522D+01          0.241850          0.556880
 Vib (Bot)    6  0.123843D+01          0.092873          0.213848
 Vib (Bot)    7  0.112510D+01          0.051189          0.117868
 Vib (Bot)    8  0.108649D+01          0.036024          0.082948
 Vib (Bot)    9  0.903858D+00         -0.043900         -0.101084
 Vib (Bot)   10  0.842346D+00         -0.074509         -0.171564
 Vib (Bot)   11  0.772442D+00         -0.112134         -0.258198
 Vib (Bot)   12  0.478821D+00         -0.319827         -0.736429
 Vib (V=0)       0.131636D+05          4.119376          9.485214
 Vib (V=0)    1  0.665798D+01          0.823342          1.895816
 Vib (V=0)    2  0.438845D+01          0.642312          1.478977
 Vib (V=0)    3  0.328698D+01          0.516797          1.189970
 Vib (V=0)    4  0.286006D+01          0.456376          1.050844
 Vib (V=0)    5  0.231543D+01          0.364632          0.839595
 Vib (V=0)    6  0.183556D+01          0.263768          0.607349
 Vib (V=0)    7  0.173119D+01          0.238346          0.548812
 Vib (V=0)    8  0.169601D+01          0.229430          0.528281
 Vib (V=0)    9  0.153294D+01          0.185524          0.427185
 Vib (V=0)   10  0.147956D+01          0.170134          0.391748
 Vib (V=0)   11  0.142014D+01          0.152333          0.350759
 Vib (V=0)   12  0.119229D+01          0.076383          0.175878
 Electronic      0.100000D+01          0.000000          0.000000
 Translational   0.255461D+08          7.407324         17.055994
 Rotational      0.785592D+05          4.895197         11.271608
                           ----------------------------
                           ! Normal Mode     1        !
 --------------------------                            --------------------------
 ! Name  Definition              Value          Relative Weight (%)             !
 --------------------------------------------------------------------------------
 ! R1    R(1,2)                  0.0153                  0.8                    !
 ! R3    R(1,9)                 -0.0397                  2.0                    !
 ! R4    R(2,10)                -0.2527                 12.7                    !
 ! R5    R(3,4)                  0.0196                  1.0                    !
 ! R6    R(3,5)                  0.0315                  1.6                    !
 ! R8    R(6,7)                 -0.1546                  7.8                    !
 ! R9    R(6,8)                  0.0893                  4.5                    !
 ! A2    A(2,1,9)               -0.0278                  1.4                    !
 ! A3    A(3,1,9)                0.033                   1.7                    !
 ! A4    A(1,2,10)              -0.4955                 25.0                    !
 ! A8    A(4,3,5)               -0.0191                  1.0                    !
 ! A11   A(3,6,7)                0.1492                  7.5                    !
 ! A13   A(7,6,8)               -0.1344                  6.8                    !
 ! D1    D(3,1,2,10)             0.0195                  1.0                    !
 ! D2    D(9,1,2,10)             0.0192                  1.0                    !
 ! D9    D(1,3,6,7)              0.1003                  5.1                    !
 ! D10   D(1,3,6,8)              0.0255                  1.3                    !
 ! D11   D(4,3,6,7)              0.0944                  4.8                    !
 ! D12   D(4,3,6,8)              0.0196                  1.0                    !
 ! D13   D(5,3,6,7)              0.1085                  5.5                    !
 ! D14   D(5,3,6,8)              0.0337                  1.7                    !
 --------------------------------------------------------------------------------
                           ----------------------------
                           ! Normal Mode     2        !
 --------------------------                            --------------------------
 ! Name  Definition              Value          Relative Weight (%)             !
 --------------------------------------------------------------------------------
 ! R1    R(1,2)                  0.0648                  2.2                    !
 ! R3    R(1,9)                 -0.0269                  0.9                    !
 ! R4    R(2,10)                 0.1133                  3.9                    !
 ! R5    R(3,4)                 -0.0248                  0.9                    !
 ! R6    R(3,5)                 -0.0243                  0.8                    !
 ! R8    R(6,7)                 -0.4578                 15.9                    !
 ! A1    A(2,1,3)               -0.0213                  0.7                    !
 ! A2    A(2,1,9)               -0.0229                  0.8                    !
 ! A3    A(3,1,9)                0.0442                  1.5                    !
 ! A4    A(1,2,10)               0.1757                  6.1                    !
 ! A5    A(1,3,4)               -0.0455                  1.6                    !
 ! A7    A(1,3,6)               -0.0194                  0.7                    !
 ! A8    A(4,3,5)                0.0613                  2.1                    !
 ! A11   A(3,6,7)                0.3493                 12.1                    !
 ! A13   A(7,6,8)               -0.3758                 13.0                    !
 ! D3    D(2,1,3,4)             -0.0204                  0.7                    !
 ! D4    D(2,1,3,5)              0.0225                  0.8                    !
 ! D6    D(9,1,3,4)             -0.0215                  0.7                    !
 ! D7    D(9,1,3,5)              0.0214                  0.7                    !
 ! D9    D(1,3,6,7)              0.2528                  8.8                    !
 ! D11   D(4,3,6,7)              0.3163                 11.0                    !
 ! D12   D(4,3,6,8)              0.0664                  2.3                    !
 ! D13   D(5,3,6,7)              0.225                   7.8                    !
 ! D14   D(5,3,6,8)             -0.0249                  0.9                    !
 --------------------------------------------------------------------------------
                           ----------------------------
                           ! Normal Mode     3        !
 --------------------------                            --------------------------
 ! Name  Definition              Value          Relative Weight (%)             !
 --------------------------------------------------------------------------------
 ! R1    R(1,2)                 -0.0468                  1.3                    !
 ! R5    R(3,4)                  0.0688                  1.9                    !
 ! R6    R(3,5)                  0.0834                  2.3                    !
 ! R8    R(6,7)                 -0.0888                  2.4                    !
 ! R9    R(6,8)                 -0.7409                 20.2                    !
 ! A5    A(1,3,4)                0.0862                  2.4                    !
 ! A6    A(1,3,5)                0.0547                  1.5                    !
 ! A8    A(4,3,5)               -0.2642                  7.2                    !
 ! A10   A(5,3,6)                0.0725                  2.0                    !
 ! A12   A(3,6,8)                0.193                   5.3                    !
 ! A13   A(7,6,8)               -0.3172                  8.7                    !
 ! D3    D(2,1,3,4)              0.102                   2.8                    !
 ! D4    D(2,1,3,5)             -0.1344                  3.7                    !
 ! D6    D(9,1,3,4)              0.1062                  2.9                    !
 ! D7    D(9,1,3,5)             -0.1302                  3.6                    !
 ! D10   D(1,3,6,8)             -0.2309                  6.3                    !
 ! D11   D(4,3,6,7)             -0.1121                  3.1                    !
 ! D12   D(4,3,6,8)             -0.3745                 10.2                    !
 ! D13   D(5,3,6,7)              0.1543                  4.2                    !
 ! D14   D(5,3,6,8)             -0.1081                  3.0                    !
 --------------------------------------------------------------------------------
                           ----------------------------
                           ! Normal Mode     4        !
 --------------------------                            --------------------------
 ! Name  Definition              Value          Relative Weight (%)             !
 --------------------------------------------------------------------------------
 ! R5    R(3,4)                 -0.1485                  3.1                    !
 ! R6    R(3,5)                  0.0884                  1.8                    !
 ! R8    R(6,7)                  0.1034                  2.2                    !
 ! R9    R(6,8)                  0.1545                  3.2                    !
 ! A5    A(1,3,4)                0.126                   2.6                    !
 ! A6    A(1,3,5)               -0.1406                  2.9                    !
 ! A8    A(4,3,5)                0.1274                  2.7                    !
 ! A9    A(4,3,6)                0.1042                  2.2                    !
 ! A10   A(5,3,6)               -0.209                   4.4                    !
 ! A12   A(3,6,8)               -0.0718                  1.5                    !
 ! A13   A(7,6,8)               -0.3087                  6.4                    !
 ! D2    D(9,1,2,10)             0.0908                  1.9                    !
 ! D3    D(2,1,3,4)              0.2309                  4.8                    !
 ! D4    D(2,1,3,5)              0.3748                  7.8                    !
 ! D6    D(9,1,3,4)              0.1462                  3.0                    !
 ! D7    D(9,1,3,5)              0.2901                  6.0                    !
 ! D8    D(9,1,3,6)             -0.0615                  1.3                    !
 ! D9    D(1,3,6,7)              0.1503                  3.1                    !
 ! D10   D(1,3,6,8)             -0.3139                  6.5                    !
 ! D11   D(4,3,6,7)             -0.0834                  1.7                    !
 ! D12   D(4,3,6,8)             -0.5477                 11.4                    !
 ! D13   D(5,3,6,7)             -0.1663                  3.5                    !
 ! D14   D(5,3,6,8)             -0.6306                 13.1                    !
 --------------------------------------------------------------------------------
                           ----------------------------
                           ! Normal Mode     5        !
 --------------------------                            --------------------------
 ! Name  Definition              Value          Relative Weight (%)             !
 --------------------------------------------------------------------------------
 ! R1    R(1,2)                  0.0784                  1.6                    !
 ! R5    R(3,4)                 -0.3978                  8.1                    !
 ! R6    R(3,5)                 -0.3887                  7.9                    !
 ! R8    R(6,7)                  0.1375                  2.8                    !
 ! R9    R(6,8)                  0.3842                  7.8                    !
 ! A5    A(1,3,4)                0.1535                  3.1                    !
 ! A6    A(1,3,5)                0.1288                  2.6                    !
 ! A8    A(4,3,5)               -0.4711                  9.6                    !
 ! A9    A(4,3,6)                0.0745                  1.5                    !
 ! A10   A(5,3,6)                0.1186                  2.4                    !
 ! A13   A(7,6,8)               -0.1634                  3.3                    !
 ! D3    D(2,1,3,4)              0.1833                  3.7                    !
 ! D4    D(2,1,3,5)             -0.2243                  4.6                    !
 ! D6    D(9,1,3,4)              0.1406                  2.9                    !
 ! D7    D(9,1,3,5)             -0.2669                  5.5                    !
 ! D9    D(1,3,6,7)              0.0758                  1.5                    !
 ! D10   D(1,3,6,8)             -0.0691                  1.4                    !
 ! D11   D(4,3,6,7)             -0.1668                  3.4                    !
 ! D12   D(4,3,6,8)             -0.3117                  6.4                    !
 ! D13   D(5,3,6,7)              0.3089                  6.3                    !
 ! D14   D(5,3,6,8)              0.164                   3.3                    !
 --------------------------------------------------------------------------------
                           ----------------------------
                           ! Normal Mode     6        !
 --------------------------                            --------------------------
 ! Name  Definition              Value          Relative Weight (%)             !
 --------------------------------------------------------------------------------
 ! R1    R(1,2)                  0.0628                  1.2                    !
 ! R2    R(1,3)                 -0.0802                  1.6                    !
 ! R3    R(1,9)                  0.1464                  2.9                    !
 ! R5    R(3,4)                 -0.2651                  5.2                    !
 ! R7    R(3,6)                 -0.1316                  2.6                    !
 ! R8    R(6,7)                  0.0418                  0.8                    !
 ! R9    R(6,8)                 -0.1846                  3.6                    !
 ! A1    A(2,1,3)                0.0421                  0.8                    !
 ! A2    A(2,1,9)               -0.0542                  1.1                    !
 ! A5    A(1,3,4)                0.0566                  1.1                    !
 ! A6    A(1,3,5)               -0.0352                  0.7                    !
 ! A7    A(1,3,6)                0.0521                  1.0                    !
 ! A8    A(4,3,5)                0.0723                  1.4                    !
 ! A9    A(4,3,6)               -0.0722                  1.4                    !
 ! A10   A(5,3,6)               -0.0674                  1.3                    !
 ! A11   A(3,6,7)                0.1761                  3.5                    !
 ! A12   A(3,6,8)                0.3076                  6.1                    !
 ! A13   A(7,6,8)                0.1256                  2.5                    !
 ! D2    D(9,1,2,10)            -0.3475                  6.8                    !
 ! D3    D(2,1,3,4)             -0.0664                  1.3                    !
 ! D5    D(2,1,3,6)             -0.0459                  0.9                    !
 ! D6    D(9,1,3,4)              0.3154                  6.2                    !
 ! D7    D(9,1,3,5)              0.4097                  8.1                    !
 ! D8    D(9,1,3,6)              0.336                   6.6                    !
 ! D9    D(1,3,6,7)             -0.3218                  6.3                    !
 ! D10   D(1,3,6,8)              0.1552                  3.1                    !
 ! D11   D(4,3,6,7)             -0.3842                  7.6                    !
 ! D12   D(4,3,6,8)              0.0928                  1.8                    !
 ! D13   D(5,3,6,7)             -0.376                   7.4                    !
 ! D14   D(5,3,6,8)              0.101                   2.0                    !
 --------------------------------------------------------------------------------
                           ----------------------------
                           ! Normal Mode     7        !
 --------------------------                            --------------------------
 ! Name  Definition              Value          Relative Weight (%)             !
 --------------------------------------------------------------------------------
 ! R2    R(1,3)                 -0.1323                  2.3                    !
 ! R3    R(1,9)                  0.3434                  6.0                    !
 ! R4    R(2,10)                -0.0724                  1.3                    !
 ! R5    R(3,4)                  0.261                   4.6                    !
 ! R7    R(3,6)                 -0.2558                  4.5                    !
 ! R8    R(6,7)                  0.3833                  6.7                    !
 ! A1    A(2,1,3)                0.0784                  1.4                    !
 ! A4    A(1,2,10)              -0.0933                  1.6                    !
 ! A5    A(1,3,4)               -0.1672                  2.9                    !
 ! A8    A(4,3,5)                0.3506                  6.1                    !
 ! A10   A(5,3,6)               -0.0954                  1.7                    !
 ! A11   A(3,6,7)                0.1019                  1.8                    !
 ! A12   A(3,6,8)                0.1939                  3.4                    !
 ! A13   A(7,6,8)               -0.3958                  6.9                    !
 ! D2    D(9,1,2,10)             0.1632                  2.9                    !
 ! D3    D(2,1,3,4)             -0.1692                  3.0                    !
 ! D4    D(2,1,3,5)              0.123                   2.2                    !
 ! D6    D(9,1,3,4)             -0.3728                  6.5                    !
 ! D7    D(9,1,3,5)             -0.0807                  1.4                    !
 ! D8    D(9,1,3,6)             -0.212                   3.7                    !
 ! D9    D(1,3,6,7)              0.207                   3.6                    !
 ! D10   D(1,3,6,8)             -0.0957                  1.7                    !
 ! D11   D(4,3,6,7)              0.4355                  7.6                    !
 ! D12   D(4,3,6,8)              0.1329                  2.3                    !
 ! D13   D(5,3,6,7)              0.0937                  1.6                    !
 ! D14   D(5,3,6,8)             -0.209                   3.7                    !
 --------------------------------------------------------------------------------
                           ----------------------------
                           ! Normal Mode     8        !
 --------------------------                            --------------------------
 ! Name  Definition              Value          Relative Weight (%)             !
 --------------------------------------------------------------------------------
 ! R2    R(1,3)                 -0.0594                  1.3                    !
 ! R4    R(2,10)                -0.0628                  1.4                    !
 ! R5    R(3,4)                  0.0669                  1.5                    !
 ! R6    R(3,5)                 -0.1538                  3.4                    !
 ! R8    R(6,7)                 -0.1317                  2.9                    !
 ! R9    R(6,8)                  0.2325                  5.1                    !
 ! A5    A(1,3,4)               -0.2285                  5.0                    !
 ! A6    A(1,3,5)                0.0903                  2.0                    !
 ! A8    A(4,3,5)                0.1176                  2.6                    !
 ! A11   A(3,6,7)                0.073                   1.6                    !
 ! A12   A(3,6,8)               -0.1131                  2.5                    !
 ! A13   A(7,6,8)               -0.1853                  4.0                    !
 ! D1    D(3,1,2,10)             0.0967                  2.1                    !
 ! D2    D(9,1,2,10)            -0.2076                  4.5                    !
 ! D3    D(2,1,3,4)             -0.2698                  5.9                    !
 ! D4    D(2,1,3,5)             -0.2052                  4.5                    !
 ! D5    D(2,1,3,6)             -0.1332                  2.9                    !
 ! D7    D(9,1,3,5)              0.1065                  2.3                    !
 ! D8    D(9,1,3,6)              0.1784                  3.9                    !
 ! D9    D(1,3,6,7)             -0.2521                  5.5                    !
 ! D10   D(1,3,6,8)             -0.5101                 11.1                    !
 ! D12   D(4,3,6,8)             -0.2328                  5.1                    !
 ! D13   D(5,3,6,7)             -0.1206                  2.6                    !
 ! D14   D(5,3,6,8)             -0.3786                  8.3                    !
 --------------------------------------------------------------------------------
                           ----------------------------
                           ! Normal Mode     9        !
 --------------------------                            --------------------------
 ! Name  Definition              Value          Relative Weight (%)             !
 --------------------------------------------------------------------------------
 ! R1    R(1,2)                  0.1315                  2.1                    !
 ! R2    R(1,3)                  0.351                   5.7                    !
 ! R3    R(1,9)                 -0.2271                  3.7                    !
 ! R4    R(2,10)                 0.2359                  3.8                    !
 ! R5    R(3,4)                  0.1433                  2.3                    !
 ! R6    R(3,5)                  0.4712                  7.7                    !
 ! R7    R(3,6)                 -0.204                   3.3                    !
 ! R8    R(6,7)                 -0.1177                  1.9                    !
 ! R9    R(6,8)                  0.2617                  4.3                    !
 ! A1    A(2,1,3)               -0.2755                  4.5                    !
 ! A2    A(2,1,9)                0.3442                  5.6                    !
 ! A4    A(1,2,10)              -0.367                   6.0                    !
 ! A6    A(1,3,5)                0.1136                  1.9                    !
 ! A8    A(4,3,5)               -0.3531                  5.8                    !
 ! A9    A(4,3,6)                0.1484                  2.4                    !
 ! A12   A(3,6,8)               -0.1857                  3.0                    !
 ! D2    D(9,1,2,10)            -0.1382                  2.3                    !
 ! D3    D(2,1,3,4)              0.0771                  1.3                    !
 ! D4    D(2,1,3,5)             -0.2616                  4.3                    !
 ! D5    D(2,1,3,6)             -0.1244                  2.0                    !
 ! D6    D(9,1,3,4)              0.2779                  4.5                    !
 ! D9    D(1,3,6,7)             -0.0989                  1.6                    !
 ! D10   D(1,3,6,8)             -0.1594                  2.6                    !
 ! D11   D(4,3,6,7)             -0.241                   3.9                    !
 ! D12   D(4,3,6,8)             -0.3015                  4.9                    !
 ! D13   D(5,3,6,7)              0.0781                  1.3                    !
 --------------------------------------------------------------------------------
                           ----------------------------
                           ! Normal Mode    10        !
 --------------------------                            --------------------------
 ! Name  Definition              Value          Relative Weight (%)             !
 --------------------------------------------------------------------------------
 ! R2    R(1,3)                 -0.0961                  1.3                    !
 ! R5    R(3,4)                 -0.7103                  9.8                    !
 ! R6    R(3,5)                  0.3992                  5.5                    !
 ! R7    R(3,6)                  0.2502                  3.4                    !
 ! R8    R(6,7)                  0.1464                  2.0                    !
 ! R9    R(6,8)                 -0.0974                  1.3                    !
 ! A5    A(1,3,4)                0.3111                  4.3                    !
 ! A6    A(1,3,5)               -0.1808                  2.5                    !
 ! A8    A(4,3,5)                0.1514                  2.1                    !
 ! A9    A(4,3,6)                0.2791                  3.8                    !
 ! A10   A(5,3,6)               -0.475                   6.5                    !
 ! A11   A(3,6,7)               -0.2025                  2.8                    !
 ! D1    D(3,1,2,10)            -0.3017                  4.1                    !
 ! D2    D(9,1,2,10)            -0.2922                  4.0                    !
 ! D4    D(2,1,3,5)              0.3309                  4.5                    !
 ! D5    D(2,1,3,6)             -0.4156                  5.7                    !
 ! D7    D(9,1,3,5)              0.3206                  4.4                    !
 ! D8    D(9,1,3,6)             -0.4259                  5.9                    !
 ! D9    D(1,3,6,7)              0.5327                  7.3                    !
 ! D10   D(1,3,6,8)              0.3137                  4.3                    !
 ! D12   D(4,3,6,8)             -0.2342                  3.2                    !
 ! D14   D(5,3,6,8)             -0.2711                  3.7                    !
 --------------------------------------------------------------------------------
                           ----------------------------
                           ! Normal Mode    11        !
 --------------------------                            --------------------------
 ! Name  Definition              Value          Relative Weight (%)             !
 --------------------------------------------------------------------------------
 ! R2    R(1,3)                  0.8348                 10.0                    !
 ! R3    R(1,9)                 -0.1513                  1.8                    !
 ! R4    R(2,10)                -0.1683                  2.0                    !
 ! R5    R(3,4)                 -0.2263                  2.7                    !
 ! R7    R(3,6)                 -0.7733                  9.3                    !
 ! R8    R(6,7)                  0.107                   1.3                    !
 ! A1    A(2,1,3)                0.2253                  2.7                    !
 ! A3    A(3,1,9)               -0.1705                  2.0                    !
 ! A4    A(1,2,10)               0.1262                  1.5                    !
 ! A5    A(1,3,4)               -0.4528                  5.4                    !
 ! A6    A(1,3,5)               -0.6083                  7.3                    !
 ! A9    A(4,3,6)                0.5735                  6.9                    !
 ! A10   A(5,3,6)                0.375                   4.5                    !
 ! A12   A(3,6,8)               -0.1216                  1.5                    !
 ! D3    D(2,1,3,4)              0.2719                  3.3                    !
 ! D4    D(2,1,3,5)             -0.1724                  2.1                    !
 ! D5    D(2,1,3,6)             -0.1202                  1.4                    !
 ! D6    D(9,1,3,4)              0.2686                  3.2                    !
 ! D7    D(9,1,3,5)             -0.1757                  2.1                    !
 ! D8    D(9,1,3,6)             -0.1235                  1.5                    !
 ! D9    D(1,3,6,7)              0.16                    1.9                    !
 ! D11   D(4,3,6,7)              0.3732                  4.5                    !
 ! D12   D(4,3,6,8)              0.2943                  3.5                    !
 ! D13   D(5,3,6,7)             -0.3757                  4.5                    !
 ! D14   D(5,3,6,8)             -0.4546                  5.4                    !
 --------------------------------------------------------------------------------
                           ----------------------------
                           ! Normal Mode    12        !
 --------------------------                            --------------------------
 ! Name  Definition              Value          Relative Weight (%)             !
 --------------------------------------------------------------------------------
 ! R2    R(1,3)                 -0.503                   6.0                    !
 ! R3    R(1,9)                 -0.279                   3.3                    !
 ! R4    R(2,10)                -0.2956                  3.5                    !
 ! R5    R(3,4)                  0.2863                  3.4                    !
 ! R6    R(3,5)                  0.2782                  3.3                    !
 ! R7    R(3,6)                 -0.506                   6.0                    !
 ! R8    R(6,7)                  0.1655                  2.0                    !
 ! R9    R(6,8)                 -0.1406                  1.7                    !
 ! A1    A(2,1,3)                0.2474                  2.9                    !
 ! A3    A(3,1,9)               -0.2428                  2.9                    !
 ! A7    A(1,3,6)                0.5615                  6.7                    !
 ! A8    A(4,3,5)               -0.5747                  6.8                    !
 ! A10   A(5,3,6)               -0.1287                  1.5                    !
 ! A11   A(3,6,7)               -0.3108                  3.7                    !
 ! A12   A(3,6,8)                0.43                    5.1                    !
 ! D3    D(2,1,3,4)              0.3174                  3.8                    !
 ! D4    D(2,1,3,5)             -0.2859                  3.4                    !
 ! D6    D(9,1,3,4)              0.3419                  4.1                    !
 ! D7    D(9,1,3,5)             -0.2614                  3.1                    !
 ! D11   D(4,3,6,7)             -0.5581                  6.6                    !
 ! D12   D(4,3,6,8)             -0.5907                  7.0                    !
 ! D13   D(5,3,6,7)              0.2944                  3.5                    !
 ! D14   D(5,3,6,8)              0.2619                  3.1                    !
 --------------------------------------------------------------------------------
                           ----------------------------
                           ! Normal Mode    13        !
 --------------------------                            --------------------------
 ! Name  Definition              Value          Relative Weight (%)             !
 --------------------------------------------------------------------------------
 ! R1    R(1,2)                  0.2909                  4.9                    !
 ! R2    R(1,3)                  0.1438                  2.4                    !
 ! R3    R(1,9)                 -0.2962                  5.0                    !
 ! R4    R(2,10)                -0.2398                  4.1                    !
 ! R5    R(3,4)                 -0.1221                  2.1                    !
 ! R6    R(3,5)                 -0.7019                 11.9                    !
 ! R7    R(3,6)                  0.1202                  2.0                    !
 ! R8    R(6,7)                  0.245                   4.2                    !
 ! R9    R(6,8)                 -0.2113                  3.6                    !
 ! A1    A(2,1,3)               -0.1576                  2.7                    !
 ! A2    A(2,1,9)                0.0847                  1.4                    !
 ! A4    A(1,2,10)              -0.1751                  3.0                    !
 ! A5    A(1,3,4)               -0.0774                  1.3                    !
 ! A7    A(1,3,6)               -0.0904                  1.5                    !
 ! A8    A(4,3,5)                0.3832                  6.5                    !
 ! A9    A(4,3,6)               -0.139                   2.4                    !
 ! A10   A(5,3,6)               -0.114                   1.9                    !
 ! A12   A(3,6,8)                0.2099                  3.6                    !
 ! A13   A(7,6,8)               -0.1195                  2.0                    !
 ! D3    D(2,1,3,4)             -0.2337                  4.0                    !
 ! D4    D(2,1,3,5)              0.196                   3.3                    !
 ! D6    D(9,1,3,4)             -0.2458                  4.2                    !
 ! D7    D(9,1,3,5)              0.1838                  3.1                    !
 ! D9    D(1,3,6,7)             -0.0957                  1.6                    !
 ! D10   D(1,3,6,8)             -0.1128                  1.9                    !
 ! D11   D(4,3,6,7)              0.1675                  2.8                    !
 ! D12   D(4,3,6,8)              0.1504                  2.6                    !
 ! D13   D(5,3,6,7)             -0.1497                  2.5                    !
 ! D14   D(5,3,6,8)             -0.1668                  2.8                    !
 --------------------------------------------------------------------------------
                           ----------------------------
                           ! Normal Mode    14        !
 --------------------------                            --------------------------
 ! Name  Definition              Value          Relative Weight (%)             !
 --------------------------------------------------------------------------------
 ! R1    R(1,2)                 -0.1448                  2.6                    !
 ! R3    R(1,9)                 -0.273                   4.9                    !
 ! R4    R(2,10)                -0.1102                  2.0                    !
 ! R6    R(3,5)                 -0.4062                  7.3                    !
 ! R7    R(3,6)                 -0.1584                  2.8                    !
 ! R8    R(6,7)                  0.3274                  5.9                    !
 ! R9    R(6,8)                  0.2573                  4.6                    !
 ! A1    A(2,1,3)               -0.1699                  3.1                    !
 ! A3    A(3,1,9)                0.2386                  4.3                    !
 ! A4    A(1,2,10)               0.2637                  4.7                    !
 ! A5    A(1,3,4)                0.1395                  2.5                    !
 ! A6    A(1,3,5)                0.2371                  4.3                    !
 ! A7    A(1,3,6)               -0.1104                  2.0                    !
 ! A8    A(4,3,5)                0.2275                  4.1                    !
 ! A9    A(4,3,6)               -0.2106                  3.8                    !
 ! A10   A(5,3,6)               -0.2299                  4.1                    !
 ! A11   A(3,6,7)                0.096                   1.7                    !
 ! A12   A(3,6,8)                0.3006                  5.4                    !
 ! A13   A(7,6,8)               -0.2626                  4.7                    !
 ! D3    D(2,1,3,4)             -0.2527                  4.5                    !
 ! D4    D(2,1,3,5)              0.1798                  3.2                    !
 ! D6    D(9,1,3,4)             -0.2586                  4.6                    !
 ! D7    D(9,1,3,5)              0.1739                  3.1                    !
 ! D10   D(1,3,6,8)             -0.116                   2.1                    !
 ! D12   D(4,3,6,8)             -0.0705                  1.3                    !
 --------------------------------------------------------------------------------
                           ----------------------------
                           ! Normal Mode    15        !
 --------------------------                            --------------------------
 ! Name  Definition              Value          Relative Weight (%)             !
 --------------------------------------------------------------------------------
 ! R1    R(1,2)                  0.5044                 10.8                    !
 ! R2    R(1,3)                 -0.2638                  5.7                    !
 ! R3    R(1,9)                 -0.1577                  3.4                    !
 ! R5    R(3,4)                  0.1999                  4.3                    !
 ! R6    R(3,5)                  0.601                  12.9                    !
 ! R8    R(6,7)                  0.1977                  4.2                    !
 ! R9    R(6,8)                 -0.1888                  4.0                    !
 ! A2    A(2,1,9)               -0.2706                  5.8                    !
 ! A3    A(3,1,9)                0.3134                  6.7                    !
 ! A7    A(1,3,6)               -0.1114                  2.4                    !
 ! A8    A(4,3,5)               -0.153                   3.3                    !
 ! A9    A(4,3,6)                0.114                   2.4                    !
 ! A10   A(5,3,6)                0.163                   3.5                    !
 ! A11   A(3,6,7)               -0.0596                  1.3                    !
 ! A12   A(3,6,8)               -0.1653                  3.5                    !
 ! A13   A(7,6,8)                0.1362                  2.9                    !
 ! D3    D(2,1,3,4)              0.0652                  1.4                    !
 ! D4    D(2,1,3,5)             -0.1227                  2.6                    !
 ! D6    D(9,1,3,4)              0.0686                  1.5                    !
 ! D7    D(9,1,3,5)             -0.1192                  2.6                    !
 ! D9    D(1,3,6,7)             -0.1115                  2.4                    !
 ! D10   D(1,3,6,8)             -0.0882                  1.9                    !
 ! D11   D(4,3,6,7)             -0.0744                  1.6                    !
 ! D13   D(5,3,6,7)             -0.0796                  1.7                    !
 --------------------------------------------------------------------------------
                           ----------------------------
                           ! Normal Mode    16        !
 --------------------------                            --------------------------
 ! Name  Definition              Value          Relative Weight (%)             !
 --------------------------------------------------------------------------------
 ! R5    R(3,4)                  0.4559                 11.1                    !
 ! R6    R(3,5)                 -0.3116                  7.6                    !
 ! R8    R(6,7)                  0.2631                  6.4                    !
 ! A5    A(1,3,4)               -0.092                   2.2                    !
 ! A6    A(1,3,5)                0.076                   1.8                    !
 ! A8    A(4,3,5)               -0.0713                  1.7                    !
 ! A9    A(4,3,6)                0.0808                  2.0                    !
 ! A11   A(3,6,7)               -0.1494                  3.6                    !
 ! A12   A(3,6,8)               -0.0656                  1.6                    !
 ! A13   A(7,6,8)               -0.1506                  3.7                    !
 ! D1    D(3,1,2,10)             0.2796                  6.8                    !
 ! D2    D(9,1,2,10)             0.0801                  1.9                    !
 ! D4    D(2,1,3,5)             -0.0972                  2.4                    !
 ! D5    D(2,1,3,6)             -0.053                   1.3                    !
 ! D6    D(9,1,3,4)              0.1992                  4.8                    !
 ! D7    D(9,1,3,5)              0.1071                  2.6                    !
 ! D8    D(9,1,3,6)              0.1513                  3.7                    !
 ! D9    D(1,3,6,7)              0.3244                  7.9                    !
 ! D11   D(4,3,6,7)              0.3775                  9.2                    !
 ! D13   D(5,3,6,7)              0.4221                 10.3                    !
 ! D14   D(5,3,6,8)              0.0898                  2.2                    !
 --------------------------------------------------------------------------------
                           ----------------------------
                           ! Normal Mode    17        !
 --------------------------                            --------------------------
 ! Name  Definition              Value          Relative Weight (%)             !
 --------------------------------------------------------------------------------
 ! R5    R(3,4)                 -0.6041                 15.4                    !
 ! R6    R(3,5)                  0.4424                 11.3                    !
 ! R8    R(6,7)                  0.2531                  6.5                    !
 ! A5    A(1,3,4)               -0.101                   2.6                    !
 ! A8    A(4,3,5)                0.117                   3.0                    !
 ! A9    A(4,3,6)               -0.104                   2.7                    !
 ! A10   A(5,3,6)                0.0772                  2.0                    !
 ! A11   A(3,6,7)               -0.0614                  1.6                    !
 ! A12   A(3,6,8)                0.0562                  1.4                    !
 ! A13   A(7,6,8)               -0.2024                  5.2                    !
 ! D1    D(3,1,2,10)             0.1008                  2.6                    !
 ! D3    D(2,1,3,4)             -0.1957                  5.0                    !
 ! D4    D(2,1,3,5)             -0.1112                  2.8                    !
 ! D6    D(9,1,3,4)             -0.1282                  3.3                    !
 ! D8    D(9,1,3,6)              0.0577                  1.5                    !
 ! D9    D(1,3,6,7)              0.1806                  4.6                    !
 ! D10   D(1,3,6,8)             -0.0782                  2.0                    !
 ! D11   D(4,3,6,7)              0.3752                  9.6                    !
 ! D12   D(4,3,6,8)              0.1163                  3.0                    !
 ! D13   D(5,3,6,7)              0.2369                  6.1                    !
 --------------------------------------------------------------------------------
                           ----------------------------
                           ! Normal Mode    18        !
 --------------------------                            --------------------------
 ! Name  Definition              Value          Relative Weight (%)             !
 --------------------------------------------------------------------------------
 ! R1    R(1,2)                  0.0252                  0.8                    !
 ! R4    R(2,10)                -0.518                  15.8                    !
 ! R5    R(3,4)                  0.3778                 11.5                    !
 ! R6    R(3,5)                  0.345                  10.5                    !
 ! R8    R(6,7)                 -0.1527                  4.7                    !
 ! R9    R(6,8)                  0.4073                 12.4                    !
 ! A4    A(1,2,10)               0.1048                  3.2                    !
 ! A5    A(1,3,4)                0.1152                  3.5                    !
 ! A6    A(1,3,5)               -0.0369                  1.1                    !
 ! A8    A(4,3,5)               -0.0402                  1.2                    !
 ! A9    A(4,3,6)               -0.0841                  2.6                    !
 ! A10   A(5,3,6)                0.0564                  1.7                    !
 ! A11   A(3,6,7)               -0.0208                  0.6                    !
 ! A12   A(3,6,8)                0.2352                  7.2                    !
 ! A13   A(7,6,8)               -0.1513                  4.6                    !
 ! D1    D(3,1,2,10)             0.067                   2.0                    !
 ! D2    D(9,1,2,10)             0.0656                  2.0                    !
 ! D3    D(2,1,3,4)             -0.0335                  1.0                    !
 ! D4    D(2,1,3,5)             -0.0404                  1.2                    !
 ! D6    D(9,1,3,4)             -0.0318                  1.0                    !
 ! D7    D(9,1,3,5)             -0.0387                  1.2                    !
 ! D9    D(1,3,6,7)              0.0258                  0.8                    !
 ! D10   D(1,3,6,8)             -0.0246                  0.8                    !
 ! D11   D(4,3,6,7)             -0.0595                  1.8                    !
 ! D12   D(4,3,6,8)             -0.1099                  3.3                    !
 ! D14   D(5,3,6,8)             -0.0398                  1.2                    !
 --------------------------------------------------------------------------------
                           ----------------------------
                           ! Normal Mode    19        !
 --------------------------                            --------------------------
 ! Name  Definition              Value          Relative Weight (%)             !
 --------------------------------------------------------------------------------
 ! R4    R(2,10)                 0.5151                 15.4                    !
 ! R5    R(3,4)                  0.1544                  4.6                    !
 ! R8    R(6,7)                 -0.108                   3.2                    !
 ! R9    R(6,8)                  0.2122                  6.4                    !
 ! A4    A(1,2,10)              -0.0937                  2.8                    !
 ! A11   A(3,6,7)               -0.17                    5.1                    !
 ! A12   A(3,6,8)                0.1787                  5.4                    !
 ! A13   A(7,6,8)               -0.1656                  5.0                    !
 ! D1    D(3,1,2,10)            -0.3497                 10.5                    !
 ! D2    D(9,1,2,10)            -0.3956                 11.9                    !
 ! D3    D(2,1,3,4)             -0.0626                  1.9                    !
 ! D4    D(2,1,3,5)             -0.0443                  1.3                    !
 ! D9    D(1,3,6,7)              0.115                   3.4                    !
 ! D10   D(1,3,6,8)             -0.0903                  2.7                    !
 ! D11   D(4,3,6,7)              0.1673                  5.0                    !
 ! D13   D(5,3,6,7)              0.1444                  4.3                    !
 ! D14   D(5,3,6,8)             -0.0609                  1.8                    !
 --------------------------------------------------------------------------------
                           ----------------------------
                           ! Normal Mode    20        !
 --------------------------                            --------------------------
 ! Name  Definition              Value          Relative Weight (%)             !
[...]
     21  0.226811D-02
     22 -0.692915D-03  0.349354D-03
     23  0.392306D-04  0.105236D-04  0.742362D-03
     24  0.131324D-03 -0.151392D-04  0.105725D-02  0.163766D-02
     25  0.369802D-03  0.287390D-04  0.827690D-04  0.418203D-03  0.968981D-03
     26 -0.122233D-03 -0.237363D-04  0.164100D-03  0.386128D-03 -0.286950D-03
     27 -0.220500D-03 -0.102319D-04  0.100906D-03  0.434397D-03 -0.134366D-03
     28  0.245346D-03  0.616264D-05 -0.221538D-03 -0.192635D-03  0.550355D-03
     29 -0.246689D-03 -0.463126D-04 -0.140207D-03 -0.224710D-03 -0.705576D-03
     30 -0.344956D-03 -0.328082D-04 -0.203402D-03 -0.176441D-03 -0.552991D-03
     31 -0.100164D-03  0.298769D-03  0.299253D-03 -0.357550D-03 -0.198036D-03
     32  0.166837D-03 -0.980210D-04  0.277826D-03 -0.705450D-04 -0.197375D-04
     33  0.263196D-04  0.424698D-04  0.108590D-04 -0.266044D-03 -0.526011D-03
     34  0.293320D-03 -0.354321D-03 -0.105683D-04  0.209608D-04 -0.347713D-03
     35 -0.383006D-03  0.401318D-03 -0.215520D-03  0.143833D-04  0.309896D-03
     36 -0.116006D-03  0.452741D-05 -0.236948D-03  0.301388D-03  0.488194D-03
               26            27            28            29            30 
     26  0.122977D-02
     27  0.215773D-03  0.580271D-03
     28 -0.425391D-03 -0.438293D-03  0.504311D-03
     29  0.109133D-02 -0.881542D-04 -0.471435D-03  0.132547D-02
     30  0.773324D-04  0.276344D-03 -0.484337D-03  0.145986D-03  0.344997D-03
     31 -0.508388D-03 -0.521220D-03  0.470925D-03  0.160572D-03  0.147740D-03
     32 -0.531235D-03 -0.726009D-03  0.338288D-03 -0.173210D-03 -0.367984D-03
     33  0.577081D-03  0.417591D-03 -0.993734D-04  0.100372D-02  0.844229D-03
     34  0.554234D-03  0.212802D-03 -0.232010D-03  0.669936D-03  0.328505D-03
     35  0.218996D-03  0.434719D-03 -0.200273D-04 -0.110928D-03  0.104795D-03
     36  0.196149D-03  0.229930D-03 -0.152664D-03 -0.444709D-03 -0.410929D-03
               31            32            33            34            35 
     31  0.160006D-02
     32  0.792039D-03  0.671264D-03
     33  0.472478D-03 -0.198528D-03  0.168669D-02
     34 -0.335538D-03 -0.319303D-03  0.101568D-02  0.103192D-02
     35 -0.362695D-04 -0.618536D-03 -0.278274D-03 -0.860541D-03  0.177204D-02
     36 -0.844286D-03 -0.739311D-03 -0.949280D-03 -0.844305D-03  0.118978D-02
               36 
     36  0.129475D-02
 Leave Link  716 at Mon Dec 13 11:27:11 2021, MaxMem=   134217728 cpu:               0.1 elap:               0.0
 (Enter /home/emanuele/chemical_software//g16/l103.exe)

 GradGradGradGradGradGradGradGradGradGradGradGradGradGradGradGradGradGrad
 Berny optimization.
 Red2BG is reusing G-inverse.
 Internal  Forces:  Max     0.009462142 RMS     0.003940859
 Search for a local minimum.
 Step number   1 out of a maximum of    2
 All quantities printed in internal units (Hartrees-Bohrs-Radians)
 Second derivative matrix not updated -- analytic derivatives used.
 ITU=  0
     Eigenvalues ---   -0.01694  -0.00358  -0.00256  -0.00235  -0.00135
     Eigenvalues ---   -0.00099  -0.00076  -0.00039  -0.00030  -0.00018
     Eigenvalues ---    0.00019   0.00033   0.00081   0.00183   0.00233
     Eigenvalues ---    0.00249   0.00280   0.00316   0.00459   0.00602
     Eigenvalues ---    0.00620   0.00864   0.03416   0.11505
 Eigenvalue     1 is  -1.69D-02 should be greater than     0.000000 Eigenvector:
                          A4        A2        R1        A1        A3
   1                    0.73966   0.41541   0.37043  -0.22292  -0.19293
                          R3        R4        R2        A11       A10
   1                    0.11767  -0.11433   0.10973  -0.06778  -0.05161
 Eigenvalue     2 is  -3.58D-03 should be greater than     0.000000 Eigenvector:
                          R3        R8        R7        A11       D9
   1                    0.57734   0.55584  -0.28217  -0.19984  -0.15831
                          R4        A7        A12       D13       D7
   1                    0.15672  -0.14678   0.13722  -0.12982  -0.12751
 Eigenvalue     3 is  -2.56D-03 should be greater than     0.000000 Eigenvector:
                          A2        A4        R2        R4        R3
   1                    0.48057  -0.43103   0.32085   0.28326  -0.26764
                          A11       A1        A3        R8        A13
   1                   -0.25234  -0.24869  -0.23262   0.16659   0.14719
 Eigenvalue     4 is  -2.35D-03 should be greater than     0.000000 Eigenvector:
                          R1        R4        R3        A11       A4
   1                    0.58525   0.45887   0.27605   0.27300  -0.27253
                          R8        A13       A1        D9        D11
   1                   -0.25760  -0.16257  -0.13763   0.10759   0.10264
 Eigenvalue     5 is  -1.35D-03 should be greater than     0.000000 Eigenvector:
                          R7        R2        D8        D6        R9
   1                   -0.48362   0.44021   0.32548   0.28012   0.24845
                          D7        A12       R1        R4        A11
   1                    0.22366   0.17366  -0.16809  -0.16289   0.14969
 Eigenvalue     6 is  -9.92D-04 should be greater than     0.000000 Eigenvector:
                          R5        R7        D11       A9        A5
   1                    0.41920  -0.30826   0.28525   0.27644  -0.25719
                          D7        R2        R9        D8        D4
   1                   -0.24382   0.23435  -0.23266  -0.20292  -0.20093
 Eigenvalue     7 is  -7.58D-04 should be greater than     0.000000 Eigenvector:
                          R9        A13       D8        R5        D6
   1                   -0.60418   0.31805   0.27713   0.25822   0.24540
                          D7        D12       D13       R6        A12
   1                    0.17953   0.17547  -0.16463   0.15698  -0.15534
 Eigenvalue     8 is  -3.93D-04 should be greater than     0.000000 Eigenvector:
                          D12       D10       D14       A13       D1
   1                    0.47853   0.43945   0.31199   0.29908  -0.29339
                          D6        D7        D8        A6        D11
   1                   -0.24352  -0.22416  -0.21781  -0.15589   0.12236
 Eigenvalue     9 is  -3.02D-04 should be greater than     0.000000 Eigenvector:
                          R6        D1        A5        D4        D3
   1                   -0.45175   0.34643  -0.32029  -0.26432  -0.26293
                          R9        D5        D12       D11       R1
   1                    0.26105  -0.25238   0.23434   0.17312   0.16011
 Eigenvalue    10 is  -1.76D-04 should be greater than     0.000000 Eigenvector:
                          D14       D4        D3        D5        D13
   1                   -0.41889   0.36945   0.29662   0.29021  -0.26130
                          D1        R5        A6        R9        R6
   1                   -0.24822   0.23620  -0.22636   0.21989  -0.21013
 Quadratic step=1.025D+01 exceeds max=3.000D-01 adjusted using Lamda=-4.724D-02.
 Angle between NR and scaled steps=  67.53 degrees.
 Angle between quadratic step and forces=  25.16 degrees.
 Linear search not attempted -- first point.
 Iteration  1 RMS(Cart)=  0.09310381 RMS(Int)=  0.00528732
 Iteration  2 RMS(Cart)=  0.00509945 RMS(Int)=  0.00029133
 Iteration  3 RMS(Cart)=  0.00000554 RMS(Int)=  0.00029129
 Iteration  4 RMS(Cart)=  0.00000000 RMS(Int)=  0.00029129
 ITry= 1 IFail=0 DXMaxC= 2.82D-01 DCOld= 1.00D+10 DXMaxT= 3.00D-01 DXLimC= 3.00D+00 Rises=F
 Variable       Old X    -DE/DX   Delta X   Delta X   Delta X     New X
                                 (Linear)    (Quad)   (Total)
    R1        2.55286  -0.00472   0.00000  -0.08253  -0.08253   2.47032
    R2        2.85250   0.00797   0.00000   0.06684   0.06684   2.91933
    R3        2.27318  -0.00045   0.00000  -0.04565  -0.04565   2.22752
    R4        1.82891  -0.00098   0.00000  -0.02407  -0.02407   1.80484
    R5        2.08006   0.00081   0.00000   0.01483   0.01483   2.09489
    R6        2.06359   0.00124   0.00000   0.01978   0.01978   2.08337
    R7        2.74351   0.00890   0.00000   0.13716   0.13716   2.88067
    R8        1.91369   0.00266   0.00000   0.04924   0.04924   1.96294
    R9        1.90876   0.00052   0.00000   0.01219   0.01219   1.92095
    A1        1.94980   0.00245   0.00000   0.07555   0.07555   2.02535
    A2        2.14707  -0.00946   0.00000  -0.10999  -0.10999   2.03709
    A3        2.18583   0.00699   0.00000   0.03418   0.03416   2.21999
    A4        1.87144  -0.00926   0.00000  -0.14705  -0.14705   1.72439
    A5        1.83958  -0.00474   0.00000  -0.05019  -0.05065   1.78893
    A6        1.89148  -0.00240   0.00000  -0.01799  -0.01832   1.87316
    A7        1.93046   0.00933   0.00000   0.05542   0.05544   1.98590
    A8        1.85394   0.00068   0.00000   0.00135   0.00070   1.85464
    A9        2.00477  -0.00069   0.00000   0.01468   0.01524   2.02001
   A10        1.93745  -0.00271   0.00000  -0.00873  -0.00859   1.92886
   A11        1.91981  -0.00148   0.00000  -0.02859  -0.02844   1.89137
   A12        1.94466   0.00340   0.00000   0.06357   0.06371   2.00837
   A13        1.89587  -0.00033   0.00000  -0.00688  -0.00662   1.88925
    D1        3.09264   0.00005   0.00000   0.00185   0.00206   3.09470
    D2       -0.01720   0.00065   0.00000   0.00929   0.00908  -0.00812
    D3       -1.25365   0.00155   0.00000   0.01841   0.01778  -1.23587
    D4        0.72522  -0.00101   0.00000  -0.01217  -0.01170   0.71352
    D5        2.85281  -0.00009   0.00000  -0.00001   0.00034   2.85315
    D6        1.85534   0.00057   0.00000   0.00766   0.00689   1.86224
    D7       -2.44897  -0.00200   0.00000  -0.02293  -0.02258  -2.47155
    D8       -0.32138  -0.00108   0.00000  -0.01076  -0.01054  -0.33192
    D9        0.60481  -0.00139   0.00000  -0.02507  -0.02483   0.57999
   D10        2.70830  -0.00056   0.00000  -0.01131  -0.01120   2.69710
   D11       -1.47459  -0.00166   0.00000  -0.01097  -0.01119  -1.48578
   D12        0.62890  -0.00083   0.00000   0.00279   0.00244   0.63133
   D13        2.70515   0.00001   0.00000  -0.01662  -0.01644   2.68871
   D14       -1.47455   0.00084   0.00000  -0.00286  -0.00282  -1.47737
         Item               Value     Threshold  Converged?
 Maximum Force            0.009462     0.000450     NO 
 RMS     Force            0.003941     0.000300     NO 
 Maximum Displacement     0.282107     0.001800     NO 
 RMS     Displacement     0.092136     0.001200     NO 
 Predicted change in Energy=-6.011122D-03
                           ----------------------------
                           ! Non-Optimized Parameters !
                           ! (Angstroms and Degrees)  !
 --------------------------                            --------------------------
 ! Name  Definition              Value          Derivative Info.                !
 --------------------------------------------------------------------------------
 ! R1    R(1,2)                  1.3072         -DE/DX =   -0.0047              !
 ! R2    R(1,3)                  1.5448         -DE/DX =    0.008               !
 ! R3    R(1,9)                  1.1788         -DE/DX =   -0.0004              !
 ! R4    R(2,10)                 0.9551         -DE/DX =   -0.001               !
 ! R5    R(3,4)                  1.1086         -DE/DX =    0.0008              !
 ! R6    R(3,5)                  1.1025         -DE/DX =    0.0012              !
 ! R7    R(3,6)                  1.5244         -DE/DX =    0.0089              !
 ! R8    R(6,7)                  1.0387         -DE/DX =    0.0027              !
 ! R9    R(6,8)                  1.0165         -DE/DX =    0.0005              !
 ! A1    A(2,1,3)              116.0439         -DE/DX =    0.0024              !
 ! A2    A(2,1,9)              116.7164         -DE/DX =   -0.0095              !
 ! A3    A(3,1,9)              127.1963         -DE/DX =    0.007               !
 ! A4    A(1,2,10)              98.8001         -DE/DX =   -0.0093              !
 ! A5    A(1,3,4)              102.4984         -DE/DX =   -0.0047              !
 ! A6    A(1,3,5)              107.3239         -DE/DX =   -0.0024              !
 ! A7    A(1,3,6)              113.7834         -DE/DX =    0.0093              !
 ! A8    A(4,3,5)              106.2631         -DE/DX =    0.0007              !
 ! A9    A(4,3,6)              115.7381         -DE/DX =   -0.0007              !
 ! A10   A(5,3,6)              110.5155         -DE/DX =   -0.0027              !
 ! A11   A(3,6,7)              108.3673         -DE/DX =   -0.0015              !
 ! A12   A(3,6,8)              115.0709         -DE/DX =    0.0034              !
 ! A13   A(7,6,8)              108.2459         -DE/DX =   -0.0003              !
 ! D1    D(3,1,2,10)           177.313          -DE/DX =    0.0                 !
 ! D2    D(9,1,2,10)            -0.4654         -DE/DX =    0.0007              !
 ! D3    D(2,1,3,4)            -70.8103         -DE/DX =    0.0015              !
 ! D4    D(2,1,3,5)             40.8818         -DE/DX =   -0.001               !
 ! D5    D(2,1,3,6)            163.4737         -DE/DX =   -0.0001              !
 ! D6    D(9,1,3,4)            106.6984         -DE/DX =    0.0006              !
 ! D7    D(9,1,3,5)           -141.6095         -DE/DX =   -0.002               !
 ! D8    D(9,1,3,6)            -19.0177         -DE/DX =   -0.0011              !
 ! D9    D(1,3,6,7)             33.2308         -DE/DX =   -0.0014              !
 ! D10   D(1,3,6,8)            154.5323         -DE/DX =   -0.0006              !
 ! D11   D(4,3,6,7)            -85.1288         -DE/DX =   -0.0017              !
 ! D12   D(4,3,6,8)             36.1728         -DE/DX =   -0.0008              !
 ! D13   D(5,3,6,7)            154.0515         -DE/DX =    0.0                 !
 ! D14   D(5,3,6,8)            -84.6469         -DE/DX =    0.0008              !
 --------------------------------------------------------------------------------
 GradGradGradGradGradGradGradGradGradGradGradGradGradGradGradGradGradGrad

 Leave Link  103 at Mon Dec 13 11:27:11 2021, MaxMem=   134217728 cpu:               0.0 elap:               0.0
 (Enter /home/emanuele/chemical_software//g16/l9999.exe)
 Unable to Open any file for archive entry.
 1\1\GINC-EMANUELE-SNS\Freq\AMBER\ZDO\C2H5N1O2\EMANUELE\13-Dec-2021\0\\
 #P Amber=SoftOnly Geom=Connectivity Freq=intmodes\\Title Card Required
 \\0,1\C,-0.53685,0.104174,0.014636\O,-1.636322,-0.676373,-0.068268\C,0
 .726013,-0.7177,0.10528\H,0.716994,-1.157121,1.114447\H,0.64338,-1.553
 795,-0.592281\N,1.889013,0.097733,-0.195097\H,1.748159,1.040807,0.1459
 25\H,2.723536,-0.278432,0.231888\O,-0.58681,1.305633,0.046275\H,-2.405
 088,-0.088514,-0.077854\\Version=ES64L-G16RevC.01\HF=0.0062797\RMSD=0.
 000e+00\RMSF=2.969e-03\ZeroPoint=0.0045061\Thermal=0.014934\ETot=0.021
 2138\HTot=0.0221579\GTot=-0.0249164\Dipole=-0.1252046,-0.519989,0.5026
 367\DipoleDeriv=0.266361,0.,0.,0.,0.266361,0.,0.,0.,0.266361,-0.369148
 ,0.,0.,0.,-0.369148,0.,0.,0.,-0.369148,-0.052402,0.,0.,0.,-0.052402,0.
 ,0.,0.,-0.052402,0.101822,0.,0.,0.,0.101822,0.,0.,0.,0.101822,0.110601
 ,0.,0.,0.,0.110601,0.,0.,0.,0.110601,-0.66083,0.,0.,0.,-0.66083,0.,0.,
 0.,-0.66083,0.284523,0.,0.,0.,0.284523,0.,0.,0.,0.284523,0.286815,0.,0
 .,0.,0.286815,0.,0.,0.,0.286815,-0.322325,0.,0.,0.,-0.322325,0.,0.,0.,
 -0.322325,0.354579,0.,0.,0.,0.354579,0.,0.,0.,0.354579\PG=C01 [X(C2H5N
 1O2)]\NImag=12\\0.00157983,0.00060317,-0.00058851,0.00014861,0.0000338
 3,-0.00087445,0.,0.,0.,0.00599822,0.,0.,0.,-0.00179928,0.00047790,0.,0
 .,0.,-0.00058375,0.00022208,0.00038157,0.,0.,0.,0.,0.,0.,-0.00013131,0
 .,0.,0.,0.,0.,0.,0.00004046,0.00006193,0.,0.,0.,0.,0.,0.,-0.00001178,0
 .00000237,0.00006937,0.,0.,0.,-0.00119800,0.00022078,-0.00054315,0.,0.
 ,0.,0.00168660,0.,0.,0.,0.00022078,-0.00016237,0.00011096,0.,0.,0.,0.0
 0020153,0.00014997,0.,0.,0.,-0.00054315,0.00011096,-0.00039024,0.,0.,0
 .,0.00028003,-0.00039223,0.00015321,0.,0.,0.,-0.00417021,0.00162880,0.
 00097275,0.,0.,0.,0.,0.,0.,0.00458502,0.,0.,0.,0.00162880,-0.00056518,
 -0.00037440,0.,0.,0.,0.,0.,0.,-0.00124842,0.00051794,0.,0.,0.,0.000972
 75,-0.00037440,-0.00016188,0.,0.,0.,0.,0.,0.,-0.00078431,0.00055463,-0
 .00013363,0.,0.,0.,-0.00139234,-0.00044589,0.00007305,0.,0.,0.,0.,0.,0
 .,0.,0.,0.,0.01363367,0.,0.,0.,-0.00044589,0.00054035,0.00001604,0.,0.
 ,0.,0.,0.,0.,0.,0.,0.,-0.00709024,0.00132400,0.,0.,0.,0.00007305,0.000
 01604,0.00063563,0.,0.,0.,0.,0.,0.,0.,0.,0.,-0.00153197,0.00071469,-0.
 00227314,-0.00107216,-0.00069365,-0.00009723,0.00039587,0.00034516,0.0
 0004305,0.,0.,0.,0.00010666,-0.00019697,0.00008679,0.00008925,-0.00015
 732,-0.00004476,0.,0.,0.,-0.00108833,-0.00069365,0.00033574,-0.0000398
 5,0.00034516,-0.00010929,0.00002184,0.,0.,0.,-0.00019697,-0.00022077,0
 .00018500,-0.00015732,-0.00021324,-0.00010512,0.,0.,0.,0.00117950,0.00
 107492,-0.00009723,-0.00003985,0.00061448,0.00004305,0.00002184,-0.000
 28169,0.,0.,0.,0.00008679,0.00018500,0.00011754,-0.00004476,-0.0001051
 2,0.00012633,0.,0.,0.,-0.00008597,-0.00003994,0.00028638,-0.00050767,0
 .00009048,-0.00005138,0.00036646,0.00005043,0.00003803,0.,0.,0.,-0.000
 31748,-0.00025806,0.00025919,-0.00021595,-0.00027215,-0.00017587,0.,0.
 ,0.,0.,0.,0.,0.00049246,0.00009048,0.00025277,0.00000603,0.00005043,-0
 .00018140,0.00000347,0.,0.,0.,-0.00025806,0.00015881,0.00011350,-0.000
 27215,0.00006108,-0.00010783,0.,0.,0.,0.,0.,0.,0.00070223,-0.00028000,
 -0.00005138,0.00000603,0.00025997,0.00003803,0.00000347,-0.00018339,0.
 ,0.,0.,0.00025919,0.00011350,0.00015781,-0.00017587,-0.00010783,0.0001
 5826,0.,0.,0.,0.,0.,0.,-0.00008809,0.00000232,-0.00022716,0.,0.,0.,0.,
 0.,0.,0.,0.,0.,-0.00010744,-0.00006798,0.00002948,-0.00008757,-0.00011
 705,-0.00002614,-0.01311150,0.00747943,0.00149460,0.00190222,-0.000335
 25,0.00012615,0.00040228,-0.00032519,0.00003810,0.00997002,0.,0.,0.,0.
 ,0.,0.,0.,0.,0.,-0.00006798,-0.00001502,-0.00005569,-0.00011705,0.0001
 3414,0.00006076,0.00747943,-0.00143001,-0.00072918,-0.00033525,-0.0010
 1563,-0.00001431,-0.00032519,-0.00012168,-0.00001823,-0.00832057,0.002
 32274,0.,0.,0.,0.,0.,0.,0.,0.,0.,0.00002948,-0.00005569,-0.00011927,-0
 .00002614,0.00006076,-0.00012436,0.00149460,-0.00072918,0.00207333,0.0
 0012615,-0.00001431,-0.00104827,0.00003810,-0.00001823,-0.00027515,-0.
 00181236,0.00064152,0.00065118,0.,0.,0.,0.,0.,0.,0.00013131,-0.0000404
 6,0.00001178,-0.00017034,0.00010070,-0.00011235,-0.00020054,0.00016614
 ,0.00005833,0.00087016,0.00005669,-0.00003568,-0.00033351,-0.00014146,
 -0.00002803,-0.00022010,0.00001226,-0.00001999,0.00103199,0.00168659,0
 .00015017,-0.00110897,0.,0.,0.,0.,0.,0.,-0.00004046,-0.00006193,-0.000
 00237,0.00010070,0.00008939,0.00003846,0.00016614,0.00006526,-0.000028
 04,0.00005669,-0.00043434,-0.00000155,-0.00014146,0.00014828,-0.000007
 62,0.00001226,0.00011043,0.00000074,0.00168659,0.00012547,0.00011514,-
 0.00184045,-0.00004256,0.,0.,0.,0.,0.,0.,0.00001178,-0.00000237,-0.000
 06937,-0.00011235,0.00003846,0.00008095,0.00005833,-0.00002804,0.00013
 528,-0.00003568,-0.00000155,-0.00043582,-0.00002803,-0.00000762,0.0001
 8523,-0.00001999,0.00000074,0.00010967,0.00015017,0.00011514,-0.001157
 46,-0.00002422,-0.00011476,0.00115152\\0.00430028,0.00090707,0.0002619
 7,0.00064487,-0.00012492,-0.00069682,0.00041456,-0.00008330,0.00002425
 ,0.00156273,0.00075423,-0.00054512,0.00044095,0.00107427,0.00060871,-0
 .01108964,0.00428523,0.00106836,0.00161104,-0.00269328,0.00022711,-0.0
 0135698,-0.00146063,0.00012806,0.00733651,0.00078136,-0.00115701,-0.00
 386432,-0.00344004,0.00008048\\\@
 The archive entry for this job was punched.


 Happiness is a conscious choice, not an automatic response.
 -- Mildred Barthel
 Job cpu time:       0 days  0 hours  0 minutes  1.3 seconds.
 Elapsed time:       0 days  0 hours  0 minutes  0.3 seconds.
 File lengths (MBytes):  RWF=      6 Int=      0 D2E=      0 Chk=      1 Scr=      1
 Normal termination of Gaussian 16 at Mon Dec 13 11:27:11 2021.
