Title Card Required                                                     
Freq      AMBER                                                       ZDO                 
Number of atoms                            I               10
Info1-9                                    I   N=           9
          57          57           0           0           0         100
           6           8        1101
Full Title                                 C   N=           2
Title Card Required     
Route                                      C   N=           5
#P Amber=SoftOnly Geom=Connectivity Freq=intmodes           
Charge                                     I                0
Multiplicity                               I                1
Number of electrons                        I               14
Number of alpha electrons                  I                7
Number of beta electrons                   I                7
Number of basis functions                  I                0
Number of independent functions            I                0
Number of point charges in /Mol/           I                0
Number of translation vectors              I                0
Atomic numbers                             I   N=          10
           6           8           6           1           1           7
           1           1           8           1
Nuclear charges                            R   N=          10
  2.00000000E+00  2.00000000E+00  2.00000000E+00  1.00000000E+00  1.00000000E+00
  1.00000000E+00  1.00000000E+00  1.00000000E+00  2.00000000E+00  1.00000000E+00
Current cartesian coordinates              R   N=          30
 -1.01449947E+00  1.96860329E-01  2.76580316E-02 -3.09220043E+00 -1.27815973E+00
 -1.29007823E-01  1.37196573E+00 -1.35625644E+00  1.98950366E-01  1.35492229E+00
 -2.18664178E+00  2.10599961E+00  1.21581199E+00 -2.93624700E+00 -1.11924888E+00
  3.56971722E+00  1.84688603E-01 -3.68679898E-01  3.30354173E+00  1.96684018E+00
  2.75758285E-01  5.14673713E+00 -5.26160224E-01  4.38204812E-01 -1.10891019E+00
  2.46728879E+00  8.74470764E-02 -4.54495763E+00 -1.67267218E-01 -1.47122738E-01
Number of symbols in /Mol/                 I                0
Int Atom Types                             I   N=          10
    20001002    20001022    20001001    20001034    20001034    20001020
    20001029    20001029    20001025    20001031
Force Field                                I                2
Atom Types                                 C   N=          10
AMB-C       AMB-OH      AMB-CT      AMB-HC      AMB-HC      
AMB-N3      AMB-H       AMB-H       AMB-O2      AMB-HO      
MM charges                                 R   N=          10
  2.66361000E-01 -3.69148000E-01 -5.24020000E-02  1.01822000E-01  1.10601000E-01
 -6.60830000E-01  2.84523000E-01  2.86815000E-01 -3.22325000E-01  3.54579000E-01
Integer atomic weights                     I   N=          10
          12          16          12           1           1          14
           1           1          16           1
Real atomic weights                        R   N=          10
  1.20000000E+01  1.59949146E+01  1.20000000E+01  1.00782504E+00  1.00782504E+00
  1.40030740E+01  1.00782504E+00  1.00782504E+00  1.59949146E+01  1.00782504E+00
Atom fragment info                         I   N=          10
           0           0           0           0           0           0
           0           0           0           0
Atom residue num                           I   N=          10
           0           0           0           0           0           0
           0           0           0           0
Nuclear spins                              I   N=          10
           0           0           0           1           1           2
           1           1           0           1
Nuclear ZEff                               R   N=          10
 -3.90000000E+00 -6.00000000E+00 -3.90000000E+00 -1.00000000E+00 -1.00000000E+00
 -4.90000000E+00 -1.00000000E+00 -1.00000000E+00 -6.00000000E+00 -1.00000000E+00
Nuclear ZNuc                               R   N=          10
  6.00000000E+00  8.00000000E+00  6.00000000E+00  1.00000000E+00  1.00000000E+00
  7.00000000E+00  1.00000000E+00  1.00000000E+00  8.00000000E+00  1.00000000E+00
Nuclear QMom                               R   N=          10
  0.00000000E+00  0.00000000E+00  0.00000000E+00  0.00000000E+00  0.00000000E+00
  2.04400000E+00  0.00000000E+00  0.00000000E+00  0.00000000E+00  0.00000000E+00
Nuclear GFac                               R   N=          10
  0.00000000E+00  0.00000000E+00  0.00000000E+00  2.79284600E+00  2.79284600E+00
  4.03761000E-01  2.79284600E+00  2.79284600E+00  0.00000000E+00  2.79284600E+00
MicOpt                                     I   N=          10
          -1          -1          -1          -1          -1          -1
          -1          -1          -1          -1
Number of residues                         I                0
Number of secondary structures             I                0
Redundant internal dimensions              I   N=           4
          36           9          13          14
Redundant internal coordinate indices      I   N=         144
           1           2           0           0           1           3
           0           0           1           9           0           0
           2          10           0           0           3           4
           0           0           3           5           0           0
           3           6           0           0           6           7
           0           0           6           8           0           0
           2           1           3           0           2           1
           9           0           3           1           9           0
           1           2          10           0           1           3
           4           0           1           3           5           0
           1           3           6           0           4           3
           5           0           4           3           6           0
           5           3           6           0           3           6
           7           0           3           6           8           0
           7           6           8           0           3           1
           2          10           9           1           2          10
           2           1           3           4           2           1
           3           5           2           1           3           6
           9           1           3           4           9           1
           3           5           9           1           3           6
           1           3           6           7           1           3
           6           8           4           3           6           7
           4           3           6           8           5           3
           6           7           5           3           6           8
Redundant internal coordinates             R   N=          36
  2.55285519E+00  2.85249521E+00  2.27317696E+00  1.82891055E+00  2.08006421E+00
  2.06358994E+00  2.74350639E+00  1.91369125E+00  1.90875897E+00  1.94980175E+00
  2.14707287E+00  2.18582981E+00  1.87144141E+00  1.83958248E+00  1.89147622E+00
  1.93045744E+00  1.85394415E+00  2.00476945E+00  1.93745279E+00  1.91980644E+00
  1.94465763E+00  1.89586965E+00  3.09263596E+00 -1.72029160E-02 -1.25364968E+00
  7.25218876E-01  2.85280943E+00  1.85534356E+00 -2.44897319E+00 -3.21382640E-01
  6.04814651E-01  2.70830071E+00 -1.47458925E+00  6.28896808E-01  2.70514936E+00
 -1.47454989E+00
ZRed-IntVec                                I   N=          36
           0           0           0           0           0           0
           0           0           0           0           0           0
           0           0           0           0           0           0
           0           0           0           0           0           0
           0           0           0           0           0           0
           0           0           0           0           0           0
ZRed-FPVec                                 R   N=          36
  0.00000000E+00  0.00000000E+00  0.00000000E+00  0.00000000E+00  0.00000000E+00
  0.00000000E+00  0.00000000E+00  0.00000000E+00  0.00000000E+00  0.00000000E+00
  0.00000000E+00  0.00000000E+00  0.00000000E+00  0.00000000E+00  0.00000000E+00
  0.00000000E+00  0.00000000E+00  0.00000000E+00  0.00000000E+00  0.00000000E+00
  0.00000000E+00  0.00000000E+00  0.00000000E+00  0.00000000E+00  0.00000000E+00
  0.00000000E+00  0.00000000E+00  0.00000000E+00  0.00000000E+00  0.00000000E+00
  0.00000000E+00  0.00000000E+00  0.00000000E+00  0.00000000E+00  0.00000000E+00
  0.00000000E+00
ZRed-Constraint1                           R   N=          36
  2.55285519E+00  2.85249521E+00  2.27317696E+00  1.82891055E+00  2.08006421E+00
  2.06358994E+00  2.74350639E+00  1.91369125E+00  1.90875897E+00  1.94980175E+00
  2.14707287E+00  2.18582981E+00  1.87144141E+00  1.83958248E+00  1.89147622E+00
  1.93045744E+00  1.85394415E+00  2.00476945E+00  1.93745279E+00  1.91980644E+00
  1.94465763E+00  1.89586965E+00  3.09263596E+00 -1.72029160E-02 -1.25364968E+00
  7.25218876E-01  2.85280943E+00  1.85534356E+00 -2.44897319E+00 -3.21382640E-01
  6.04814651E-01  2.70830071E+00 -1.47458925E+00  6.28896808E-01  2.70514936E+00
 -1.47454989E+00
ZRed-Constraint2                           R   N=          36
  0.00000000E+00  0.00000000E+00  0.00000000E+00  0.00000000E+00  0.00000000E+00
  0.00000000E+00  0.00000000E+00  0.00000000E+00  0.00000000E+00  0.00000000E+00
  0.00000000E+00  0.00000000E+00  0.00000000E+00  0.00000000E+00  0.00000000E+00
  0.00000000E+00  0.00000000E+00  0.00000000E+00  0.00000000E+00  0.00000000E+00
  0.00000000E+00  0.00000000E+00  0.00000000E+00  0.00000000E+00  0.00000000E+00
  0.00000000E+00  0.00000000E+00  0.00000000E+00  0.00000000E+00  0.00000000E+00
  0.00000000E+00  0.00000000E+00  0.00000000E+00  0.00000000E+00  0.00000000E+00
  0.00000000E+00
SymInf integers                            I   N=          26
           1           1           1           1           1           0
           0           0           0           0           0           0
           0           0           0           0           0           0
           0           0           0           0           0           0
           0           0
RotTr to input orientation                 R   N=          12
  1.00000000E+00 -9.77868526E-08  0.00000000E+00  9.77868526E-08  1.00000000E+00
  0.00000000E+00  0.00000000E+00  0.00000000E+00  1.00000000E+00 -2.83458919E-07
 -8.88178420E-17 -9.44863063E-08
Number of contracted shells                I               10
Number of primitive shells                 I               10
Pure/Cartesian d shells                    I                0
Pure/Cartesian f shells                    I                0
Highest angular momentum                   I                0
Largest degree of contraction              I                1
Shell types                                I   N=          10
           0           0           0           0           0           0
           0           0           0           0
Number of primitives per shell             I   N=          10
           1           1           1           1           1           1
           1           1           1           1
Shell to atom map                          I   N=          10
           1           2           3           4           5           6
           7           8           9          10
Primitive exponents                        R   N=          10
  1.00000000E+00  1.00000000E+00  1.00000000E+00  1.00000000E+00  1.00000000E+00
  1.00000000E+00  1.00000000E+00  1.00000000E+00  1.00000000E+00  1.00000000E+00
Contraction coefficients                   R   N=          10
  1.00000000E+00  1.00000000E+00  1.00000000E+00  1.00000000E+00  1.00000000E+00
  1.00000000E+00  1.00000000E+00  1.00000000E+00  1.00000000E+00  1.00000000E+00
Coordinates of each shell                  R   N=          30
 -1.01449921E+00  1.96860230E-01  2.76581260E-02 -3.09220002E+00 -1.27816003E+00
 -1.29007729E-01  1.37196615E+00 -1.35625631E+00  1.98950461E-01  1.35492279E+00
 -2.18664165E+00  2.10599970E+00  1.21581256E+00 -2.93624688E+00 -1.11924878E+00
  3.56971748E+00  1.84688952E-01 -3.68679803E-01  3.30354182E+00  1.96684050E+00
  2.75758379E-01  5.14673747E+00 -5.26159721E-01  4.38204906E-01 -1.10891014E+00
  2.46728868E+00  8.74471709E-02 -4.54495733E+00 -1.67267663E-01 -1.47122643E-01
Num ILSW                                   I              100
ILSW                                       I   N=         100
           0           0           0           0           0           0
           0           0           0           0           0          -1
           5           0           0           0           2           0
           0           0           0           0           1           0
           1           0           0           0           0           0
           0           0      100000           0          -1           0
           0           0           0           0           0           0
           0           0           0         104           0           0
           0 -2000000000           1           0           0           0
           0           0           4          52           0           0
           0           0           0           0           0           0
           0           0           0          10           0           1
           0           0           0           0           0           0
           0           0           0           0           0           0
           0           0           0           0           0           0
           0           0           0           0           0           0
           0           0           0           0
Num RLSW                                   I               52
RLSW                                       R   N=          52
  1.00000000E+00  1.00000000E+00  1.00000000E+00  1.00000000E+00  1.00000000E+00
  0.00000000E+00  0.00000000E+00  1.00000000E+00  0.00000000E+00  0.00000000E+00
  0.00000000E+00  0.00000000E+00  1.00000000E+00  0.00000000E+00  0.00000000E+00
  0.00000000E+00  0.00000000E+00  1.00000000E+00  0.00000000E+00  0.00000000E+00
  0.00000000E+00  0.00000000E+00  1.00000000E+00  0.00000000E+00  0.00000000E+00
  0.00000000E+00  0.00000000E+00  1.00000000E+00  0.00000000E+00  0.00000000E+00
  0.00000000E+00  0.00000000E+00  1.00000000E+00  0.00000000E+00  0.00000000E+00
  0.00000000E+00  0.00000000E+00  0.00000000E+00  1.00000000E+00  1.00000000E+00
  0.00000000E+00  1.00000000E+00  0.00000000E+00  0.00000000E+00  0.00000000E+00
  0.00000000E+00  0.00000000E+00  0.00000000E+00  0.00000000E+00  0.00000000E+00
  0.00000000E+00  0.00000000E+00
MxBond                                     I                4
NBond                                      I   N=          10
           3           2           4           1           1           3
           1           1           1           1
IBond                                      I   N=          40
           2           3           9           0           1          10
           0           0           1           4           5           6
           3           0           0           0           3           0
           0           0           3           7           8           0
           6           0           0           0           6           0
           0           0           1           0           0           0
           2           0           0           0
RBond                                      R   N=          40
  1.00000000E+00  1.00000000E+00  2.00000000E+00  0.00000000E+00  1.00000000E+00
  1.00000000E+00  0.00000000E+00  0.00000000E+00  1.00000000E+00  1.00000000E+00
  1.00000000E+00  1.00000000E+00  1.00000000E+00  0.00000000E+00  0.00000000E+00
  0.00000000E+00  1.00000000E+00  0.00000000E+00  0.00000000E+00  0.00000000E+00
  1.00000000E+00  1.00000000E+00  1.00000000E+00  0.00000000E+00  1.00000000E+00
  0.00000000E+00  0.00000000E+00  0.00000000E+00  1.00000000E+00  0.00000000E+00
  0.00000000E+00  0.00000000E+00  2.00000000E+00  0.00000000E+00  0.00000000E+00
  0.00000000E+00  1.00000000E+00  0.00000000E+00  0.00000000E+00  0.00000000E+00
Virial Ratio                               R      0.000000000000000E+00
SCF Energy                                 R      6.279727019791276E-03
Total Energy                               R      6.279727019791276E-03
RMS Force                                  R      2.968899036549131E-03
NImag                                      I               12
Job Status                                 I                1
Nuclear derivative order                   I                2
Thermal Energy                             R      2.121375335089502E-02
Thermal Enthalpy                           R      2.215793816453939E-02
Thermal Free Energy                        R     -2.491643644860552E-02
External E-field                           R   N=          35
  0.00000000E+00  0.00000000E+00  0.00000000E+00  0.00000000E+00  0.00000000E+00
  0.00000000E+00  0.00000000E+00  0.00000000E+00  0.00000000E+00  0.00000000E+00
  0.00000000E+00  0.00000000E+00  0.00000000E+00  0.00000000E+00  0.00000000E+00
  0.00000000E+00  0.00000000E+00  0.00000000E+00  0.00000000E+00  0.00000000E+00
  0.00000000E+00  0.00000000E+00  0.00000000E+00  0.00000000E+00  0.00000000E+00
  0.00000000E+00  0.00000000E+00  0.00000000E+00  0.00000000E+00  0.00000000E+00
  0.00000000E+00  0.00000000E+00  0.00000000E+00  0.00000000E+00  0.00000000E+00
IOpCl                                      I                0
IROHF                                      I                0
Grdnt Energy                               R      6.279727019791276E-03
Grdnt NVar                                 I               36
Grdnt IGetFC                               I                4
Internal Forces                            R   N=          36
 -4.71784852E-03  7.97311076E-03 -4.45284538E-04 -9.79241540E-04  8.13679179E-04
  1.24472441E-03  8.90086561E-03  2.65575469E-03  5.23041321E-04  2.44631073E-03
 -9.46214216E-03  6.99265242E-03 -9.26333802E-03 -4.73943030E-03 -2.39521618E-03
  9.32897060E-03  6.80706226E-04 -6.86476156E-04 -2.71258332E-03 -1.47536816E-03
  3.40383403E-03 -3.26636458E-04  4.78102715E-05  6.52381888E-04  1.54950707E-03
 -1.01437842E-03 -9.49285981E-05  5.67202966E-04 -1.99668252E-03 -1.07723270E-03
 -1.38761986E-03 -5.61623681E-04 -1.66033590E-03 -8.34339722E-04  1.07884288E-05
  8.36784611E-04
Internal Force Constants                   R   N=         666
 -8.65805150E-05  3.73253558E-03  2.06743815E-02 -1.37783715E-03  7.40579580E-03
  3.06274793E-03 -6.33905108E-04  1.28023584E-04 -1.27254736E-03  1.06166480E-03
  5.10716173E-04  6.45040814E-04 -4.90355972E-05  1.11290957E-04  4.37022717E-04
  1.07900646E-03  1.51487504E-03 -1.36274630E-04  9.21672182E-05 -3.98776335E-14
  5.97395457E-04  3.04911587E-04  8.05335209E-03  4.40743882E-03 -2.76555339E-04
  5.43724074E-04  5.44515016E-04  4.66143618E-03 -1.57507991E-04  4.77917010E-04
 -8.90823283E-04  1.68975655E-04  2.30832378E-04  2.06944035E-04  1.42580946E-03
  6.21095299E-04 -1.30755166E-04 -1.73170907E-04 -2.52337204E-04  1.35852683E-04
  3.08776083E-04  2.60364309E-04  5.06700898E-04 -1.18659185E-14 -2.37670459E-04
  6.35725329E-03 -6.10395180E-04 -4.33937383E-03  1.81097952E-04  8.88290454E-04
  2.27759299E-03 -3.47389314E-03 -5.34629727E-04  1.79421316E-04  1.77934800E-02
 -5.32409066E-03 -1.36214563E-02 -3.94791241E-03  8.20854684E-05 -3.86916400E-04
 -1.01951904E-03 -3.85908406E-03 -4.12166079E-04  4.24815359E-04  2.83542064E-03
  4.03110597E-03 -1.03576666E-03  1.41889515E-02  8.28155125E-03 -2.62276432E-04
 -4.95471522E-04 -1.26340996E-03  7.31972096E-03  9.51277529E-04 -6.02908507E-04
 -2.06220319E-02 -6.83671308E-03  2.74223437E-02 -4.40061920E-03 -2.10640337E-04
 -1.91669230E-03  3.24914096E-03  1.52255364E-04  2.37924513E-04 -2.53837121E-05
 -1.26747209E-04  2.57111859E-04  2.40911327E-03 -5.40270981E-03  2.99462483E-03
 -9.18760205E-03  8.56986523E-04 -6.36937463E-03 -3.94795636E-03  2.49195732E-04
  8.58525989E-04 -2.79173871E-05 -3.27105023E-03 -5.64535486E-04  1.49880375E-04
  6.49692350E-03  4.13677687E-03 -1.06008675E-02  2.61078016E-04  6.18975634E-03
  2.63312994E-03 -2.07495386E-03 -3.88257781E-03  3.19894236E-04 -3.53101599E-05
  1.33706299E-03 -2.68330694E-03 -1.18782696E-03  6.56605173E-05  1.11742724E-02
  6.62371071E-04 -1.18457120E-02 -8.39096159E-05  3.40539139E-03  8.40741828E-03
 -1.49314774E-03  2.01953106E-02  1.21124892E-02 -3.82730289E-04 -2.87543105E-04
 -5.41093549E-04  8.61381605E-03  2.41654741E-03 -4.81459021E-04 -1.81492538E-02
 -1.26036276E-02  3.07019091E-02 -1.40629651E-04 -1.43658529E-02 -1.33340576E-02
  4.24442319E-02 -1.16217697E-04  2.35528717E-03  1.29986077E-03 -1.59207102E-05
  4.52085850E-06 -4.39064184E-05  8.14349295E-04  1.94605871E-04 -1.54031063E-04
 -1.70292689E-03 -1.55093312E-03  3.24971380E-03 -1.36187057E-04 -1.16807202E-03
 -1.17392219E-03  3.75163392E-03  5.41651409E-04 -3.24280379E-04 -5.35473002E-03
 -2.83117023E-03 -4.09173704E-06 -5.88423478E-04  1.34094916E-04 -1.42040947E-03
 -5.64821825E-04  1.35203703E-04  2.67902438E-03  3.27509726E-03 -5.94862988E-03
 -8.41278609E-06  2.15516427E-03  2.90056298E-03 -8.96246185E-03 -1.00634731E-03
  3.27120078E-03 -1.20700126E-03 -9.15999403E-03 -3.31894819E-03 -1.13632395E-04
  1.08868662E-04 -7.13749116E-04 -2.49049873E-03 -4.40959747E-04  2.88812557E-04
  1.03006413E-03  6.26857932E-03 -7.27190777E-03  1.08746893E-04  4.46413061E-03
  8.37317526E-04 -1.15898943E-02 -1.10373331E-03  2.00897072E-03  5.65362505E-03
 -2.96684432E-04 -1.56829408E-03 -9.41106078E-04  3.00168324E-04  2.67463708E-04
  2.59242055E-04  3.32175160E-04  2.55000037E-03  9.48949356E-05  1.68730891E-03
  2.04456305E-03 -3.74231994E-03  8.03519879E-04  2.37995218E-04  1.24420108E-03
 -1.83073538E-03 -3.39479554E-04  7.02132254E-04  1.09385182E-04  3.82895662E-03
 -8.72664270E-05  4.32009628E-04 -2.56263858E-04  1.60374046E-04  2.32159354E-04
  3.07981314E-04  1.22033697E-03 -5.86536935E-04 -5.62726484E-04 -6.20010085E-04
 -3.54984815E-04  9.71645277E-04 -1.70465862E-04 -8.38960271E-04 -5.44693039E-04
  8.03340163E-04  1.33939941E-04  5.36062835E-04 -1.99311605E-04 -5.14038922E-04
  2.26810661E-03  1.50528632E-04  5.91844811E-04  4.37704991E-04 -1.86915400E-04
 -2.08583882E-04 -1.96351815E-04 -3.87796171E-04 -1.12824870E-03  1.78116138E-04
 -5.58722652E-04 -8.15111672E-04  1.37378287E-03 -2.86590395E-04 -1.68318353E-04
 -2.47138949E-04  9.67606071E-04  1.20815202E-04 -3.50114982E-04 -3.48159172E-04
 -5.71870702E-04 -6.92915266E-04  3.49354089E-04  7.94581352E-05 -4.59527469E-04
 -1.55054444E-05 -8.08162823E-05  3.60961928E-05 -4.41750928E-05 -1.06399202E-04
  3.35908850E-05 -1.88008915E-05 -8.00332001E-05  4.65832285E-04 -3.95072785E-04
  3.38422678E-04  5.12725816E-04 -3.65408324E-04 -4.46163599E-04 -2.74032731E-06
 -6.93170919E-05  3.66096483E-04 -9.00165704E-05  3.92306433E-05  1.05235844E-05
  7.42362315E-04  1.62313668E-04  6.53086149E-04  1.27063659E-05 -1.05823271E-04
 -1.51580269E-04  1.50045539E-04  1.87297372E-04 -1.32675098E-04 -5.03637093E-05
  6.64199263E-05 -3.82157308E-04  2.97948324E-04  2.30353705E-04 -3.68452893E-04
  1.44409239E-04  6.47217401E-04  7.08966255E-05 -1.33122493E-04 -3.63728201E-04
  3.28671025E-04  1.31324404E-04 -1.51391780E-05  1.05725175E-03  1.63765934E-03
 -5.04076753E-04  1.26585904E-03  1.06143158E-03 -1.62298976E-04 -4.30797458E-04
 -2.32716916E-06  1.01278187E-03  3.30097040E-04  1.12947499E-05 -2.10888937E-03
 -5.86406923E-04  2.68363617E-03  1.32162694E-04 -2.01360668E-03 -9.58685632E-04
  3.92447465E-03  1.20584877E-04  5.82082369E-05 -1.35599158E-03 -1.48649193E-04
  3.69801686E-04  2.87389556E-05  8.27689993E-05  4.18203352E-04  9.68981040E-04
  9.43514175E-04 -2.52603886E-05 -1.07383662E-03  8.12830403E-05 -2.83906735E-05
  5.27292065E-04 -8.19918575E-04 -2.45947389E-04 -6.35947042E-05  4.02673294E-03
 -7.61648227E-05 -3.95520146E-03  6.47915736E-05  1.13879951E-03  3.06726503E-03
 -4.61163088E-03 -3.42774277E-04  1.23110708E-03 -9.93945156E-05  1.29722578E-04
 -1.22233099E-04 -2.37363186E-05  1.64100466E-04  3.86128247E-04 -2.86950158E-04
  1.22977335E-03  2.26368959E-04 -8.41997744E-05 -1.30753855E-04 -9.08792257E-05
 -9.63648659E-05  1.74048097E-04 -2.59906269E-04 -5.24290004E-05  3.55247971E-05
  1.21263821E-03  2.32903232E-04 -1.45484354E-03  5.69587810E-05 -1.05720877E-04
  1.22798934E-03 -1.08089619E-03 -1.25831278E-04 -1.85360691E-06  1.95974003E-04
 -7.13150083E-05 -2.20500073E-04 -1.02318963E-05  1.00905860E-04  4.34397401E-04
 -1.34365558E-04  2.15772782E-04  5.80270551E-04 -6.78109811E-04 -4.91958161E-04
  7.58014426E-04 -1.28843741E-04 -2.34904777E-04 -1.94223941E-04  4.60845693E-04
  4.70143912E-04  6.65911953E-05 -1.72407319E-03  5.27112140E-04  1.19551364E-03
  5.96254385E-05 -7.77057454E-04 -1.19515530E-03  1.82755385E-03 -6.27483445E-05
  3.30163924E-04 -3.06342849E-04 -4.48950973E-04  2.45346251E-04  6.16264288E-06
 -2.21538368E-04 -1.92634722E-04  5.50355498E-04 -4.25390589E-04 -4.38292543E-04
  5.04310653E-04  7.69481117E-04 -1.78307759E-03 -1.37725378E-03  1.14738276E-04
  1.67502008E-04  3.35395294E-04 -1.37185476E-03 -1.05900516E-04 -8.29825880E-06
  4.41154912E-03  1.03735424E-03 -5.44332400E-03 -7.74568143E-06  2.37534874E-03
  2.83079536E-03 -6.70855168E-03 -5.26107498E-04  1.50306277E-03  9.50254217E-04
 -1.70579202E-04 -2.46688534E-04 -4.63126314E-05 -1.40206902E-04 -2.24709827E-04
 -7.05575699E-04  1.09133292E-03 -8.81542022E-05 -4.71435434E-04  1.32547319E-03
  5.23359008E-05 -1.84201697E-03 -4.34171011E-04 -5.74239900E-05  9.95278154E-05
 -1.78486741E-05 -8.11842449E-04  8.76178717E-05  9.08212425E-05  1.59745439E-03
  1.34642229E-03 -2.94296607E-03 -1.55784741E-05  1.13082835E-03  9.91519674E-04
 -3.17781699E-03 -3.09164499E-04  2.70102080E-04  1.24562274E-03 -3.71616789E-04
 -3.44955508E-04 -3.28082091E-05 -2.03401508E-04 -1.76440674E-04 -5.52991100E-04
  7.73323508E-05  2.76343566E-04 -4.84337388E-04  1.45986063E-04  3.44997278E-04
 -5.59329042E-04 -7.97853717E-04  4.47501029E-04 -4.04495949E-05  1.81085484E-04
 -4.51576949E-04 -3.21490906E-04  6.74525695E-04  4.00036764E-05 -1.70712110E-03
  7.78464543E-04  9.48145678E-04  2.03784484E-04  1.00832751E-03 -1.78989229E-03
  7.79348347E-06 -9.98632748E-07 -2.74011343E-04  9.25068107E-04 -1.66913549E-03
 -1.00163552E-04  2.98769422E-04  2.99252893E-04 -3.57549760E-04 -1.98035823E-04
 -5.08388447E-04 -5.21220314E-04  4.70924924E-04  1.60572301E-04  1.47740433E-04
  1.60005524E-03 -6.25853182E-04 -8.21882393E-04  1.99889525E-04  3.04448369E-05
  2.49749325E-04 -3.23473232E-04  2.11162049E-04  5.80711339E-04 -4.03097072E-05
 -1.68460789E-03  8.91167603E-04  8.03675379E-04  2.70282192E-04  4.07669372E-04
 -1.62319145E-03  5.23201801E-04  1.10497454E-05  1.06553152E-04  4.30252825E-04
 -1.59086965E-04  1.66836580E-04 -9.80210134E-05  2.77825528E-04 -7.05449569E-05
 -1.97374873E-05 -5.31235275E-04 -7.26009498E-04  3.38288246E-04 -1.73209541E-04
 -3.67983764E-04  7.92038754E-04  6.71263604E-04 -3.44512630E-04 -3.77985077E-03
 -1.43694816E-03 -7.82097923E-05 -3.16571620E-04 -1.07128330E-04 -1.46774482E-03
  8.55193012E-06  1.08452235E-04  1.43778640E-03  2.47523847E-03 -3.90226162E-03
 -2.56558179E-05  2.11272788E-03  1.65620589E-03 -6.56503292E-03 -5.66650383E-04
  1.30570324E-03  2.31817964E-03 -1.10697563E-03  2.63195660E-05  4.24697978E-05
  1.08590325E-05 -2.66044013E-04 -5.26011209E-04  5.77080556E-04  4.17590973E-04
 -9.93734234E-05  1.00371834E-03  8.44228759E-04  4.72478178E-04 -1.98527645E-04
  1.68668570E-03 -4.11036770E-04 -3.80387944E-03 -1.68455966E-03 -7.31536053E-06
 -2.47907778E-04  2.09753869E-05 -9.35091864E-04 -8.52624250E-05  2.81388509E-05
  1.46029962E-03  2.58794153E-03 -4.04673192E-03  4.08418903E-05  1.51206974E-03
  1.82290673E-03 -6.04962460E-03 -5.54602005E-04  1.68626774E-03  1.82336436E-03
  4.03072896E-04  2.93319698E-04 -3.54320638E-04 -1.05683328E-05  2.09607900E-05
 -3.47712873E-04  5.54233728E-04  2.12801789E-04 -2.32010101E-04  6.69936500E-04
  3.28504561E-04 -3.35538307E-04 -3.19302795E-04  1.01567987E-03  1.03191539E-03
  9.64129071E-04  3.97196744E-03  1.42484128E-03  3.25364971E-05  1.73234997E-05
  3.99787162E-04  3.85439259E-04  4.95594478E-04 -6.81074729E-06  9.65280600E-04
 -2.62984659E-03  1.65640183E-03  7.64865720E-05 -1.31177039E-03  4.75608611E-04
  3.80039216E-03  2.87729059E-04 -1.25743003E-03 -1.99505454E-03 -1.24865946E-03
 -3.83006409E-04  4.01317844E-04 -2.15520487E-04  1.43833325E-05  3.09896023E-04
  2.18995743E-04  4.34718785E-04 -2.00273197E-05 -1.10927599E-04  1.04795442E-04
 -3.62694722E-05 -6.18536185E-04 -2.78274003E-04 -8.60540715E-04  1.77204404E-03
  8.97604932E-04  3.94793876E-03  1.17722978E-03  1.03430929E-04  8.59873416E-05
  5.27890879E-04  9.18092213E-04  4.01780123E-04 -8.71241309E-05  9.87793815E-04
 -2.51714353E-03  1.51193153E-03  1.42984280E-04 -1.91242853E-03  6.42309448E-04
  4.31580048E-03  2.99777437E-04 -8.76865530E-04 -2.48986982E-03  2.61389073E-04
 -1.16006277E-04  4.52740809E-06 -2.36947852E-04  3.01388135E-04  4.88194359E-04
  1.96148915E-04  2.29929601E-04 -1.52663997E-04 -4.44709441E-04 -4.10928755E-04
 -8.44285957E-04 -7.39311334E-04 -9.49279826E-04 -8.44305203E-04  1.18977733E-03
  1.29475195E-03
Optimization MaxStp                        I                2
Optimization MaxJob                        I                1
Optimization Job offset                    I                0
Optimization Num results per geometry      I                2
Optimization Num geometry variables        I               30
Optimization Reference Energy              R      0.000000000000000E+00
Opt point       1 Results for each geome   R   N=           2
  6.27972702E-03  0.00000000E+00