 Entering Gaussian System, Link 0=/home/emanuele/chem_software/gaussian//g09/g09
 Input=0_mm_28.gjf
 Output=0_mm_28.log
 Initial command:
 /home/emanuele/chem_software/gaussian//gdv/l1.exe "/home/emanuele/chem_software/gaussian/scratch/Gau-19213.inp" -scrdir="/home/emanuele/chem_software/gaussian/scratch/"
 Entering Link 1 = /home/emanuele/chem_software/gaussian//gdv/l1.exe PID=     19215.
  
 Copyright (c) 1988-2020, Gaussian, Inc.  All Rights Reserved.
  
 This is the private, development version of
 the Gaussian(R) DV system of programs. It is based on
 the Gaussian(R) 16 system (copyright 2016, Gaussian, Inc.),
 the Gaussian(R) 09 system (copyright 2009, Gaussian, Inc.),
 the Gaussian(R) 03 system (copyright 2003, Gaussian, Inc.),
 the Gaussian(R) 98 system (copyright 1998, Gaussian, Inc.),
 the Gaussian(R) 94 system (copyright 1995, Gaussian, Inc.),
 the Gaussian 92(TM) system (copyright 1992, Gaussian, Inc.),
 the Gaussian 90(TM) system (copyright 1990, Gaussian, Inc.),
 the Gaussian 88(TM) system (copyright 1988, Gaussian, Inc.),
 the Gaussian 86(TM) system (copyright 1986, Carnegie Mellon
 University), and the Gaussian 82(TM) system (copyright 1983,
 Carnegie Mellon University). Gaussian is a federally registered
 trademark of Gaussian, Inc.
  
 This software contains proprietary and confidential information,
 including trade secrets, belonging to Gaussian, Inc.
  
 This software is provided under written license and may be
 used, copied, transmitted, or stored only in accord with that
 written license.
  
 The following legend is applicable only to US Government
 contracts under FAR:
  
                    RESTRICTED RIGHTS LEGEND
  
 Use, reproduction and disclosure by the US Government is
 subject to restrictions as set forth in subparagraphs (a)
 and (c) of the Commercial Computer Software - Restricted
 Rights clause in FAR 52.227-19.
  
 Gaussian, Inc.
 340 Quinnipiac St., Bldg. 40, Wallingford CT 06492
  
  
 ---------------------------------------------------------------
 Warning -- This program may not be used in any manner that
 competes with the business of Gaussian, Inc. or will provide
 assistance to any competitor of Gaussian, Inc.  The licensee
 of this program is prohibited from giving any competitor of
 Gaussian, Inc. access to this program.  By using this program,
 the user acknowledges that Gaussian, Inc. is engaged in the
 business of creating and licensing software in the field of
 computational chemistry and represents and warrants to the
 licensee that it is not a competitor of Gaussian, Inc. and that
 it will not use this program in any manner prohibited above.
 ---------------------------------------------------------------
  

 Cite this work as:
 Gaussian Development Version, Revision J.14,
 M. J. Frisch, G. W. Trucks, H. B. Schlegel, G. E. Scuseria, 
 M. A. Robb, J. R. Cheeseman, G. Scalmani, V. Barone, 
 G. A. Petersson, H. Nakatsuji, X. Li, A. V. Marenich, M. Caricato, 
 J. Bloino, B. G. Janesko, J. Zheng, R. Gomperts, B. Mennucci, 
 H. P. Hratchian, J. V. Ortiz, A. F. Izmaylov, J. L. Sonnenberg, 
 D. Williams-Young, F. Ding, F. Lipparini, F. Egidi, J. Goings, 
 B. Peng, A. Petrone, T. Henderson, D. Ranasinghe, V. G. Zakrzewski, 
 J. Gao, N. Rega, G. Zheng, W. Liang, M. Hada, M. Ehara, K. Toyota, 
 R. Fukuda, J. Hasegawa, M. Ishida, T. Nakajima, Y. Honda, O. Kitao, 
 H. Nakai, T. Vreven, K. Throssell, J. A. Montgomery, Jr., 
 J. E. Peralta, F. Ogliaro, M. J. Bearpark, J. J. Heyd, 
 E. N. Brothers, K. N. Kudin, V. N. Staroverov, T. A. Keith, 
 R. Kobayashi, J. Normand, K. Raghavachari, A. P. Rendell, 
 J. C. Burant, S. S. Iyengar, J. Tomasi, M. Cossi, J. M. Millam, 
 M. Klene, C. Adamo, R. Cammi, J. W. Ochterski, R. L. Martin, 
 K. Morokuma, O. Farkas, J. B. Foresman, and D. J. Fox, 
 Gaussian, Inc., Wallingford CT, 2020.
 
 ******************************************
 Gaussian DV:  ES64L-GDVRevJ.14 29-Dec-2020
                29-Mar-2024 
 ******************************************
 %mem=1GB
 %nprocshared=1
 Will use up to    1 processors via shared memory.
 %chk=0_mm_28.chk
 ----------------------------------------------
 #p Amber=(SoftFirst,Print) geom=nocrowd nosymm
 ----------------------------------------------
 1/37=210000000,38=1,56=2,64=203,172=1/1;
 2/12=1,15=1,40=1/2;
 3/5=30,11=9,25=1,30=1,41=10030000,43=2/1;
 4/20=11,24=3,119=11/2;
 99/5=1,9=1/99;
 Leave Link    1 at Fri Mar 29 17:15:46 2024, MaxMem=   134217728 cpu:               0.0 elap:               0.0
 (Enter /home/emanuele/chem_software/gaussian//gdv/l101.exe)
 -----
 Title
 -----
 Symbolic Z-matrix:
 Charge =  0 Multiplicity = 1
 C-C0--0.267532       -2.04121   0.62049   0.01334 
 H-H1-+0.083821       -1.705    -0.41898  -0.06784 
 H-H2-+0.077363       -1.18775   1.26328  -0.23824 
 H-H3-+0.077360       -2.80954   0.77814  -0.7537 
 C-C4--0.092257       -2.57231   0.92289   1.41521 
 H-H5-+0.060623       -1.63744   0.64627   1.94126 
 H-H6-+0.060622       -3.38326   0.34732   1.90397 
 C-C7--0.092258       -2.86225   2.42481   1.59075 
 H-H8-+0.060627       -3.48347   2.67504   0.70161 
 H-H9-+0.060618       -3.72947   2.45424   2.27801 
 C-C10--0.267532      -1.70681   3.28314   2.10481 
 H-H11-+0.077330      -0.85973   3.26984   1.40836 
 H-H12-+0.083821      -2.01366   4.3273    2.23092 
 H-H13-+0.077394      -1.33994   2.92919   3.0752 
 
 ITRead=  0  0  0  0  0  0  0  0  0  0  0  0  0  0
 MicOpt= -1 -1 -1 -1 -1 -1 -1 -1 -1 -1 -1 -1 -1 -1
 NAtoms=     14 NQM=       14 NQMF=       0 NMMI=      0 NMMIF=      0
                NMic=       0 NMicF=      0.
                    Isotopes and Nuclear Properties:
 (Nuclear quadrupole moments (NQMom) in fm**2, nuclear magnetic moments (NMagM)
  in nuclear magnetons)

  Atom         1           2           3           4           5           6           7           8           9          10
 IAtWgt=          12           1           1           1          12           1           1          12           1           1
 AtmWgt=  12.0000000   1.0078250   1.0078250   1.0078250  12.0000000   1.0078250   1.0078250  12.0000000   1.0078250   1.0078250
 NucSpn=           0           1           1           1           0           1           1           0           1           1
 AtZEff=  -0.0000000  -0.0000000  -0.0000000  -0.0000000  -0.0000000  -0.0000000  -0.0000000  -0.0000000  -0.0000000  -0.0000000
 NQMom=    0.0000000   0.0000000   0.0000000   0.0000000   0.0000000   0.0000000   0.0000000   0.0000000   0.0000000   0.0000000
 NMagM=    0.0000000   2.7928460   2.7928460   2.7928460   0.0000000   2.7928460   2.7928460   0.0000000   2.7928460   2.7928460
 AtZNuc=   6.0000000   1.0000000   1.0000000   1.0000000   6.0000000   1.0000000   1.0000000   6.0000000   1.0000000   1.0000000

  Atom        11          12          13          14
 IAtWgt=          12           1           1           1
 AtmWgt=  12.0000000   1.0078250   1.0078250   1.0078250
 NucSpn=           0           1           1           1
 AtZEff=  -0.0000000  -0.0000000  -0.0000000  -0.0000000
 NQMom=    0.0000000   0.0000000   0.0000000   0.0000000
 NMagM=    0.0000000   2.7928460   2.7928460   2.7928460
 AtZNuc=   6.0000000   1.0000000   1.0000000   1.0000000
 Generating MM parameters.
 Read MM parameter file:
 Define C0         1
 Define C4         2
 Define H6         3
 Define C7         4
 Define H8         5
 Define H9         6
 Define C10        7
 Define H11        8
 Define H12        9
 Define H13       10
 Include all MM classes

 MM sanity checks:
 All charges sum to:                0.00000000
 Charges of atoms sum to:           0.00000000
 WARNING -- The following centers have non-zero partial charges, but zero Vanderwaals
 parameters.  These centers can collapse onto other centers with non-zero charge.
   Center  Layer   Charge
      1 C    R   -0.267532
      5 C    R   -0.092257
      7 H    R    0.060622
      8 C    R   -0.092258
      9 H    R    0.060627
     10 H    R    0.060618
     11 C    R   -0.267532
     12 H    R    0.077330
     13 H    R    0.083821
     14 H    R    0.077394
 MMInit generated parameter data with length LenPar=        3661.
 MM Charge=              0.0000 electrons
 MM Dipole moment (Debye):
    X=             -0.1377    Y=             -0.0813    Z=              0.1019  Tot=              0.1896
 MM Quadrupole moment (Debye-Ang):
   XX=              3.2392   YY=              2.2541   ZZ=              2.5952
   XY=             -0.1667   XZ=             -0.5560   YZ=              0.1811
 MM Traceless Quadrupole moment (Debye-Ang):
   XX=              0.5430   YY=             -0.4421   ZZ=             -0.1010
   XY=             -0.1667   XZ=             -0.5560   YZ=              0.1811
 MM Octapole moment (Debye-Ang**2):
  XXX=            -19.9923  YYY=             13.3676  ZZZ=              8.8146  XYY=             -5.3640
  XXY=              6.3035  XXZ=              5.3570  XZZ=             -6.2928  YZZ=              4.5062
  YYZ=              3.8256  XYZ=             -0.7236
 MM Hexadecapole moment (Debye-Ang**3):
 XXXX=             92.4092 YYYY=             72.4924 ZZZZ=             30.8379 XXXY=            -38.8015
 XXXZ=            -30.1177 YYYX=            -29.1237 YYYZ=             27.1200 ZZZX=            -18.6126
 ZZZY=             20.2403 XXYY=             26.2012 XXZZ=             22.8177 YYZZ=             17.7235
 XXYZ=              9.9024 YYXZ=             -8.7611 ZZXY=             -9.5973
 Leave Link  101 at Fri Mar 29 17:15:46 2024, MaxMem=   134217728 cpu:               0.2 elap:               0.2
 (Enter /home/emanuele/chem_software/gaussian//gdv/l202.exe)
                          Input orientation:                          
 ---------------------------------------------------------------------
 Center     Atomic      Atomic             Coordinates (Angstroms)
 Number     Number       Type             X           Y           Z
 ---------------------------------------------------------------------
      1          6    90000001       -2.041206    0.620493    0.013344
      2          1    20001035       -1.705001   -0.418979   -0.067843
      3          1    20001036       -1.187750    1.263282   -0.238243
      4          1    20001037       -2.809538    0.778140   -0.753695
      5          6    90000002       -2.572307    0.922889    1.415207
      6          1    20001040       -1.637440    0.646266    1.941259
      7          1    90000003       -3.383260    0.347318    1.903970
      8          6    90000004       -2.862248    2.424809    1.590746
      9          1    90000005       -3.483467    2.675036    0.701614
     10          1    90000006       -3.729466    2.454237    2.278015
     11          6    90000007       -1.706811    3.283141    2.104813
     12          1    90000008       -0.859733    3.269839    1.408361
     13          1    90000009       -2.013660    4.327302    2.230922
     14          1    90000010       -1.339940    2.929194    3.075200
 ---------------------------------------------------------------------
                    Distance matrix (angstroms):
                    1          2          3          4          5
     1  C    0.000000
     2  H    1.095503   0.000000
     3  H    1.097662   1.768216   0.000000
     4  H    1.097058   1.767339   1.769534   0.000000
     5  C    1.529291   2.179969   2.183292   2.186634   0.000000
     6  H    1.969911   2.275039   2.309363   2.941765   1.107803
     7  H    2.334566   2.700335   3.201301   2.752807   1.108069
     8  C    2.533350   3.489594   2.738300   2.865432   1.539689
     9  H    2.602879   3.650744   2.854242   2.484013   2.099868
    10  H    3.367725   4.225740   3.769648   3.584248   2.104396
    11  C    3.402316   4.292567   3.136745   3.957538   2.606804
    12  H    3.218848   4.062147   2.616328   3.832074   2.905362
    13  H    4.319588   5.282686   4.020836   4.705094   3.545068
    14  H    3.898312   4.606761   3.711782   4.631111   2.880897
                    6          7          8          9         10
     6  H    0.000000
     7  H    1.771623   0.000000
     8  C    2.187745   2.164609   0.000000
     9  H    3.010057   2.621826   1.113141   0.000000
    10  H    2.785451   2.167689   1.106920   1.610686   0.000000
    11  C    2.642853   3.386721   1.528409   2.344198   2.192764
    12  H    2.787821   3.892935   2.181148   2.781593   3.107551
    13  H    3.711532   4.221726   2.179313   2.688698   2.540587
    14  H    2.566338   3.494713   2.185276   3.208304   2.563381
                   11         12         13         14
    11  C    0.000000
    12  H    1.096706   0.000000
    13  H    1.095597   1.768158   0.000000
    14  H    1.096140   1.767764   1.766751   0.000000
 Symmetry turned off by external request.
 Stoichiometry    C4H10
 Framework group  C1[X(C4H10)]
 Deg. of freedom    36
 Full point group                 C1      NOp   1
 Rotational constants (GHZ):          14.7813858           4.2515691           3.9140335
 Leave Link  202 at Fri Mar 29 17:15:46 2024, MaxMem=   134217728 cpu:               0.0 elap:               0.0
 (Enter /home/emanuele/chem_software/gaussian//gdv/l301.exe)
 Standard basis: Dummy (5D, 7F)
    14 basis functions,    14 primitive gaussians,    14 cartesian basis functions
     9 alpha electrons        9 beta electrons
       nuclear repulsion energy        36.7175877548 Hartrees.
 IExCor=       0 DFT=F Ex=HF Corr=None N6=None ScaHFX=  1.000000
 ScaDFX=  1.000000  1.000000  1.000000  1.000000  1.000000  0.000000
 ScaDFX=  0.000000  0.000000  0.000000  0.000000  0.000000  0.000000
 IRadAn=      5 IRanWt=     -1 IRanGd=            0 ICorTp=0 IEmpDi=  4
 NAtoms=   14 NActive=   14 NUniq=   14 SFac= 1.00D+00 NAtFMM=   60 NAOKFM=F Big=F
 Integral buffers will be    131072 words long.
 Raffenetti 1 integral format.
 Two-electron integral symmetry is turned off.
 Leave Link  301 at Fri Mar 29 17:15:46 2024, MaxMem=   134217728 cpu:               0.0 elap:               0.0
 (Enter /home/emanuele/chem_software/gaussian//gdv/l402.exe)
 AMBER calculation of energy.
 ****************************
 MOLECULAR MECHANICS FUNCTION
 ****************************
 Atomic parameters:
 Center  VDW
      1 0.0000 0.0000000
      2 1.3870 0.0157000
      3 1.2870 0.0157000
      4 1.1870 0.0157000
      5 0.0000 0.0000000
      6 1.3590 0.0150000
      7 0.0000 0.0000000
      8 0.0000 0.0000000
      9 0.0000 0.0000000
     10 0.0000 0.0000000
     11 0.0000 0.0000000
     12 0.0000 0.0000000
     13 0.0000 0.0000000
     14 0.0000 0.0000000
 Molecular mechanics terms:
 NBDir 3 1      0      0
 HrmStr1  1- 2  374.50 1.0910
 HrmStr1  1- 3  371.63 1.0920
 HrmStr1  1- 4  371.66 1.0920
 HrmStr1  1- 5  311.98 1.5270
 HrmStr1  5- 6  362.71 1.0950
 HrmStr1  5- 7  362.77 1.0950
 HrmStr1  5- 8  307.49 1.5290
 HrmStr1  8- 9  362.77 1.0950
 HrmStr1  8-10  362.77 1.0950
 HrmStr1  8-11  312.23 1.5270
 HrmStr1 11-12  371.65 1.0920
 HrmStr1 11-13  374.54 1.0910
 HrmStr1 11-14  371.65 1.0920
 HrmBnd1  1- 5- 6  40.60 109.50
 HrmBnd1  1- 5- 7  40.73 109.50
 HrmBnd1  1- 5- 8  61.43 113.37
 HrmBnd1  2- 1- 3  36.52 107.65
 HrmBnd1  2- 1- 4  36.50 107.65
 HrmBnd1  2- 1- 5  43.83 111.52
 HrmBnd1  3- 1- 4  36.76 107.49
 HrmBnd1  3- 1- 5  44.75 111.17
 HrmBnd1  4- 1- 5  44.80 111.17
 HrmBnd1  5- 8- 9  40.89 109.11
 HrmBnd1  5- 8-10  40.89 109.11
 HrmBnd1  5- 8-11  61.44 113.37
 HrmBnd1  6- 5- 7  28.57 105.97
 HrmBnd1  6- 5- 8  40.86 109.11
 HrmBnd1  7- 5- 8  40.88 109.11
 HrmBnd1  8-11-12  44.81 111.17
 HrmBnd1  8-11-13  43.95 111.52
 HrmBnd1  8-11-14  44.81 111.17
 HrmBnd1  9- 8-10  28.58 105.97
 HrmBnd1  9- 8-11  40.73 109.50
 HrmBnd1 10- 8-11  40.73 109.50
 HrmBnd1 12-11-13  36.54 107.65
 HrmBnd1 12-11-14  36.77 107.49
 HrmBnd1 13-11-14  36.54 107.65
 AmbTrs  2- 1- 5- 6   0   0   0   0  0.0000  0.0000  3.3200  0.0000  9.0
 AmbTrs  2- 1- 5- 7   0   0   0   0  0.0000  0.0000  3.3300  0.0000  9.0
 AmbTrs  2- 1- 5- 8   0   0   0   0  0.0000  0.0000  2.2100  0.0000  9.0
 AmbTrs  3- 1- 5- 6   0   0   0   0  0.0000  0.0000  1.2400  0.0000  9.0
 AmbTrs  3- 1- 5- 7   0   0   0   0  0.0000  0.0000  2.0200  0.0000  9.0
 AmbTrs  3- 1- 5- 8   0   0   0   0  0.0000  0.0000  2.3200  0.0000  9.0
 AmbTrs  4- 1- 5- 6   0   0   0   0  0.0000  0.0000  2.0200  0.0000  9.0
 AmbTrs  4- 1- 5- 7   0   0   0   0  0.0000  0.0000  1.2400  0.0000  9.0
 AmbTrs  4- 1- 5- 8   0   0   0   0  0.0000  0.0000  2.3200  0.0000  9.0
 AmbTrs  1- 5- 8- 9   0   0   0   0  0.0000  0.0000  2.2700  0.0000  9.0
 AmbTrs  1- 5- 8-10   0   0   0   0  0.0000  0.0000  2.2700  0.0000  9.0
 AmbTrs  1- 5- 8-11   0   0   0   0  0.0000  0.0000  0.0000  0.0000  9.0
 AmbTrs  6- 5- 8- 9   0   0   0   0  0.0000  0.0000  3.5500  0.0000  9.0
 AmbTrs  6- 5- 8-10   0   0   0   0  0.0000  0.0000  2.2800  0.0000  9.0
 AmbTrs  6- 5- 8-11   0   0   0   0  0.0000  0.0000  2.2700  0.0000  9.0
 AmbTrs  7- 5- 8- 9   0   0   0   0  0.0000  0.0000  2.2900  0.0000  9.0
 AmbTrs  7- 5- 8-10   0   0   0   0  0.0000  0.0000  3.5500  0.0000  9.0
 AmbTrs  7- 5- 8-11   0   0   0   0  0.0000  0.0000  2.2700  0.0000  9.0
 AmbTrs  5- 8-11-12   0   0   0   0  0.0000  0.0000  2.3200  0.0000  9.0
 AmbTrs  5- 8-11-13   0   0   0   0  0.0000  0.0000  2.2100  0.0000  9.0
 AmbTrs  5- 8-11-14   0   0   0   0  0.0000  0.0000  2.3200  0.0000  9.0
 AmbTrs  9- 8-11-12   0   0   0   0  0.0000  0.0000  1.2400  0.0000  9.0
 AmbTrs  9- 8-11-13   0   0   0   0  0.0000  0.0000  3.3300  0.0000  9.0
 AmbTrs  9- 8-11-14   0   0   0   0  0.0000  0.0000  2.0200  0.0000  9.0
 AmbTrs 10- 8-11-12   0   0   0   0  0.0000  0.0000  2.0200  0.0000  9.0
 AmbTrs 10- 8-11-13   0   0   0   0  0.0000  0.0000  3.3300  0.0000  9.0
 AmbTrs 10- 8-11-14   0   0   0   0  0.0000  0.0000  1.2400  0.0000  9.0
 NBPair  2- 1 3 1      0      0 -1.000 -1.000
 NBPair  3- 2 3 1      0      0 -1.000 -1.000
 NBPair  4- 2 3 1      0      0 -1.000 -1.000
 NBPair  5- 2 3 1      0      0 -1.000 -1.000
 NBPair  3- 1 3 1      0      0 -1.000 -1.000
 NBPair  4- 3 3 1      0      0 -1.000 -1.000
 NBPair  5- 3 3 1      0      0 -1.000 -1.000
 NBPair  4- 1 3 1      0      0 -1.000 -1.000
 NBPair  5- 4 3 1      0      0 -1.000 -1.000
 NBPair  5- 1 3 1      0      0 -1.000 -1.000
 NBPair  6- 2 3 1      0      0 -0.500 -0.167
 NBPair  7- 2 3 1      0      0 -0.500 -0.167
 NBPair  8- 2 3 1      0      0 -0.500 -0.167
 NBPair  6- 3 3 1      0      0 -0.500 -0.167
 NBPair  7- 3 3 1      0      0 -0.500 -0.167
 NBPair  8- 3 3 1      0      0 -0.500 -0.167
 NBPair  6- 4 3 1      0      0 -0.500 -0.167
 NBPair  7- 4 3 1      0      0 -0.500 -0.167
 NBPair  8- 4 3 1      0      0 -0.500 -0.167
 NBPair  6- 1 3 1      0      0 -1.000 -1.000
 NBPair  7- 1 3 1      0      0 -1.000 -1.000
 NBPair  8- 1 3 1      0      0 -1.000 -1.000
 NBPair  6- 5 3 1      0      0 -1.000 -1.000
 NBPair  7- 6 3 1      0      0 -1.000 -1.000
 NBPair  8- 6 3 1      0      0 -1.000 -1.000
 NBPair  7- 5 3 1      0      0 -1.000 -1.000
 NBPair  8- 7 3 1      0      0 -1.000 -1.000
 NBPair  8- 5 3 1      0      0 -1.000 -1.000
 NBPair  9- 1 3 1      0      0 -0.500 -0.167
 NBPair 10- 1 3 1      0      0 -0.500 -0.167
 NBPair 11- 1 3 1      0      0 -0.500 -0.167
 NBPair  9- 6 3 1      0      0 -0.500 -0.167
 NBPair 10- 6 3 1      0      0 -0.500 -0.167
 NBPair 11- 6 3 1      0      0 -0.500 -0.167
 NBPair  9- 7 3 1      0      0 -0.500 -0.167
 NBPair 10- 7 3 1      0      0 -0.500 -0.167
 NBPair 11- 7 3 1      0      0 -0.500 -0.167
 NBPair  9- 5 3 1      0      0 -1.000 -1.000
 NBPair 10- 5 3 1      0      0 -1.000 -1.000
 NBPair 11- 5 3 1      0      0 -1.000 -1.000
 NBPair  9- 8 3 1      0      0 -1.000 -1.000
 NBPair 10- 9 3 1      0      0 -1.000 -1.000
 NBPair 11- 9 3 1      0      0 -1.000 -1.000
 NBPair 10- 8 3 1      0      0 -1.000 -1.000
 NBPair 11-10 3 1      0      0 -1.000 -1.000
 NBPair 11- 8 3 1      0      0 -1.000 -1.000
 NBPair 12- 5 3 1      0      0 -0.500 -0.167
 NBPair 13- 5 3 1      0      0 -0.500 -0.167
 NBPair 14- 5 3 1      0      0 -0.500 -0.167
 NBPair 12- 9 3 1      0      0 -0.500 -0.167
 NBPair 13- 9 3 1      0      0 -0.500 -0.167
 NBPair 14- 9 3 1      0      0 -0.500 -0.167
 NBPair 12-10 3 1      0      0 -0.500 -0.167
 NBPair 13-10 3 1      0      0 -0.500 -0.167
 NBPair 14-10 3 1      0      0 -0.500 -0.167
 NBPair 12- 8 3 1      0      0 -1.000 -1.000
 NBPair 13- 8 3 1      0      0 -1.000 -1.000
 NBPair 14- 8 3 1      0      0 -1.000 -1.000
 NBPair 12-11 3 1      0      0 -1.000 -1.000
 NBPair 13-12 3 1      0      0 -1.000 -1.000
 NBPair 14-12 3 1      0      0 -1.000 -1.000
 NBPair 13-11 3 1      0      0 -1.000 -1.000
 NBPair 14-13 3 1      0      0 -1.000 -1.000
 NBPair 14-11 3 1      0      0 -1.000 -1.000
 Energy per function type:
 Direct Coulomb + vdW (small)                           0.005884954
 Direct Coulomb (large)                                -0.055521954
 Direct vdW (large)                                     0.000000000
 Non-direct Coulomb + vdW (small)                       0.031737316
 Non-direct Coulomb (large)                             0.021663446
 Non-direct vdW (large)                                 0.000000000
 Harmonic stretch I                                     0.000607573
 Harmonic bend I                                        0.016330475
 Amber torsion                                          0.005018427
 Energy per function class:
        Coulomb               0.003723321
    Vanderwaals               0.000040441
     Stretching               0.000607573
        Bending               0.016330475
        Torsion               0.005018427
 Energy=    2.572023723E-02 NIter=   0.
 Dipole moment=      -0.054160      -0.031988       0.040102
 Leave Link  402 at Fri Mar 29 17:15:46 2024, MaxMem=   134217728 cpu:               0.0 elap:               0.0
 (Enter /home/emanuele/chem_software/gaussian//gdv/l9999.exe)
 Unable to Open any file for archive entry.
 1\1\GINC-EMANUELE-XPS-13-9343\SP\AMBER\ZDO\C4H10\EMANUELE\29-Mar-2024\
 0\\#p Amber=(SoftFirst,Print) geom=nocrowd nosymm\\Title\\0,1\C,0,-2.0
 41206,0.620493,0.013344\H,0,-1.705001,-0.418979,-0.067843\H,0,-1.18775
 ,1.263282,-0.238243\H,0,-2.809538,0.77814,-0.753695\C,0,-2.572307,0.92
 2889,1.415207\H,0,-1.63744,0.646266,1.941259\H,0,-3.38326,0.347318,1.9
 0397\C,0,-2.862248,2.424809,1.590746\H,0,-3.483467,2.675036,0.701614\H
 ,0,-3.729466,2.454237,2.278015\C,0,-1.706811,3.283141,2.104813\H,0,-0.
 859733,3.269839,1.408361\H,0,-2.01366,4.327302,2.230922\H,0,-1.33994,2
 .929194,3.0752\\Version=ES64L-GDVRevJ.14\HF=0.0257202\RMSD=0.000e+00\D
 ipole=-0.0541604,-0.0319884,0.0401024\PG=C01 [X(C4H10)]\\@
 The archive entry for this job was punched.


 CLIMB THE MOUNTAINS AND GET THEIR GOOD TIDINGS.
 NATURE'S PEACE WILL FLOW INTO YOU AS SUNSHINE FLOWS INTO TREES.
 THE WINDS WILL BLOW THEIR OWN FRESHNESS INTO YOU, 
 AND CARES WILL DROP OFF LIKE AUTUMN LEAVES.

                                         -- JOHN MUIR
 Job cpu time:       0 days  0 hours  0 minutes  0.4 seconds.
 Elapsed time:       0 days  0 hours  0 minutes  0.4 seconds.
 File lengths (MBytes):  RWF=      6 Int=      0 D2E=      0 Chk=      1 Scr=      1
 Normal termination of Gaussian DV at Fri Mar 29 17:15:46 2024.
