 Entering Gaussian System, Link 0=/home/emanuele/chem_software/gaussian//g09/g09
 Input=0_qm.gjf
 Output=0_qm.log
 Initial command:
 /home/emanuele/chem_software/gaussian//gdv/l1.exe "/home/emanuele/chem_software/gaussian/scratch/Gau-10146.inp" -scrdir="/home/emanuele/chem_software/gaussian/scratch/"
 Entering Link 1 = /home/emanuele/chem_software/gaussian//gdv/l1.exe PID=     10148.
  
 Copyright (c) 1988-2020, Gaussian, Inc.  All Rights Reserved.
  
 This is the private, development version of
 the Gaussian(R) DV system of programs. It is based on
 the Gaussian(R) 16 system (copyright 2016, Gaussian, Inc.),
 the Gaussian(R) 09 system (copyright 2009, Gaussian, Inc.),
 the Gaussian(R) 03 system (copyright 2003, Gaussian, Inc.),
 the Gaussian(R) 98 system (copyright 1998, Gaussian, Inc.),
 the Gaussian(R) 94 system (copyright 1995, Gaussian, Inc.),
 the Gaussian 92(TM) system (copyright 1992, Gaussian, Inc.),
 the Gaussian 90(TM) system (copyright 1990, Gaussian, Inc.),
 the Gaussian 88(TM) system (copyright 1988, Gaussian, Inc.),
 the Gaussian 86(TM) system (copyright 1986, Carnegie Mellon
 University), and the Gaussian 82(TM) system (copyright 1983,
 Carnegie Mellon University). Gaussian is a federally registered
 trademark of Gaussian, Inc.
  
 This software contains proprietary and confidential information,
 including trade secrets, belonging to Gaussian, Inc.
  
 This software is provided under written license and may be
 used, copied, transmitted, or stored only in accord with that
 written license.
  
 The following legend is applicable only to US Government
 contracts under FAR:
  
                    RESTRICTED RIGHTS LEGEND
  
 Use, reproduction and disclosure by the US Government is
 subject to restrictions as set forth in subparagraphs (a)
 and (c) of the Commercial Computer Software - Restricted
 Rights clause in FAR 52.227-19.
  
 Gaussian, Inc.
 340 Quinnipiac St., Bldg. 40, Wallingford CT 06492
  
  
 ---------------------------------------------------------------
 Warning -- This program may not be used in any manner that
 competes with the business of Gaussian, Inc. or will provide
 assistance to any competitor of Gaussian, Inc.  The licensee
 of this program is prohibited from giving any competitor of
 Gaussian, Inc. access to this program.  By using this program,
 the user acknowledges that Gaussian, Inc. is engaged in the
 business of creating and licensing software in the field of
 computational chemistry and represents and warrants to the
 licensee that it is not a competitor of Gaussian, Inc. and that
 it will not use this program in any manner prohibited above.
 ---------------------------------------------------------------
  

 Cite this work as:
 Gaussian Development Version, Revision J.14,
 M. J. Frisch, G. W. Trucks, H. B. Schlegel, G. E. Scuseria, 
 M. A. Robb, J. R. Cheeseman, G. Scalmani, V. Barone, 
 G. A. Petersson, H. Nakatsuji, X. Li, A. V. Marenich, M. Caricato, 
 J. Bloino, B. G. Janesko, J. Zheng, R. Gomperts, B. Mennucci, 
 H. P. Hratchian, J. V. Ortiz, A. F. Izmaylov, J. L. Sonnenberg, 
 D. Williams-Young, F. Ding, F. Lipparini, F. Egidi, J. Goings, 
 B. Peng, A. Petrone, T. Henderson, D. Ranasinghe, V. G. Zakrzewski, 
 J. Gao, N. Rega, G. Zheng, W. Liang, M. Hada, M. Ehara, K. Toyota, 
 R. Fukuda, J. Hasegawa, M. Ishida, T. Nakajima, Y. Honda, O. Kitao, 
 H. Nakai, T. Vreven, K. Throssell, J. A. Montgomery, Jr., 
 J. E. Peralta, F. Ogliaro, M. J. Bearpark, J. J. Heyd, 
 E. N. Brothers, K. N. Kudin, V. N. Staroverov, T. A. Keith, 
 R. Kobayashi, J. Normand, K. Raghavachari, A. P. Rendell, 
 J. C. Burant, S. S. Iyengar, J. Tomasi, M. Cossi, J. M. Millam, 
 M. Klene, C. Adamo, R. Cammi, J. W. Ochterski, R. L. Martin, 
 K. Morokuma, O. Farkas, J. B. Foresman, and D. J. Fox, 
 Gaussian, Inc., Wallingford CT, 2020.
 
 ******************************************
 Gaussian DV:  ES64L-GDVRevJ.14 29-Dec-2020
                29-Mar-2024 
 ******************************************
 %mem=1GB
 %nprocshared=4
 Will use up to    4 processors via shared memory.
 %chk=0_qm.chk
 ----------------------------------------------------------
 #p nosymm geom=nocrowd opt=(modredundant,maxcycle=100) PM6
 ----------------------------------------------------------
 1/6=100,18=120,19=15,26=1,37=210000000,38=1/1,3;
 2/9=110,12=1,15=1,40=1/2;
 3/5=2,25=1,41=3900000,71=1/1,2,3;
 4/35=1/1;
 5/5=2,35=1,38=5/2;
 6/7=2,8=2,9=2,10=2,28=1/1;
 7/30=1/1,2,3,16;
 1/6=100,18=20,19=15,26=1/3(2);
 2/9=110,12=1,15=1/2;
 99//99;
 2/9=110,12=1,15=1/2;
 3/5=2,25=1,41=3900000,71=1,135=20/1,2,3;
 4/5=5,16=3,35=1/1;
 5/5=2,35=1,38=5/2;
 7/30=1/1,2,3,16;
 1/6=100,18=20,19=15,26=1/3(-5);
 2/9=110,12=1,15=1/2;
 6/7=2,8=2,9=2,10=2,19=2,28=1/1;
 99/9=1/99;
 Leave Link    1 at Fri Mar 29 17:11:37 2024, MaxMem=   134217728 cpu:               0.2 elap:               0.1
 (Enter /home/emanuele/chem_software/gaussian//gdv/l101.exe)
 -----
 Title
 -----
 Symbolic Z-matrix:
 Charge =  0 Multiplicity = 1
 C                    -2.49341   0.34945  -0.01033 
 H                    -2.13722  -0.68175  -0.02338 
 H                    -2.14608   0.83135  -0.92689 
 H                    -3.58472   0.32329  -0.04646 
 C                    -2.00024   1.09707   1.22695 
 H                    -0.90618   1.0768    1.25425 
 H                    -2.33381   0.57262   2.12795 
 C                    -2.47574   2.54907   1.28787 
 H                    -2.14216   3.07352   0.38686 
 H                    -3.5698    2.56934   1.26056 
 C                    -1.98256   3.29668   2.52514 
 H                    -0.89126   3.32285   2.56127 
 H                    -2.33875   4.32789   2.53819 
 H                    -2.3299    2.81479   3.4417 
 
 The following ModRedundant input section has been read:
 D       1       5       8       9 S  10 36.000                                
 
 ITRead=  0  0  0  0  0  0  0  0  0  0  0  0  0  0
 MicOpt= -1 -1 -1 -1 -1 -1 -1 -1 -1 -1 -1 -1 -1 -1
 DXMax1 from symmetrization= 1.89D-06
 NAtoms=     14 NQM=       14 NQMF=       0 NMMI=      0 NMMIF=      0
                NMic=       0 NMicF=      0.
                    Isotopes and Nuclear Properties:
 (Nuclear quadrupole moments (NQMom) in fm**2, nuclear magnetic moments (NMagM)
  in nuclear magnetons)

  Atom         1           2           3           4           5           6           7           8           9          10
 IAtWgt=          12           1           1           1          12           1           1          12           1           1
 AtmWgt=  12.0000000   1.0078250   1.0078250   1.0078250  12.0000000   1.0078250   1.0078250  12.0000000   1.0078250   1.0078250
 NucSpn=           0           1           1           1           0           1           1           0           1           1
 AtZEff=  -0.0000000  -0.0000000  -0.0000000  -0.0000000  -0.0000000  -0.0000000  -0.0000000  -0.0000000  -0.0000000  -0.0000000
 NQMom=    0.0000000   0.0000000   0.0000000   0.0000000   0.0000000   0.0000000   0.0000000   0.0000000   0.0000000   0.0000000
 NMagM=    0.0000000   2.7928460   2.7928460   2.7928460   0.0000000   2.7928460   2.7928460   0.0000000   2.7928460   2.7928460
 AtZNuc=   6.0000000   1.0000000   1.0000000   1.0000000   6.0000000   1.0000000   1.0000000   6.0000000   1.0000000   1.0000000

  Atom        11          12          13          14
 IAtWgt=          12           1           1           1
 AtmWgt=  12.0000000   1.0078250   1.0078250   1.0078250
 NucSpn=           0           1           1           1
 AtZEff=  -0.0000000  -0.0000000  -0.0000000  -0.0000000
 NQMom=    0.0000000   0.0000000   0.0000000   0.0000000
 NMagM=    0.0000000   2.7928460   2.7928460   2.7928460
 AtZNuc=   6.0000000   1.0000000   1.0000000   1.0000000
 Leave Link  101 at Fri Mar 29 17:11:38 2024, MaxMem=   134217728 cpu:               0.9 elap:               0.3
 (Enter /home/emanuele/chem_software/gaussian//gdv/l103.exe)

 GradGradGradGradGradGradGradGradGradGradGradGradGradGradGradGradGradGrad
 Berny optimization.
 Initialization pass.
                           ----------------------------
                           !    Initial Parameters    !
                           ! (Angstroms and Degrees)  !
 --------------------------                            --------------------------
 ! Name  Definition              Value          Derivative Info.                !
 --------------------------------------------------------------------------------
 ! R1    R(1,2)                  1.0911         estimate D2E/DX2                !
 ! R2    R(1,3)                  1.0922         estimate D2E/DX2                !
 ! R3    R(1,4)                  1.0922         estimate D2E/DX2                !
 ! R4    R(1,5)                  1.5274         estimate D2E/DX2                !
 ! R5    R(5,6)                  1.0946         estimate D2E/DX2                !
 ! R6    R(5,7)                  1.0946         estimate D2E/DX2                !
 ! R7    R(5,8)                  1.5291         estimate D2E/DX2                !
 ! R8    R(8,9)                  1.0946         estimate D2E/DX2                !
 ! R9    R(8,10)                 1.0946         estimate D2E/DX2                !
 ! R10   R(8,11)                 1.5274         estimate D2E/DX2                !
 ! R11   R(11,12)                1.0922         estimate D2E/DX2                !
 ! R12   R(11,13)                1.0911         estimate D2E/DX2                !
 ! R13   R(11,14)                1.0922         estimate D2E/DX2                !
 ! A1    A(2,1,3)              107.6467         estimate D2E/DX2                !
 ! A2    A(2,1,4)              107.6468         estimate D2E/DX2                !
 ! A3    A(2,1,5)              111.5239         estimate D2E/DX2                !
 ! A4    A(3,1,4)              107.4912         estimate D2E/DX2                !
 ! A5    A(3,1,5)              111.1696         estimate D2E/DX2                !
 ! A6    A(4,1,5)              111.1697         estimate D2E/DX2                !
 ! A7    A(1,5,6)              109.5036         estimate D2E/DX2                !
 ! A8    A(1,5,7)              109.5036         estimate D2E/DX2                !
 ! A9    A(1,5,8)              113.3693         estimate D2E/DX2                !
 ! A10   A(6,5,7)              105.9736         estimate D2E/DX2                !
 ! A11   A(6,5,8)              109.1119         estimate D2E/DX2                !
 ! A12   A(7,5,8)              109.1118         estimate D2E/DX2                !
 ! A13   A(5,8,9)              109.1118         estimate D2E/DX2                !
 ! A14   A(5,8,10)             109.1119         estimate D2E/DX2                !
 ! A15   A(5,8,11)             113.3693         estimate D2E/DX2                !
 ! A16   A(9,8,10)             105.9736         estimate D2E/DX2                !
 ! A17   A(9,8,11)             109.5036         estimate D2E/DX2                !
 ! A18   A(10,8,11)            109.5036         estimate D2E/DX2                !
 ! A19   A(8,11,12)            111.1697         estimate D2E/DX2                !
 ! A20   A(8,11,13)            111.5239         estimate D2E/DX2                !
 ! A21   A(8,11,14)            111.1696         estimate D2E/DX2                !
 ! A22   A(12,11,13)           107.6468         estimate D2E/DX2                !
 ! A23   A(12,11,14)           107.4912         estimate D2E/DX2                !
 ! A24   A(13,11,14)           107.6467         estimate D2E/DX2                !
 ! D1    D(2,1,5,6)             57.8979         estimate D2E/DX2                !
 ! D2    D(2,1,5,7)            -57.898          estimate D2E/DX2                !
 ! D3    D(2,1,5,8)            180.0            estimate D2E/DX2                !
 ! D4    D(3,1,5,6)            -62.2471         estimate D2E/DX2                !
 ! D5    D(3,1,5,7)           -178.043          estimate D2E/DX2                !
 ! D6    D(3,1,5,8)             59.855          estimate D2E/DX2                !
 ! D7    D(4,1,5,6)            178.043          estimate D2E/DX2                !
 ! D8    D(4,1,5,7)             62.247          estimate D2E/DX2                !
 ! D9    D(4,1,5,8)            -59.8549         estimate D2E/DX2                !
 ! D10   D(1,5,8,9)            -57.6801         Scan                            !
 ! D11   D(1,5,8,10)            57.6801         estimate D2E/DX2                !
 ! D12   D(1,5,8,11)           180.0            estimate D2E/DX2                !
 ! D13   D(6,5,8,9)             64.6398         estimate D2E/DX2                !
 ! D14   D(6,5,8,10)           180.0            estimate D2E/DX2                !
 ! D15   D(6,5,8,11)           -57.6801         estimate D2E/DX2                !
 ! D16   D(7,5,8,9)            180.0            estimate D2E/DX2                !
 ! D17   D(7,5,8,10)           -64.6398         estimate D2E/DX2                !
 ! D18   D(7,5,8,11)            57.6801         estimate D2E/DX2                !
 ! D19   D(5,8,11,12)           59.8549         estimate D2E/DX2                !
 ! D20   D(5,8,11,13)         -180.0            estimate D2E/DX2                !
 ! D21   D(5,8,11,14)          -59.855          estimate D2E/DX2                !
 ! D22   D(9,8,11,12)          -62.247          estimate D2E/DX2                !
 ! D23   D(9,8,11,13)           57.898          estimate D2E/DX2                !
 ! D24   D(9,8,11,14)          178.043          estimate D2E/DX2                !
 ! D25   D(10,8,11,12)        -178.043          estimate D2E/DX2                !
 ! D26   D(10,8,11,13)         -57.8979         estimate D2E/DX2                !
 ! D27   D(10,8,11,14)          62.2471         estimate D2E/DX2                !
 --------------------------------------------------------------------------------
 Trust Radius=3.00D-01 FncErr=1.00D-07 GrdErr=1.00D-07 EigMax=2.50D+02 EigMin=1.00D-04
 Number of optimizations in scan=  11
 Number of steps in this run=    100 maximum allowed number of steps=    100.
 GradGradGradGradGradGradGradGradGradGradGradGradGradGradGradGradGradGrad

 Leave Link  103 at Fri Mar 29 17:11:38 2024, MaxMem=   134217728 cpu:               0.0 elap:               0.0
 (Enter /home/emanuele/chem_software/gaussian//gdv/l202.exe)
                          Input orientation:                          
 ---------------------------------------------------------------------
 Center     Atomic      Atomic             Coordinates (Angstroms)
 Number     Number       Type             X           Y           Z
 ---------------------------------------------------------------------
      1          6           0       -2.493413    0.349454   -0.010333
      2          1           0       -2.137221   -0.681753   -0.023381
      3          1           0       -2.146079    0.831347   -0.926886
      4          1           0       -3.584715    0.323285   -0.046458
      5          6           0       -2.000239    1.097073    1.226945
      6          1           0       -0.906178    1.076799    1.254250
      7          1           0       -2.333815    0.572622    2.127947
      8          6           0       -2.475736    2.549065    1.287865
      9          1           0       -2.142160    3.073516    0.386863
     10          1           0       -3.569797    2.569339    1.260560
     11          6           0       -1.982562    3.296684    2.525143
     12          1           0       -0.891260    3.322853    2.561268
     13          1           0       -2.338754    4.327891    2.538191
     14          1           0       -2.329896    2.814791    3.441696
 ---------------------------------------------------------------------
                    Distance matrix (angstroms):
                    1          2          3          4          5
     1  C    0.000000
     2  H    1.091069   0.000000
     3  H    1.092214   1.762348   0.000000
     4  H    1.092213   1.762349   1.761520   0.000000
     5  C    1.527420   2.178601   2.175056   2.175056   0.000000
     6  H    2.155810   2.498062   2.520904   3.071512   1.094589
     7  H    2.155810   2.498063   3.071512   2.520904   1.094590
     8  C    2.554196   3.503162   2.822118   2.822118   1.529081
     9  H    2.775186   3.777614   2.598706   3.135682   2.152256
    10  H    2.775187   3.777616   3.135683   2.598707   2.152257
    11  C    3.921195   4.727246   4.245130   4.245130   2.554196
    12  H    4.245130   4.926429   4.466474   4.801285   2.822118
    13  H    4.727246   5.630169   4.926429   4.926429   3.503162
    14  H    4.245130   4.926429   4.801286   4.466474   2.822118
                    6          7          8          9         10
     6  H    0.000000
     7  H    1.748053   0.000000
     8  C    2.152257   2.152256   0.000000
     9  H    2.503376   3.053289   1.094590   0.000000
    10  H    3.053291   2.503376   1.094589   1.748053   0.000000
    11  C    2.775187   2.775186   1.527420   2.155810   2.155810
    12  H    2.598707   3.135682   2.175056   2.520904   3.071512
    13  H    3.777616   3.777614   2.178601   2.498063   2.498062
    14  H    3.135683   2.598706   2.175056   3.071512   2.520904
                   11         12         13         14
    11  C    0.000000
    12  H    1.092213   0.000000
    13  H    1.091069   1.762349   0.000000
    14  H    1.092214   1.761520   1.762348   0.000000
 Symmetry turned off by external request.
 Stoichiometry    C4H10
 Framework group  CI[X(C4H10)]
 Deg. of freedom    18
 Full point group                 CI      NOp   2
 Rotational constants (GHZ):          23.6116342           3.6179161           3.3991508
 Leave Link  202 at Fri Mar 29 17:11:38 2024, MaxMem=   134217728 cpu:               0.1 elap:               0.0
 (Enter /home/emanuele/chem_software/gaussian//gdv/l301.exe)
 Standard basis: VSTO-6G (5D, 7F)
 Ernie: Thresh=  0.10000D-02 Tol=  0.10000D-05 Strict=F.
  NNHCO=     0 NNPyr=     0 NCTC=     0               EPep=         0.000000000
    EC=        65.745193473  ECS=         2.271612005   EG=         0.199102294
   EHC=         0.000352266  EAt=       -21.067501684  AtH=         1.919620419
 EPDDG=         0.000000000  ECC=        68.216260039 EAtT=        22.987122103
    26 basis functions,   156 primitive gaussians,    26 cartesian basis functions
    13 alpha electrons       13 beta electrons
       nuclear repulsion energy        91.2033821419 Hartrees.
 IExCor=       0 DFT=F Ex=HF Corr=None N6=None ScaHFX=  1.000000
 ScaDFX=  1.000000  1.000000  1.000000  1.000000  1.000000  0.000000
 ScaDFX=  0.000000  0.000000  0.000000  0.000000  0.000000  0.000000
 IRadAn=      5 IRanWt=     -1 IRanGd=            0 ICorTp=0 IEmpDi=  4
 Integral buffers will be    131072 words long.
 Regular integral format.
 Two-electron integral symmetry is turned off.
 Leave Link  301 at Fri Mar 29 17:11:38 2024, MaxMem=   134217728 cpu:               0.3 elap:               0.1
 (Enter /home/emanuele/chem_software/gaussian//gdv/l302.exe)
 Do NDO integrals.
 NPDir=0 NMtPBC=     1 NCelOv=     1 NCel=       1 NClECP=     1 NCelD=      1
         NCelK=      1 NCelE2=     1 NClLst=     1 CellRange=     0.0.
 One-electron integrals computed using PRISM.
 NBasis=    26 RedAO= F EigKep=  0.00D+00  NBF=    26
 NBsUse=    26 1.00D-04 EigRej=  0.00D+00 NBFU=    26
 Leave Link  302 at Fri Mar 29 17:11:38 2024, MaxMem=   134217728 cpu:               0.5 elap:               0.2
 (Enter /home/emanuele/chem_software/gaussian//gdv/l303.exe)
 DipDrv:  MaxL=1.
 Leave Link  303 at Fri Mar 29 17:11:38 2024, MaxMem=   134217728 cpu:               0.2 elap:               0.1
 (Enter /home/emanuele/chem_software/gaussian//gdv/l401.exe)
 Simple Huckel Guess.
 JPrj=0 DoOrth=F DoCkMO=F.
 Leave Link  401 at Fri Mar 29 17:11:39 2024, MaxMem=   134217728 cpu:               0.4 elap:               0.2
 (Enter /home/emanuele/chem_software/gaussian//gdv/l502.exe)
 Keep J ints in memory in canonical form, NReq=861102.
 FoFCou: FMM=F IPFlag=           0 FMFlag=           0 FMFlg1=           0
         NFxFlg=           0 DoJE=F BraDBF=F KetDBF=F FulRan=T
         wScrn=  0.000000 ICntrl=       600 IOpCl=  2 I1Cent=           0 NGrid=           0
         NMat0=    1 NMatS0=     50 NMatT0=    0 NMatD0=    1 NMtDS0=    0 NMtDT0=    0
 Symmetry not used in FoFCou.
 Two-electron integral symmetry not used.
 Closed shell SCF:
 Using DIIS extrapolation, IDIIS=  1040.
 Overlap will be assumed to be unity.
 NGot=   134217728 LenX=   134154919 LenY=   134153802
 Requested convergence on RMS density matrix=1.00D-08 within 128 cycles.
 Requested convergence on MAX density matrix=1.00D-06.
 Requested convergence on             energy=1.00D-06.
 No special actions if energy rises.

 Cycle   1  Pass 1  IDiag  1:
 E= 0.428709966982694E-01
 DIIS: error= 2.18D-02 at cycle   1 NSaved=   1.
 NSaved= 1 IEnMin= 1 EnMin= 0.428709966982694E-01 IErMin= 1 ErrMin= 2.18D-02
 ErrMax= 2.18D-02  0.00D+00 EMaxC= 1.00D-01 BMatC= 2.95D-02 BMatP= 2.95D-02
 IDIUse=3 WtCom= 7.82D-01 WtEn= 2.18D-01
 Coeff-Com:  0.100D+01
 Coeff-En:   0.100D+01
 Coeff:      0.100D+01
 GapD=    2.000 DampG=2.000 DampE=0.500 DampFc=1.0000 IDamp=-1.
 RMSDP=9.73D-03 MaxDP=6.76D-02              OVMax= 0.00D+00

 Cycle   2  Pass 1  IDiag  1:
 E=-0.333821878197114E-01 Delta-E=       -0.076253184518 Rises=F Damp=F
 DIIS: error= 5.34D-03 at cycle   2 NSaved=   2.
 NSaved= 2 IEnMin= 2 EnMin=-0.333821878197114E-01 IErMin= 2 ErrMin= 5.34D-03
 ErrMax= 5.34D-03  0.00D+00 EMaxC= 1.00D-01 BMatC= 2.11D-03 BMatP= 2.95D-02
 IDIUse=3 WtCom= 9.47D-01 WtEn= 5.34D-02
 Coeff-Com: -0.334D+00 0.133D+01
 Coeff-En:   0.000D+00 0.100D+01
 Coeff:     -0.316D+00 0.132D+01
 RMSDP=3.71D-03 MaxDP=2.10D-02 DE=-7.63D-02 OVMax= 0.00D+00

 Cycle   3  Pass 1  IDiag  3:
 E=-0.402139256419218E-01 Delta-E=       -0.006831737822 Rises=F Damp=F
 DIIS: error= 1.47D-03 at cycle   3 NSaved=   3.
 NSaved= 3 IEnMin= 3 EnMin=-0.402139256419218E-01 IErMin= 3 ErrMin= 1.47D-03
 ErrMax= 1.47D-03  0.00D+00 EMaxC= 1.00D-01 BMatC= 7.64D-05 BMatP= 2.11D-03
 IDIUse=3 WtCom= 9.85D-01 WtEn= 1.47D-02
 Coeff-Com:  0.293D+00-0.122D+01 0.193D+01
 Coeff-En:   0.000D+00 0.000D+00 0.100D+01
 Coeff:      0.289D+00-0.121D+01 0.192D+01
 Gap=     0.564 Goal=   None    Shift=    0.000
 RMSDP=1.30D-03 MaxDP=9.86D-03 DE=-6.83D-03 OVMax= 7.77D-03

 Cycle   4  Pass 1  IDiag  3:
 E=-0.406906053183747E-01 Delta-E=       -0.000476679676 Rises=F Damp=F
 DIIS: error= 2.98D-04 at cycle   4 NSaved=   4.
 NSaved= 4 IEnMin= 4 EnMin=-0.406906053183747E-01 IErMin= 4 ErrMin= 2.98D-04
 ErrMax= 2.98D-04  0.00D+00 EMaxC= 1.00D-01 BMatC= 3.25D-06 BMatP= 7.64D-05
 IDIUse=3 WtCom= 9.97D-01 WtEn= 2.98D-03
 Coeff-Com: -0.139D+00 0.586D+00-0.106D+01 0.162D+01
 Coeff-En:   0.000D+00 0.000D+00 0.000D+00 0.100D+01
 Coeff:     -0.139D+00 0.584D+00-0.106D+01 0.161D+01
 Gap=     0.565 Goal=   None    Shift=    0.000
 RMSDP=2.89D-04 MaxDP=2.11D-03 DE=-4.77D-04 OVMax= 2.06D-03

 Cycle   5  Pass 1  IDiag  3:
 E=-0.407122150718635E-01 Delta-E=       -0.000021609753 Rises=F Damp=F
 DIIS: error= 8.28D-05 at cycle   5 NSaved=   5.
 NSaved= 5 IEnMin= 5 EnMin=-0.407122150718635E-01 IErMin= 5 ErrMin= 8.28D-05
 ErrMax= 8.28D-05  0.00D+00 EMaxC= 1.00D-01 BMatC= 2.33D-07 BMatP= 3.25D-06
 IDIUse=1 WtCom= 1.00D+00 WtEn= 0.00D+00
 Coeff-Com:  0.746D-01-0.316D+00 0.604D+00-0.113D+01 0.177D+01
 Coeff:      0.746D-01-0.316D+00 0.604D+00-0.113D+01 0.177D+01
 Gap=     0.564 Goal=   None    Shift=    0.000
 RMSDP=7.85D-05 MaxDP=4.82D-04 DE=-2.16D-05 OVMax= 5.28D-04

 Cycle   6  Pass 1  IDiag  3:
 E=-0.407137616649891E-01 Delta-E=       -0.000001546593 Rises=F Damp=F
 DIIS: error= 1.53D-05 at cycle   6 NSaved=   6.
 NSaved= 6 IEnMin= 6 EnMin=-0.407137616649891E-01 IErMin= 6 ErrMin= 1.53D-05
 ErrMax= 1.53D-05  0.00D+00 EMaxC= 1.00D-01 BMatC= 7.93D-09 BMatP= 2.33D-07
 IDIUse=1 WtCom= 1.00D+00 WtEn= 0.00D+00
 Coeff-Com:  0.250D-02-0.102D-01 0.106D-01 0.236D-01-0.237D+00 0.121D+01
 Coeff:      0.250D-02-0.102D-01 0.106D-01 0.236D-01-0.237D+00 0.121D+01
 Gap=     0.564 Goal=   None    Shift=    0.000
 RMSDP=1.31D-05 MaxDP=9.81D-05 DE=-1.55D-06 OVMax= 1.02D-04

 Cycle   7  Pass 1  IDiag  3:
 E=-0.407138062769405E-01 Delta-E=       -0.000000044612 Rises=F Damp=F
 DIIS: error= 1.76D-06 at cycle   7 NSaved=   7.
 NSaved= 7 IEnMin= 7 EnMin=-0.407138062769405E-01 IErMin= 7 ErrMin= 1.76D-06
 ErrMax= 1.76D-06  0.00D+00 EMaxC= 1.00D-01 BMatC= 3.16D-10 BMatP= 7.93D-09
 IDIUse=1 WtCom= 1.00D+00 WtEn= 0.00D+00
 Coeff-Com:  0.638D-03-0.284D-02 0.830D-02-0.294D-01 0.121D+00-0.576D+00
 Coeff-Com:  0.148D+01
 Coeff:      0.638D-03-0.284D-02 0.830D-02-0.294D-01 0.121D+00-0.576D+00
 Coeff:      0.148D+01
 Gap=     0.564 Goal=   None    Shift=    0.000
 RMSDP=2.08D-06 MaxDP=1.19D-05 DE=-4.46D-08 OVMax= 1.35D-05

 Cycle   8  Pass 1  IDiag  3:
 E=-0.407138076177489E-01 Delta-E=       -0.000000001341 Rises=F Damp=F
 DIIS: error= 1.63D-07 at cycle   8 NSaved=   8.
 NSaved= 8 IEnMin= 8 EnMin=-0.407138076177489E-01 IErMin= 8 ErrMin= 1.63D-07
 ErrMax= 1.63D-07  0.00D+00 EMaxC= 1.00D-01 BMatC= 2.20D-12 BMatP= 3.16D-10
 IDIUse=1 WtCom= 1.00D+00 WtEn= 0.00D+00
 Coeff-Com:  0.875D-05 0.176D-04-0.113D-02 0.739D-02-0.385D-01 0.203D+00
 Coeff-Com: -0.560D+00 0.139D+01
 Coeff:      0.875D-05 0.176D-04-0.113D-02 0.739D-02-0.385D-01 0.203D+00
 Coeff:     -0.560D+00 0.139D+01
 Gap=     0.564 Goal=   None    Shift=    0.000
 RMSDP=1.55D-07 MaxDP=5.40D-07 DE=-1.34D-09 OVMax= 1.35D-06

 Cycle   9  Pass 1  IDiag  3:
 E=-0.407138076268865E-01 Delta-E=       -0.000000000009 Rises=F Damp=F
 DIIS: error= 1.65D-08 at cycle   9 NSaved=   9.
 NSaved= 9 IEnMin= 9 EnMin=-0.407138076268865E-01 IErMin= 9 ErrMin= 1.65D-08
 ErrMax= 1.65D-08  0.00D+00 EMaxC= 1.00D-01 BMatC= 4.83D-14 BMatP= 2.20D-12
 IDIUse=1 WtCom= 1.00D+00 WtEn= 0.00D+00
 Coeff-Com: -0.250D-05-0.718D-05 0.366D-03-0.238D-02 0.123D-01-0.654D-01
 Coeff-Com:  0.182D+00-0.520D+00 0.139D+01
 Coeff:     -0.250D-05-0.718D-05 0.366D-03-0.238D-02 0.123D-01-0.654D-01
 Coeff:      0.182D+00-0.520D+00 0.139D+01
 Gap=     0.564 Goal=   None    Shift=    0.000
 RMSDP=2.55D-08 MaxDP=8.56D-08 DE=-9.14D-12 OVMax= 2.18D-07

 Cycle  10  Pass 1  IDiag  3:
 E=-0.407138076272417E-01 Delta-E=       -0.000000000000 Rises=F Damp=F
 DIIS: error= 3.84D-09 at cycle  10 NSaved=  10.
 NSaved=10 IEnMin=10 EnMin=-0.407138076272417E-01 IErMin=10 ErrMin= 3.84D-09
 ErrMax= 3.84D-09  0.00D+00 EMaxC= 1.00D-01 BMatC= 1.94D-15 BMatP= 4.83D-14
 IDIUse=1 WtCom= 1.00D+00 WtEn= 0.00D+00
 Coeff-Com: -0.253D-05 0.176D-04-0.169D-03 0.965D-03-0.482D-02 0.252D-01
 Coeff-Com: -0.700D-01 0.205D+00-0.665D+00 0.151D+01
 Coeff:     -0.253D-05 0.176D-04-0.169D-03 0.965D-03-0.482D-02 0.252D-01
 Coeff:     -0.700D-01 0.205D+00-0.665D+00 0.151D+01
 Gap=     0.564 Goal=   None    Shift=    0.000
 RMSDP=5.72D-09 MaxDP=1.94D-08 DE=-3.55D-13 OVMax= 5.34D-08

 Cycle  11  Pass 2  IDiag  1:
 SCF Done:  E(RPM6) = -0.407138076272E-01 A.U. after   11 cycles
            NFock= 10  Conv=0.57D-08     -V/T= 0.9989
 KE=-3.631236529323D+01 PE=-1.303410059149D+02 EE= 7.540927525857D+01
 Leave Link  502 at Fri Mar 29 17:11:39 2024, MaxMem=   134217728 cpu:               0.4 elap:               0.2
 (Enter /home/emanuele/chem_software/gaussian//gdv/l601.exe)
 Copying SCF densities to generalized density rwf, IOpCl= 0 IROHF=0.

 **********************************************************************

            Population analysis using the SCF Density.

 **********************************************************************

 Alpha  occ. eigenvalues --       -1.04693      -0.94762      -0.80934      -0.74278      -0.59173
 Alpha  occ. eigenvalues --       -0.53895      -0.52945      -0.51765      -0.47264      -0.44791
 Alpha  occ. eigenvalues --       -0.44014      -0.42220      -0.41006
 Alpha virt. eigenvalues --        0.15432       0.16616       0.17993       0.20677       0.21657
 Alpha virt. eigenvalues --        0.21959       0.22334       0.22781       0.23653       0.24682
 Alpha virt. eigenvalues --        0.25084       0.25594       0.25761
          Condensed to atoms (all electrons):
               1          2          3          4          5          6
     1  C    4.463483   0.000000   0.000000   0.000000   0.000000   0.000000
     2  H    0.000000   0.855092   0.000000   0.000000   0.000000   0.000000
     3  H    0.000000   0.000000   0.853657   0.000000   0.000000   0.000000
     4  H    0.000000   0.000000   0.000000   0.853657   0.000000   0.000000
     5  C    0.000000   0.000000   0.000000   0.000000   4.227183   0.000000
     6  H    0.000000   0.000000   0.000000   0.000000   0.000000   0.873464
     7  H    0.000000   0.000000   0.000000   0.000000   0.000000   0.000000
     8  C    0.000000   0.000000   0.000000   0.000000   0.000000   0.000000
     9  H    0.000000   0.000000   0.000000   0.000000   0.000000   0.000000
    10  H    0.000000   0.000000   0.000000   0.000000   0.000000   0.000000
    11  C    0.000000   0.000000   0.000000   0.000000   0.000000   0.000000
    12  H    0.000000   0.000000   0.000000   0.000000   0.000000   0.000000
    13  H    0.000000   0.000000   0.000000   0.000000   0.000000   0.000000
    14  H    0.000000   0.000000   0.000000   0.000000   0.000000   0.000000
               7          8          9         10         11         12
     1  C    0.000000   0.000000   0.000000   0.000000   0.000000   0.000000
     2  H    0.000000   0.000000   0.000000   0.000000   0.000000   0.000000
     3  H    0.000000   0.000000   0.000000   0.000000   0.000000   0.000000
     4  H    0.000000   0.000000   0.000000   0.000000   0.000000   0.000000
     5  C    0.000000   0.000000   0.000000   0.000000   0.000000   0.000000
     6  H    0.000000   0.000000   0.000000   0.000000   0.000000   0.000000
     7  H    0.873464   0.000000   0.000000   0.000000   0.000000   0.000000
     8  C    0.000000   4.227183   0.000000   0.000000   0.000000   0.000000
     9  H    0.000000   0.000000   0.873464   0.000000   0.000000   0.000000
    10  H    0.000000   0.000000   0.000000   0.873464   0.000000   0.000000
    11  C    0.000000   0.000000   0.000000   0.000000   4.463483   0.000000
    12  H    0.000000   0.000000   0.000000   0.000000   0.000000   0.853657
    13  H    0.000000   0.000000   0.000000   0.000000   0.000000   0.000000
    14  H    0.000000   0.000000   0.000000   0.000000   0.000000   0.000000
              13         14
     1  C    0.000000   0.000000
     2  H    0.000000   0.000000
     3  H    0.000000   0.000000
     4  H    0.000000   0.000000
     5  C    0.000000   0.000000
     6  H    0.000000   0.000000
     7  H    0.000000   0.000000
     8  C    0.000000   0.000000
     9  H    0.000000   0.000000
    10  H    0.000000   0.000000
    11  C    0.000000   0.000000
    12  H    0.000000   0.000000
    13  H    0.855092   0.000000
    14  H    0.000000   0.853657
 Mulliken charges:
               1
     1  C   -0.463483
     2  H    0.144908
     3  H    0.146343
     4  H    0.146343
     5  C   -0.227183
     6  H    0.126536
     7  H    0.126536
     8  C   -0.227183
     9  H    0.126536
    10  H    0.126536
    11  C   -0.463483
    12  H    0.146343
    13  H    0.144908
    14  H    0.146343
 Sum of Mulliken charges =  -0.00000
 Mulliken charges with hydrogens summed into heavy atoms:
               1
     1  C   -0.025889
     5  C    0.025889
     8  C    0.025889
    11  C   -0.025889
 Charge=              0.0000 electrons
 Dipole moment (field-independent basis, Debye):
    X=             -0.0000    Y=             -0.0000    Z=              0.0000  Tot=              0.0000
 N-N= 9.120338214195D+01 E-N=-1.303410059626D+02  KE=-3.631236529323D+01
 Leave Link  601 at Fri Mar 29 17:11:39 2024, MaxMem=   134217728 cpu:               0.2 elap:               0.1
 (Enter /home/emanuele/chem_software/gaussian//gdv/l701.exe)
 ... and contract with generalized density number  0.
 Compute integral first derivatives.
 Leave Link  701 at Fri Mar 29 17:11:39 2024, MaxMem=   134217728 cpu:               0.3 elap:               0.2
 (Enter /home/emanuele/chem_software/gaussian//gdv/l702.exe)
 L702 exits ... SP integral derivatives will be done elsewhere.
 Leave Link  702 at Fri Mar 29 17:11:39 2024, MaxMem=   134217728 cpu:               0.0 elap:               0.0
 (Enter /home/emanuele/chem_software/gaussian//gdv/l703.exe)
 Integral derivatives from FoFJK, PRISM(SPDF).
 Compute integral first derivatives, UseDBF=F ICtDFT=           0.
 Calling FoFJK, ICntrl=      2127 FMM=F ISym2X=0 I1Cent= 0 IOpClX= 0 NMat=1 NMatS=1 NMatT=0.
 FoFJK:  IHMeth=40 ICntrl=    2127 DoSepK=F KAlg= 0 I1Cent=           0 FoldK=F
 IRaf=         0 NMat=       1 IRICut=       1 DoRegI=T DoRafI=F ISym2E= 0 IDoP0=3 IntGTp=3.
 FoFCou: FMM=F IPFlag=           0 FMFlag=      100000 FMFlg1=         800
         NFxFlg=           0 DoJE=F BraDBF=F KetDBF=F FulRan=T
         wScrn=  0.000000 ICntrl=      2127 IOpCl=  0 I1Cent=           0 NGrid=           0
         NMat0=    1 NMatS0=      1 NMatT0=    0 NMatD0=    1 NMtDS0=    0 NMtDT0=    0
 Symmetry not used in FoFCou.
 Leave Link  703 at Fri Mar 29 17:11:39 2024, MaxMem=   134217728 cpu:               0.2 elap:               0.1
 (Enter /home/emanuele/chem_software/gaussian//gdv/l716.exe)
 Dipole        =-1.42108547D-14-3.64153152D-14-3.55271368D-15
 -------------------------------------------------------------------
 Center     Atomic                   Forces (Hartrees/Bohr)
 Number     Number              X              Y              Z
 -------------------------------------------------------------------
      1        6          -0.001029910    0.004081518    0.000671838
      2        1           0.000873344   -0.001847053    0.000361294
      3        1           0.000487931    0.000448950   -0.002203871
      4        1          -0.002173936   -0.000491070   -0.000574970
      5        6           0.000833928   -0.001856655    0.000291651
      6        1           0.007581629   -0.001026422    0.000317373
      7        1          -0.001789565   -0.004336015    0.006052413
      8        6          -0.000833928    0.001856655   -0.000291651
      9        1           0.001789565    0.004336015   -0.006052413
     10        1          -0.007581629    0.001026422   -0.000317373
     11        6           0.001029910   -0.004081518   -0.000671838
     12        1           0.002173936    0.000491070    0.000574970
     13        1          -0.000873344    0.001847053   -0.000361294
     14        1          -0.000487931   -0.000448950    0.002203871
 -------------------------------------------------------------------
 Cartesian Forces:  Max     0.007581629 RMS     0.002713006
 Leave Link  716 at Fri Mar 29 17:11:39 2024, MaxMem=   134217728 cpu:               0.2 elap:               0.0
 (Enter /home/emanuele/chem_software/gaussian//gdv/l103.exe)

 GradGradGradGradGradGradGradGradGradGradGradGradGradGradGradGradGradGrad
 Berny optimization.
 FormGI is forming the generalized inverse of G from B-inverse, IUseBI=4.
 Internal  Forces:  Max     0.007604897 RMS     0.002481844
 Search for a local minimum.
 Step number   1 out of a maximum of  100 on scan point     1 out of    11
 All quantities printed in internal units (Hartrees-Bohrs-Radians)
 RMS Force = .24992D-02 SwitMx=.10000D-02 MixMth= 1
 Mixed Optimization -- RFO/linear search
 Second derivative matrix not updated -- first step.
 ITU=  0
     Eigenvalues ---    0.00403   0.00403   0.01636   0.03467   0.04383
     Eigenvalues ---    0.04824   0.05471   0.05471   0.05520   0.05520
     Eigenvalues ---    0.07740   0.08489   0.11592   0.12313   0.16000
     Eigenvalues ---    0.16000   0.16000   0.16000   0.16000   0.16000
     Eigenvalues ---    0.21878   0.21901   0.29508   0.29663   0.29663
     Eigenvalues ---    0.34288   0.34288   0.34288   0.34288   0.34558
     Eigenvalues ---    0.34558   0.34558   0.34558   0.34689   0.34689
     Eigenvalues --- 1000.000001000.000001000.000001000.000001000.00000
     Eigenvalues --- 1000.000001000.000001000.000001000.000001000.00000
     Eigenvalues --- 1000.000001000.000001000.000001000.000001000.00000
     Eigenvalues --- 1000.000001000.000001000.000001000.000001000.00000
     Eigenvalues --- 1000.000001000.000001000.000001000.000001000.00000
     Eigenvalues --- 1000.000001000.000001000.000001000.00000
 RFO step:  Lambda=-1.36813883D-03 EMin= 4.03234549D-03
 Linear search not attempted -- first point.
 Iteration  1 RMS(Cart)=  0.01293329 RMS(Int)=  0.00008224
 Iteration  2 RMS(Cart)=  0.00015512 RMS(Int)=  0.00004350
 Iteration  3 RMS(Cart)=  0.00000001 RMS(Int)=  0.00004350
 Fixing frozen coordinates.
 Iteration  1 RMS(Cart)=  0.00000591 RMS(Int)=  0.00000585
 Iteration  2 RMS(Cart)=  0.00000379 RMS(Int)=  0.00000649
 Iteration  3 RMS(Cart)=  0.00000243 RMS(Int)=  0.00000744
 Iteration  4 RMS(Cart)=  0.00000156 RMS(Int)=  0.00000821
 Iteration  5 RMS(Cart)=  0.00000100 RMS(Int)=  0.00000874
 Iteration  6 RMS(Cart)=  0.00000064 RMS(Int)=  0.00000910
 ITry= 1 IFail=0 DXMaxC= 3.91D-02 DCOld= 1.00D+10 DXMaxT= 3.00D-01 DXLimC= 3.00D+00 Rises=F
 Variable       Old X    -DE/DX   Delta X   Delta X   Delta X     New X
                                 (Linear)    (Quad)   (Total)
    R1        2.06182   0.00203   0.00000   0.00582   0.00582   2.06764
    R2        2.06399   0.00220   0.00000   0.00635   0.00635   2.07033
    R3        2.06398   0.00220   0.00000   0.00635   0.00635   2.07033
    R4        2.88641   0.00094   0.00000   0.00314   0.00314   2.88955
    R5        2.06847   0.00760   0.00000   0.02209   0.02209   2.09057
    R6        2.06847   0.00760   0.00000   0.02209   0.02209   2.09057
    R7        2.88955   0.00606   0.00000   0.02046   0.02046   2.91000
    R8        2.06847   0.00760   0.00000   0.02209   0.02209   2.09057
    R9        2.06847   0.00760   0.00000   0.02209   0.02209   2.09057
   R10        2.88641   0.00094   0.00000   0.00314   0.00314   2.88955
   R11        2.06398   0.00220   0.00000   0.00635   0.00635   2.07033
   R12        2.06182   0.00203   0.00000   0.00582   0.00582   2.06764
   R13        2.06399   0.00220   0.00000   0.00635   0.00635   2.07033
    A1        1.87879  -0.00012   0.00000  -0.00227  -0.00225   1.87654
    A2        1.87879  -0.00012   0.00000  -0.00227  -0.00225   1.87654
    A3        1.94646  -0.00105   0.00000  -0.00810  -0.00809   1.93837
    A4        1.87608  -0.00066   0.00000  -0.00099  -0.00103   1.87504
    A5        1.94028   0.00095   0.00000   0.00667   0.00665   1.94692
    A6        1.94028   0.00095   0.00000   0.00667   0.00665   1.94692
    A7        1.91120   0.00127   0.00000   0.00170   0.00174   1.91293
    A8        1.91120   0.00127   0.00000   0.00278   0.00287   1.91407
    A9        1.97867  -0.00543   0.00000  -0.02577  -0.02574   1.95292
   A10        1.84959  -0.00112   0.00000  -0.00114  -0.00124   1.84834
   A11        1.90436   0.00214   0.00000   0.01177   0.01168   1.91605
   A12        1.90436   0.00214   0.00000   0.01234   0.01227   1.91663
   A13        1.90436   0.00214   0.00000   0.01209   0.01201   1.91637
   A14        1.90436   0.00214   0.00000   0.01180   0.01172   1.91608
   A15        1.97867  -0.00543   0.00000  -0.02560  -0.02556   1.95311
   A16        1.84959  -0.00112   0.00000  -0.00167  -0.00179   1.84780
   A17        1.91120   0.00127   0.00000   0.00277   0.00286   1.91406
   A18        1.91120   0.00127   0.00000   0.00223   0.00229   1.91349
   A19        1.94028   0.00095   0.00000   0.00667   0.00665   1.94692
   A20        1.94646  -0.00105   0.00000  -0.00810  -0.00809   1.93837
   A21        1.94028   0.00095   0.00000   0.00667   0.00665   1.94692
   A22        1.87879  -0.00012   0.00000  -0.00227  -0.00225   1.87654
   A23        1.87608  -0.00066   0.00000  -0.00099  -0.00103   1.87504
   A24        1.87879  -0.00012   0.00000  -0.00227  -0.00225   1.87654
    D1        1.01051   0.00005   0.00000   0.00083   0.00081   1.01132
    D2       -1.01051  -0.00005   0.00000  -0.00033  -0.00030  -1.01081
    D3        3.14159  -0.00000   0.00000  -0.00051  -0.00051   3.14108
    D4       -1.08642   0.00026   0.00000   0.00466   0.00465  -1.08176
    D5       -3.10744   0.00017   0.00000   0.00350   0.00354  -3.10390
    D6        1.04467   0.00022   0.00000   0.00332   0.00333   1.04799
    D7        3.10744  -0.00017   0.00000  -0.00299  -0.00303   3.10441
    D8        1.08642  -0.00026   0.00000  -0.00415  -0.00414   1.08228
    D9       -1.04467  -0.00022   0.00000  -0.00433  -0.00435  -1.04902
   D10       -1.00671  -0.00051   0.00000   0.00000  -0.00000  -1.00671
   D11        1.00671   0.00051   0.00000   0.01110   0.01118   1.01789
   D12        3.14159   0.00000   0.00000   0.00510   0.00513  -3.13647
   D13        1.12818  -0.00101   0.00000  -0.00683  -0.00691   1.12126
   D14        3.14159   0.00000   0.00000   0.00428   0.00427  -3.13732
   D15       -1.00671  -0.00051   0.00000  -0.00173  -0.00179  -1.00849
   D16        3.14159  -0.00000   0.00000   0.00503   0.00506  -3.13654
   D17       -1.12818   0.00101   0.00000   0.01613   0.01624  -1.11194
   D18        1.00671   0.00051   0.00000   0.01013   0.01019   1.01689
   D19        1.04467   0.00022   0.00000   0.00408   0.00410   1.04876
   D20       -3.14159   0.00000   0.00000   0.00025   0.00026  -3.14134
   D21       -1.04467  -0.00022   0.00000  -0.00357  -0.00358  -1.04825
   D22       -1.08642   0.00026   0.00000   0.00411   0.00410  -1.08232
   D23        1.01051   0.00005   0.00000   0.00028   0.00026   1.01077
   D24        3.10744  -0.00017   0.00000  -0.00354  -0.00358   3.10385
   D25       -3.10744   0.00017   0.00000   0.00329   0.00333  -3.10411
   D26       -1.01051  -0.00005   0.00000  -0.00054  -0.00051  -1.01102
   D27        1.08642  -0.00026   0.00000  -0.00436  -0.00435   1.08206
         Item               Value     Threshold  Converged?
 Maximum Force            0.007605     0.000450     NO 
 RMS     Force            0.002499     0.000300     NO 
 Maximum Displacement     0.039131     0.001800     NO 
 RMS     Displacement     0.012999     0.001200     NO 
 Predicted change in Energy=-6.887670D-04
 Lowest energy point so far.  Saving SCF results.
 GradGradGradGradGradGradGradGradGradGradGradGradGradGradGradGradGradGrad

 Leave Link  103 at Fri Mar 29 17:11:39 2024, MaxMem=   134217728 cpu:               0.1 elap:               0.0
 (Enter /home/emanuele/chem_software/gaussian//gdv/l202.exe)
                          Input orientation:                          
 ---------------------------------------------------------------------
 Center     Atomic      Atomic             Coordinates (Angstroms)
 Number     Number       Type             X           Y           Z
 ---------------------------------------------------------------------
      1          6           0       -2.492440    0.358132   -0.006756
      2          1           0       -2.136139   -0.676268   -0.021768
      3          1           0       -2.142260    0.840905   -0.925769
      4          1           0       -3.586924    0.330537   -0.047036
      5          6           0       -1.994568    1.092774    1.238442
      6          1           0       -0.888916    1.068306    1.266576
      7          1           0       -2.332781    0.558425    2.146152
      8          6           0       -2.484747    2.552029    1.278639
      9          1           0       -2.150831    3.084721    0.368367
     10          1           0       -3.590505    2.576375    1.254947
     11          6           0       -1.981067    3.288997    2.520120
     12          1           0       -0.886406    3.316681    2.555224
     13          1           0       -2.337315    4.323419    2.534871
     14          1           0       -2.326930    2.807934    3.441661
 ---------------------------------------------------------------------
                    Distance matrix (angstroms):
                    1          2          3          4          5
     1  C    0.000000
     2  H    1.094148   0.000000
     3  H    1.095573   1.766089   0.000000
     4  H    1.095573   1.766089   1.766268   0.000000
     5  C    1.529082   2.176621   2.183818   2.183817   0.000000
     6  H    2.167258   2.501786   2.535539   3.090166   1.106280
     7  H    2.168091   2.502601   3.090759   2.536707   1.106280
     8  C    2.542730   3.497783   2.811521   2.811981   1.539908
     9  H    2.773391   3.781198   2.590284   3.133761   2.179289
    10  H    2.778173   3.784821   3.140827   2.595951   2.179074
    11  C    3.903405   4.712596   4.230045   4.233386   2.542887
    12  H    4.230378   4.913895   4.452410   4.793915   2.812064
    13  H    4.712476   5.619052   4.913449   4.916389   3.497895
    14  H    4.233261   4.916442   4.793511   4.460503   2.811834
                    6          7          8          9         10
     6  H    0.000000
     7  H    1.765893   0.000000
     8  C    2.179048   2.179479   0.000000
     9  H    2.542663   3.094479   1.106280   0.000000
    10  H    3.094025   2.539339   1.106280   1.765531   0.000000
    11  C    2.774100   2.778413   1.529082   2.168084   2.167668
    12  H    2.591488   3.141229   2.183817   2.536714   3.090457
    13  H    3.781823   3.785011   2.176621   2.502577   2.502169
    14  H    3.134514   2.595894   2.183818   3.090754   2.536131
                   11         12         13         14
    11  C    0.000000
    12  H    1.095573   0.000000
    13  H    1.094148   1.766089   0.000000
    14  H    1.095573   1.766268   1.766089   0.000000
 Symmetry turned off by external request.
 Stoichiometry    C4H10
 Framework group  C1[X(C4H10)]
 Deg. of freedom    36
 Full point group                 C1      NOp   1
 Rotational constants (GHZ):          22.9471755           3.6455326           3.4128703
 Leave Link  202 at Fri Mar 29 17:11:39 2024, MaxMem=   134217728 cpu:               0.1 elap:               0.0
 (Enter /home/emanuele/chem_software/gaussian//gdv/l301.exe)
 Standard basis: VSTO-6G (5D, 7F)
 Ernie: Thresh=  0.10000D-02 Tol=  0.10000D-05 Strict=F.
  NNHCO=     0 NNPyr=     0 NCTC=     0               EPep=         0.000000000
    EC=        65.638750910  ECS=         2.230597764   EG=         0.197538582
   EHC=         0.000329371  EAt=       -21.067501684  AtH=         1.919620419
 EPDDG=         0.000000000  ECC=        68.067216627 EAtT=        22.987122103
    26 basis functions,   156 primitive gaussians,    26 cartesian basis functions
    13 alpha electrons       13 beta electrons
       nuclear repulsion energy        91.0543387300 Hartrees.
 IExCor=       0 DFT=F Ex=HF Corr=None N6=None ScaHFX=  1.000000
 ScaDFX=  1.000000  1.000000  1.000000  1.000000  1.000000  0.000000
 ScaDFX=  0.000000  0.000000  0.000000  0.000000  0.000000  0.000000
 IRadAn=      5 IRanWt=     -1 IRanGd=            0 ICorTp=0 IEmpDi=  4
 Integral buffers will be    131072 words long.
 Regular integral format.
 Two-electron integral symmetry is turned off.
 Leave Link  301 at Fri Mar 29 17:11:39 2024, MaxMem=   134217728 cpu:               0.2 elap:               0.1
 (Enter /home/emanuele/chem_software/gaussian//gdv/l302.exe)
 Do NDO integrals.
 NPDir=0 NMtPBC=     1 NCelOv=     1 NCel=       1 NClECP=     1 NCelD=      1
         NCelK=      1 NCelE2=     1 NClLst=     1 CellRange=     0.0.
 One-electron integrals computed using PRISM.
 NBasis=    26 RedAO= F EigKep=  0.00D+00  NBF=    26
 NBsUse=    26 1.00D-04 EigRej=  0.00D+00 NBFU=    26
 Leave Link  302 at Fri Mar 29 17:11:40 2024, MaxMem=   134217728 cpu:               0.3 elap:               0.1
 (Enter /home/emanuele/chem_software/gaussian//gdv/l303.exe)
 DipDrv:  MaxL=1.
 Leave Link  303 at Fri Mar 29 17:11:40 2024, MaxMem=   134217728 cpu:               0.1 elap:               0.0
 (Enter /home/emanuele/chem_software/gaussian//gdv/l401.exe)
 Initial guess from the checkpoint file:  "0_qm.chk"
 B after Tr=     0.000000    0.000000    0.000000
         Rot=    1.000000    0.000000    0.000000    0.000000 Ang=   0.00 deg.
 AO Guess basis will be translated and rotated to current coordinates.
 JPrj=0 DoOrth=T DoCkMO=T.
 Leave Link  401 at Fri Mar 29 17:11:40 2024, MaxMem=   134217728 cpu:               0.8 elap:               0.2
 (Enter /home/emanuele/chem_software/gaussian//gdv/l502.exe)
 Keep J ints in memory in canonical form, NReq=861102.
 FoFCou: FMM=F IPFlag=           0 FMFlag=           0 FMFlg1=           0
         NFxFlg=           0 DoJE=F BraDBF=F KetDBF=F FulRan=T
         wScrn=  0.000000 ICntrl=       600 IOpCl=  2 I1Cent=           0 NGrid=           0
         NMat0=    1 NMatS0=     50 NMatT0=    0 NMatD0=    1 NMtDS0=    0 NMtDT0=    0
 Symmetry not used in FoFCou.
 Two-electron integral symmetry not used.
 Closed shell SCF:
 Using DIIS extrapolation, IDIIS=  1040.
 Overlap will be assumed to be unity.
 NGot=   134217728 LenX=   134154919 LenY=   134153802
 Requested convergence on RMS density matrix=1.00D-08 within 128 cycles.
 Requested convergence on MAX density matrix=1.00D-06.
 Requested convergence on             energy=1.00D-06.
 No special actions if energy rises.

 Cycle   1  Pass 1  IDiag  1:
 E=-0.412925113542144E-01
 DIIS: error= 6.74D-04 at cycle   1 NSaved=   1.
 NSaved= 1 IEnMin= 1 EnMin=-0.412925113542144E-01 IErMin= 1 ErrMin= 6.74D-04
 ErrMax= 6.74D-04  0.00D+00 EMaxC= 1.00D-01 BMatC= 2.71D-05 BMatP= 2.71D-05
 IDIUse=3 WtCom= 9.93D-01 WtEn= 6.74D-03
 Coeff-Com:  0.100D+01
 Coeff-En:   0.100D+01
 Coeff:      0.100D+01
 RMSDP=3.38D-04 MaxDP=1.98D-03              OVMax= 0.00D+00

 Cycle   2  Pass 1  IDiag  3:
 E=-0.413798404910324E-01 Delta-E=       -0.000087329137 Rises=F Damp=F
 DIIS: error= 2.32D-04 at cycle   2 NSaved=   2.
 NSaved= 2 IEnMin= 2 EnMin=-0.413798404910324E-01 IErMin= 2 ErrMin= 2.32D-04
 ErrMax= 2.32D-04  0.00D+00 EMaxC= 1.00D-01 BMatC= 3.89D-06 BMatP= 2.71D-05
 IDIUse=3 WtCom= 9.98D-01 WtEn= 2.32D-03
 Coeff-Com: -0.537D+00 0.154D+01
 Coeff-En:   0.000D+00 0.100D+01
 Coeff:     -0.535D+00 0.154D+01
 Gap=     0.564 Goal=   None    Shift=    0.000
 RMSDP=2.14D-04 MaxDP=8.92D-04 DE=-8.73D-05 OVMax= 1.70D-03

 Cycle   3  Pass 1  IDiag  3:
 E=-0.413970608674390E-01 Delta-E=       -0.000017220376 Rises=F Damp=F
 DIIS: error= 4.07D-05 at cycle   3 NSaved=   3.
 NSaved= 3 IEnMin= 3 EnMin=-0.413970608674390E-01 IErMin= 3 ErrMin= 4.07D-05
 ErrMax= 4.07D-05  0.00D+00 EMaxC= 1.00D-01 BMatC= 1.12D-07 BMatP= 3.89D-06
 IDIUse=1 WtCom= 1.00D+00 WtEn= 0.00D+00
 Coeff-Com:  0.257D+00-0.820D+00 0.156D+01
 Coeff:      0.257D+00-0.820D+00 0.156D+01
 Gap=     0.564 Goal=   None    Shift=    0.000
 RMSDP=4.64D-05 MaxDP=2.49D-04 DE=-1.72D-05 OVMax= 3.08D-04

 Cycle   4  Pass 1  IDiag  3:
 E=-0.413976773647988E-01 Delta-E=       -0.000000616497 Rises=F Damp=F
 DIIS: error= 6.67D-06 at cycle   4 NSaved=   4.
 NSaved= 4 IEnMin= 4 EnMin=-0.413976773647988E-01 IErMin= 4 ErrMin= 6.67D-06
 ErrMax= 6.67D-06  0.00D+00 EMaxC= 1.00D-01 BMatC= 3.72D-09 BMatP= 1.12D-07
 IDIUse=1 WtCom= 1.00D+00 WtEn= 0.00D+00
 Coeff-Com: -0.141D+00 0.453D+00-0.925D+00 0.161D+01
 Coeff:     -0.141D+00 0.453D+00-0.925D+00 0.161D+01
 Gap=     0.564 Goal=   None    Shift=    0.000
 RMSDP=8.42D-06 MaxDP=4.55D-05 DE=-6.16D-07 OVMax= 6.97D-05

 Cycle   5  Pass 1  IDiag  3:
 E=-0.413976995561711E-01 Delta-E=       -0.000000022191 Rises=F Damp=F
 DIIS: error= 2.56D-06 at cycle   5 NSaved=   5.
 NSaved= 5 IEnMin= 5 EnMin=-0.413976995561711E-01 IErMin= 5 ErrMin= 2.56D-06
 ErrMax= 2.56D-06  0.00D+00 EMaxC= 1.00D-01 BMatC= 3.01D-10 BMatP= 3.72D-09
 IDIUse=1 WtCom= 1.00D+00 WtEn= 0.00D+00
 Coeff-Com:  0.943D-01-0.303D+00 0.623D+00-0.124D+01 0.182D+01
 Coeff:      0.943D-01-0.303D+00 0.623D+00-0.124D+01 0.182D+01
 Gap=     0.564 Goal=   None    Shift=    0.000
 RMSDP=2.85D-06 MaxDP=1.84D-05 DE=-2.22D-08 OVMax= 1.76D-05

 Cycle   6  Pass 1  IDiag  3:
 E=-0.413977016143150E-01 Delta-E=       -0.000000002058 Rises=F Damp=F
 DIIS: error= 5.94D-07 at cycle   6 NSaved=   6.
 NSaved= 6 IEnMin= 6 EnMin=-0.413977016143150E-01 IErMin= 6 ErrMin= 5.94D-07
 ErrMax= 5.94D-07  0.00D+00 EMaxC= 1.00D-01 BMatC= 1.56D-11 BMatP= 3.01D-10
 IDIUse=1 WtCom= 1.00D+00 WtEn= 0.00D+00
 Coeff-Com: -0.451D-01 0.145D+00-0.298D+00 0.607D+00-0.105D+01 0.164D+01
 Coeff:     -0.451D-01 0.145D+00-0.298D+00 0.607D+00-0.105D+01 0.164D+01
 Gap=     0.564 Goal=   None    Shift=    0.000
 RMSDP=6.44D-07 MaxDP=4.94D-06 DE=-2.06D-09 OVMax= 3.74D-06

 Cycle   7  Pass 1  IDiag  3:
 E=-0.413977017166474E-01 Delta-E=       -0.000000000102 Rises=F Damp=F
 DIIS: error= 9.57D-08 at cycle   7 NSaved=   7.
 NSaved= 7 IEnMin= 7 EnMin=-0.413977017166474E-01 IErMin= 7 ErrMin= 9.57D-08
 ErrMax= 9.57D-08  0.00D+00 EMaxC= 1.00D-01 BMatC= 5.80D-13 BMatP= 1.56D-11
 IDIUse=1 WtCom= 1.00D+00 WtEn= 0.00D+00
 Coeff-Com:  0.187D-01-0.599D-01 0.123D+00-0.250D+00 0.442D+00-0.820D+00
 Coeff-Com:  0.155D+01
 Coeff:      0.187D-01-0.599D-01 0.123D+00-0.250D+00 0.442D+00-0.820D+00
 Coeff:      0.155D+01
 Gap=     0.564 Goal=   None    Shift=    0.000
 RMSDP=1.18D-07 MaxDP=8.35D-07 DE=-1.02D-10 OVMax= 8.21D-07

 Cycle   8  Pass 1  IDiag  3:
 E=-0.413977017203280E-01 Delta-E=       -0.000000000004 Rises=F Damp=F
 DIIS: error= 2.76D-08 at cycle   8 NSaved=   8.
 NSaved= 8 IEnMin= 8 EnMin=-0.413977017203280E-01 IErMin= 8 ErrMin= 2.76D-08
 ErrMax= 2.76D-08  0.00D+00 EMaxC= 1.00D-01 BMatC= 2.03D-14 BMatP= 5.80D-13
 IDIUse=1 WtCom= 1.00D+00 WtEn= 0.00D+00
 Coeff-Com: -0.685D-02 0.219D-01-0.447D-01 0.914D-01-0.163D+00 0.316D+00
 Coeff-Com: -0.712D+00 0.150D+01
 Coeff:     -0.685D-02 0.219D-01-0.447D-01 0.914D-01-0.163D+00 0.316D+00
 Coeff:     -0.712D+00 0.150D+01
 Gap=     0.564 Goal=   None    Shift=    0.000
 RMSDP=1.93D-08 MaxDP=1.38D-07 DE=-3.68D-12 OVMax= 9.28D-08

 Cycle   9  Pass 1  IDiag  3:
 E=-0.413977017202853E-01 Delta-E=        0.000000000000 Rises=F Damp=F
 DIIS: error= 8.78D-09 at cycle   9 NSaved=   9.
 NSaved= 9 IEnMin= 8 EnMin=-0.413977017203280E-01 IErMin= 9 ErrMin= 8.78D-09
 ErrMax= 8.78D-09  0.00D+00 EMaxC= 1.00D-01 BMatC= 2.74D-15 BMatP= 2.03D-14
 IDIUse=1 WtCom= 1.00D+00 WtEn= 0.00D+00
 Coeff-Com:  0.251D-02-0.803D-02 0.163D-01-0.334D-01 0.597D-01-0.121D+00
 Coeff-Com:  0.308D+00-0.881D+00 0.166D+01
 Coeff:      0.251D-02-0.803D-02 0.163D-01-0.334D-01 0.597D-01-0.121D+00
 Coeff:      0.308D+00-0.881D+00 0.166D+01
 Gap=     0.564 Goal=   None    Shift=    0.000
 RMSDP=8.05D-09 MaxDP=6.53D-08 DE= 4.26D-14 OVMax= 6.00D-08

 Cycle  10  Pass 2  IDiag  1:
 SCF Done:  E(RPM6) = -0.413977017203E-01 A.U. after   10 cycles
            NFock=  9  Conv=0.81D-08     -V/T= 0.9989
 KE=-3.627726298372D+01 PE=-1.301514259436D+02 EE= 7.533295249560D+01
 Leave Link  502 at Fri Mar 29 17:11:40 2024, MaxMem=   134217728 cpu:               0.2 elap:               0.1
 (Enter /home/emanuele/chem_software/gaussian//gdv/l701.exe)
 ... and contract with generalized density number  0.
 Compute integral first derivatives.
 Leave Link  701 at Fri Mar 29 17:11:40 2024, MaxMem=   134217728 cpu:               0.2 elap:               0.1
 (Enter /home/emanuele/chem_software/gaussian//gdv/l702.exe)
 L702 exits ... SP integral derivatives will be done elsewhere.
 Leave Link  702 at Fri Mar 29 17:11:40 2024, MaxMem=   134217728 cpu:               0.2 elap:               0.0
 (Enter /home/emanuele/chem_software/gaussian//gdv/l703.exe)
 Integral derivatives from FoFJK, PRISM(SPDF).
 Compute integral first derivatives, UseDBF=F ICtDFT=           0.
 Calling FoFJK, ICntrl=      2127 FMM=F ISym2X=0 I1Cent= 0 IOpClX= 0 NMat=1 NMatS=1 NMatT=0.
 FoFJK:  IHMeth=40 ICntrl=    2127 DoSepK=F KAlg= 0 I1Cent=           0 FoldK=F
 IRaf=         0 NMat=       1 IRICut=       1 DoRegI=T DoRafI=F ISym2E= 0 IDoP0=3 IntGTp=3.
 FoFCou: FMM=F IPFlag=           0 FMFlag=      100000 FMFlg1=         800
         NFxFlg=           0 DoJE=F BraDBF=F KetDBF=F FulRan=T
         wScrn=  0.000000 ICntrl=      2127 IOpCl=  0 I1Cent=           0 NGrid=           0
         NMat0=    1 NMatS0=      1 NMatT0=    0 NMatD0=    1 NMtDS0=    0 NMtDT0=    0
 Symmetry not used in FoFCou.
 Leave Link  703 at Fri Mar 29 17:11:40 2024, MaxMem=   134217728 cpu:               0.2 elap:               0.0
 (Enter /home/emanuele/chem_software/gaussian//gdv/l716.exe)
 Dipole        = 1.42756001D-04 7.16638338D-05-2.79059654D-04
 -------------------------------------------------------------------
 Center     Atomic                   Forces (Hartrees/Bohr)
 Number     Number              X              Y              Z
 -------------------------------------------------------------------
      1        6           0.000054054    0.001576326    0.001135631
      2        1           0.000153824   -0.000645074   -0.000117999
      3        1          -0.000005046    0.000010574   -0.000090975
      4        1          -0.000079321   -0.000014174   -0.000049599
      5        6          -0.001152830    0.001850725   -0.001038343
      6        1           0.000383764    0.000242273    0.000226416
      7        1          -0.000098522    0.000112492    0.000417131
      8        6           0.001165452   -0.001847310    0.000996341
      9        1           0.000128713   -0.000077012   -0.000416068
     10        1          -0.000372842   -0.000246140   -0.000178124
     11        6          -0.000107620   -0.001607027   -0.001136133
     12        1           0.000078627    0.000015030    0.000046790
     13        1          -0.000154727    0.000644178    0.000117170
     14        1           0.000006474   -0.000014860    0.000087764
 -------------------------------------------------------------------
 Cartesian Forces:  Max     0.001850725 RMS     0.000708435
 Leave Link  716 at Fri Mar 29 17:11:40 2024, MaxMem=   134217728 cpu:               0.1 elap:               0.0
 (Enter /home/emanuele/chem_software/gaussian//gdv/l103.exe)

 GradGradGradGradGradGradGradGradGradGradGradGradGradGradGradGradGradGrad
 Berny optimization.
 Using GEDIIS/GDIIS optimizer.
 FormGI is forming the generalized inverse of G from B-inverse, IUseBI=4.
 Internal  Forces:  Max     0.003218484 RMS     0.000515919
 Search for a local minimum.
 Step number   2 out of a maximum of  100 on scan point     1 out of    11
 All quantities printed in internal units (Hartrees-Bohrs-Radians)
 RMS Force = .52000D-03 SwitMx=.10000D-02 MixMth= 2
 Mixed Optimization -- En-DIIS/RFO-DIIS
 Update second derivatives using D2CorX and points    1    2
 DE= -6.84D-04 DEPred=-6.89D-04 R= 9.93D-01
 TightC=F SS=  1.41D+00  RLast= 7.52D-02 DXNew= 5.0454D-01 2.2567D-01
 Trust test= 9.93D-01 RLast= 7.52D-02 DXMaxT set to 3.00D-01
 ITU=  1  0
 Use linear search instead of GDIIS.
     Eigenvalues ---    0.00403   0.00403   0.01668   0.03590   0.04422
     Eigenvalues ---    0.04839   0.05452   0.05462   0.05503   0.05503
     Eigenvalues ---    0.07617   0.08350   0.11411   0.12144   0.15923
     Eigenvalues ---    0.16000   0.16000   0.16000   0.16000   0.16051
     Eigenvalues ---    0.19710   0.21850   0.29461   0.29663   0.30109
     Eigenvalues ---    0.34283   0.34288   0.34288   0.34389   0.34537
     Eigenvalues ---    0.34558   0.34558   0.34558   0.34689   0.37346
     Eigenvalues --- 1000.000001000.000001000.000001000.000001000.00000
     Eigenvalues --- 1000.000001000.000001000.000001000.000001000.00000
     Eigenvalues --- 1000.000001000.000001000.000001000.000001000.00000
     Eigenvalues --- 1000.000001000.000001000.000001000.000001000.00000
     Eigenvalues --- 1000.000001000.000001000.000001000.000001000.00000
     Eigenvalues --- 1000.000001000.000001000.000001000.00000
 RFO step:  Lambda=-6.53696898D-05 EMin= 4.03234537D-03
 Quartic linear search produced a step of  0.00576.
 Iteration  1 RMS(Cart)=  0.00569444 RMS(Int)=  0.00000617
 Iteration  2 RMS(Cart)=  0.00000775 RMS(Int)=  0.00000343
 Iteration  3 RMS(Cart)=  0.00000000 RMS(Int)=  0.00000343
 Fixing frozen coordinates.
 Iteration  1 RMS(Cart)=  0.00000016 RMS(Int)=  0.00000016
 ITry= 1 IFail=0 DXMaxC= 1.23D-02 DCOld= 1.00D+10 DXMaxT= 3.00D-01 DXLimC= 3.00D+00 Rises=F
 Variable       Old X    -DE/DX   Delta X   Delta X   Delta X     New X
                                 (Linear)    (Quad)   (Total)
    R1        2.06764   0.00066   0.00003   0.00216   0.00220   2.06984
    R2        2.07033   0.00008   0.00004   0.00050   0.00054   2.07087
    R3        2.07033   0.00008   0.00004   0.00051   0.00054   2.07088
    R4        2.88955  -0.00120   0.00002  -0.00393  -0.00392   2.88563
    R5        2.09057   0.00038   0.00013   0.00206   0.00219   2.09275
    R6        2.09057   0.00032   0.00013   0.00187   0.00199   2.09256
    R7        2.91000  -0.00322   0.00012  -0.01010  -0.00998   2.90002
    R8        2.09057   0.00034   0.00013   0.00194   0.00207   2.09264
    R9        2.09057   0.00037   0.00013   0.00202   0.00215   2.09272
   R10        2.88955  -0.00124   0.00002  -0.00407  -0.00405   2.88549
   R11        2.07033   0.00008   0.00004   0.00050   0.00054   2.07087
   R12        2.06764   0.00066   0.00003   0.00216   0.00220   2.06984
   R13        2.07033   0.00008   0.00004   0.00050   0.00053   2.07087
    A1        1.87654  -0.00009  -0.00001  -0.00051  -0.00052   1.87602
    A2        1.87654  -0.00009  -0.00001  -0.00052  -0.00053   1.87601
    A3        1.93837   0.00017  -0.00005   0.00086   0.00081   1.93918
    A4        1.87504  -0.00005  -0.00001  -0.00062  -0.00063   1.87442
    A5        1.94692   0.00002   0.00004   0.00033   0.00037   1.94729
    A6        1.94692   0.00002   0.00004   0.00035   0.00039   1.94731
    A7        1.91293   0.00045   0.00001   0.00372   0.00373   1.91666
    A8        1.91407   0.00039   0.00002   0.00288   0.00289   1.91696
    A9        1.95292  -0.00074  -0.00015  -0.00479  -0.00494   1.94799
   A10        1.84834  -0.00013  -0.00001   0.00032   0.00030   1.84864
   A11        1.91605   0.00004   0.00007  -0.00059  -0.00051   1.91553
   A12        1.91663   0.00003   0.00007  -0.00123  -0.00116   1.91548
   A13        1.91637   0.00006   0.00007  -0.00085  -0.00078   1.91560
   A14        1.91608   0.00005   0.00007  -0.00073  -0.00066   1.91542
   A15        1.95311  -0.00076  -0.00015  -0.00492  -0.00506   1.94804
   A16        1.84780  -0.00012  -0.00001   0.00052   0.00050   1.84830
   A17        1.91406   0.00039   0.00002   0.00298   0.00299   1.91705
   A18        1.91349   0.00042   0.00001   0.00333   0.00334   1.91683
   A19        1.94692   0.00002   0.00004   0.00034   0.00038   1.94730
   A20        1.93837   0.00017  -0.00005   0.00086   0.00082   1.93919
   A21        1.94692   0.00001   0.00004   0.00030   0.00033   1.94726
   A22        1.87654  -0.00009  -0.00001  -0.00051  -0.00052   1.87602
   A23        1.87504  -0.00005  -0.00001  -0.00061  -0.00062   1.87442
   A24        1.87654  -0.00008  -0.00001  -0.00048  -0.00050   1.87604
    D1        1.01132   0.00015   0.00000   0.00204   0.00205   1.01337
    D2       -1.01081  -0.00017  -0.00000  -0.00210  -0.00211  -1.01292
    D3        3.14108   0.00002  -0.00000   0.00067   0.00067  -3.14143
    D4       -1.08176   0.00013   0.00003   0.00188   0.00191  -1.07985
    D5       -3.10390  -0.00019   0.00002  -0.00226  -0.00225  -3.10615
    D6        1.04799   0.00000   0.00002   0.00051   0.00053   1.04853
    D7        3.10441   0.00017  -0.00002   0.00220   0.00219   3.10660
    D8        1.08228  -0.00015  -0.00002  -0.00194  -0.00197   1.08030
    D9       -1.04902   0.00004  -0.00003   0.00084   0.00081  -1.04821
   D10       -1.00671  -0.00000  -0.00000   0.00000   0.00000  -1.00671
   D11        1.01789  -0.00008   0.00006  -0.00028  -0.00022   1.01767
   D12       -3.13647  -0.00002   0.00003   0.00013   0.00016  -3.13631
   D13        1.12126   0.00010  -0.00004   0.00110   0.00106   1.12232
   D14       -3.13732   0.00002   0.00002   0.00082   0.00084  -3.13648
   D15       -1.00849   0.00008  -0.00001   0.00123   0.00122  -1.00728
   D16       -3.13654  -0.00002   0.00003   0.00043   0.00046  -3.13607
   D17       -1.11194  -0.00009   0.00009   0.00015   0.00024  -1.11169
   D18        1.01689  -0.00004   0.00006   0.00056   0.00062   1.01751
   D19        1.04876  -0.00002   0.00002  -0.00016  -0.00014   1.04862
   D20       -3.14134  -0.00000   0.00000   0.00001   0.00001  -3.14133
   D21       -1.04825   0.00001  -0.00002   0.00018   0.00016  -1.04809
   D22       -1.08232   0.00015   0.00002   0.00215   0.00218  -1.08014
   D23        1.01077   0.00016   0.00000   0.00232   0.00233   1.01310
   D24        3.10385   0.00018  -0.00002   0.00249   0.00247   3.10633
   D25       -3.10411  -0.00018   0.00002  -0.00208  -0.00206  -3.10617
   D26       -1.01102  -0.00016  -0.00000  -0.00190  -0.00191  -1.01293
   D27        1.08206  -0.00014  -0.00003  -0.00173  -0.00176   1.08030
         Item               Value     Threshold  Converged?
 Maximum Force            0.003218     0.000450     NO 
 RMS     Force            0.000520     0.000300     NO 
 Maximum Displacement     0.012332     0.001800     NO 
 RMS     Displacement     0.005692     0.001200     NO 
 Predicted change in Energy=-3.273162D-05
 Lowest energy point so far.  Saving SCF results.
 GradGradGradGradGradGradGradGradGradGradGradGradGradGradGradGradGradGrad

 Leave Link  103 at Fri Mar 29 17:11:40 2024, MaxMem=   134217728 cpu:               0.1 elap:               0.0
 (Enter /home/emanuele/chem_software/gaussian//gdv/l202.exe)
                          Input orientation:                          
 ---------------------------------------------------------------------
 Center     Atomic      Atomic             Coordinates (Angstroms)
 Number     Number       Type             X           Y           Z
 ---------------------------------------------------------------------
      1          6           0       -2.492099    0.363684   -0.003194
      2          1           0       -2.136829   -0.672273   -0.019973
      3          1           0       -2.141869    0.846854   -0.922318
      4          1           0       -3.586886    0.337063   -0.043720
      5          6           0       -1.993947    1.095767    1.240854
      6          1           0       -0.887136    1.074160    1.271198
      7          1           0       -2.333179    0.563826    2.150883
      8          6           0       -2.485461    2.549121    1.276196
      9          1           0       -2.151107    3.079625    0.363478
     10          1           0       -3.592390    2.570428    1.251171
     11          6           0       -1.981245    3.283401    2.516412
     12          1           0       -0.886277    3.310608    2.551206
     13          1           0       -2.336937    4.319209    2.533388
     14          1           0       -2.326467    2.801495    3.438088
 ---------------------------------------------------------------------
                    Distance matrix (angstroms):
                    1          2          3          4          5
     1  C    0.000000
     2  H    1.095311   0.000000
     3  H    1.095857   1.766918   0.000000
     4  H    1.095860   1.766915   1.766322   0.000000
     5  C    1.527009   2.176251   2.182465   2.182480   0.000000
     6  H    2.169045   2.505770   2.537230   3.092082   1.107438
     7  H    2.169184   2.505815   3.092130   2.537614   1.107335
     8  C    2.532394   3.489839   2.801648   2.801521   1.534625
     9  H    2.761713   3.771469   2.576552   3.122326   2.174898
    10  H    2.766549   3.774861   3.130299   2.581607   2.174800
    11  C    3.890261   4.701576   4.217514   4.220577   2.532381
    12  H    4.217581   4.902875   4.439816   4.782144   2.801692
    13  H    4.701542   5.610222   4.902775   4.905237   3.489823
    14  H    4.220519   4.905223   4.782033   4.448041   2.801413
                    6          7          8          9         10
     6  H    0.000000
     7  H    1.767860   0.000000
     8  C    2.174897   2.174779   0.000000
     9  H    2.538399   3.091474   1.107376   0.000000
    10  H    3.091541   2.534078   1.107418   1.767648   0.000000
    11  C    2.761952   2.766507   1.526937   2.169217   2.169091
    12  H    2.576844   3.130271   2.182407   2.537578   3.092088
    13  H    3.771656   3.774815   2.176190   2.505915   2.505689
    14  H    3.122623   2.581493   2.182372   3.092141   2.537432
                   11         12         13         14
    11  C    0.000000
    12  H    1.095859   0.000000
    13  H    1.095310   1.766921   0.000000
    14  H    1.095856   1.766326   1.766932   0.000000
 Symmetry turned off by external request.
 Stoichiometry    C4H10
 Framework group  C1[X(C4H10)]
 Deg. of freedom    36
 Full point group                 C1      NOp   1
 Rotational constants (GHZ):          22.9214148           3.6695822           3.4337110
 Leave Link  202 at Fri Mar 29 17:11:40 2024, MaxMem=   134217728 cpu:               0.1 elap:               0.0
 (Enter /home/emanuele/chem_software/gaussian//gdv/l301.exe)
 Standard basis: VSTO-6G (5D, 7F)
 Ernie: Thresh=  0.10000D-02 Tol=  0.10000D-05 Strict=F.
  NNHCO=     0 NNPyr=     0 NCTC=     0               EPep=         0.000000000
    EC=        65.723611196  ECS=         2.231612614   EG=         0.198315438
   EHC=         0.000327754  EAt=       -21.067501684  AtH=         1.919620419
 EPDDG=         0.000000000  ECC=        68.153867003 EAtT=        22.987122103
    26 basis functions,   156 primitive gaussians,    26 cartesian basis functions
    13 alpha electrons       13 beta electrons
       nuclear repulsion energy        91.1409891064 Hartrees.
 IExCor=       0 DFT=F Ex=HF Corr=None N6=None ScaHFX=  1.000000
 ScaDFX=  1.000000  1.000000  1.000000  1.000000  1.000000  0.000000
 ScaDFX=  0.000000  0.000000  0.000000  0.000000  0.000000  0.000000
 IRadAn=      5 IRanWt=     -1 IRanGd=            0 ICorTp=0 IEmpDi=  4
 Integral buffers will be    131072 words long.
 Regular integral format.
 Two-electron integral symmetry is turned off.
 Leave Link  301 at Fri Mar 29 17:11:40 2024, MaxMem=   134217728 cpu:               0.2 elap:               0.1
 (Enter /home/emanuele/chem_software/gaussian//gdv/l302.exe)
 Do NDO integrals.
 NPDir=0 NMtPBC=     1 NCelOv=     1 NCel=       1 NClECP=     1 NCelD=      1
         NCelK=      1 NCelE2=     1 NClLst=     1 CellRange=     0.0.
 One-electron integrals computed using PRISM.
 NBasis=    26 RedAO= F EigKep=  0.00D+00  NBF=    26
 NBsUse=    26 1.00D-04 EigRej=  0.00D+00 NBFU=    26
 Leave Link  302 at Fri Mar 29 17:11:40 2024, MaxMem=   134217728 cpu:               0.3 elap:               0.1
 (Enter /home/emanuele/chem_software/gaussian//gdv/l303.exe)
 DipDrv:  MaxL=1.
 Leave Link  303 at Fri Mar 29 17:11:40 2024, MaxMem=   134217728 cpu:               0.1 elap:               0.0
 (Enter /home/emanuele/chem_software/gaussian//gdv/l401.exe)
 Initial guess from the checkpoint file:  "0_qm.chk"
 B after Tr=     0.000000    0.000000    0.000000
         Rot=    1.000000    0.000000    0.000000    0.000000 Ang=   0.00 deg.
 AO Guess basis will be translated and rotated to current coordinates.
 JPrj=0 DoOrth=T DoCkMO=T.
 Leave Link  401 at Fri Mar 29 17:11:41 2024, MaxMem=   134217728 cpu:               0.8 elap:               0.2
 (Enter /home/emanuele/chem_software/gaussian//gdv/l502.exe)
 Keep J ints in memory in canonical form, NReq=861102.
 FoFCou: FMM=F IPFlag=           0 FMFlag=           0 FMFlg1=           0
         NFxFlg=           0 DoJE=F BraDBF=F KetDBF=F FulRan=T
         wScrn=  0.000000 ICntrl=       600 IOpCl=  2 I1Cent=           0 NGrid=           0
         NMat0=    1 NMatS0=     50 NMatT0=    0 NMatD0=    1 NMtDS0=    0 NMtDT0=    0
 Symmetry not used in FoFCou.
 Two-electron integral symmetry not used.
 Closed shell SCF:
 Using DIIS extrapolation, IDIIS=  1040.
 Overlap will be assumed to be unity.
 NGot=   134217728 LenX=   134154919 LenY=   134153802
 Requested convergence on RMS density matrix=1.00D-08 within 128 cycles.
 Requested convergence on MAX density matrix=1.00D-06.
 Requested convergence on             energy=1.00D-06.
 No special actions if energy rises.

 Cycle   1  Pass 1  IDiag  1:
 E=-0.414051505639605E-01
 DIIS: error= 1.88D-04 at cycle   1 NSaved=   1.
 NSaved= 1 IEnMin= 1 EnMin=-0.414051505639605E-01 IErMin= 1 ErrMin= 1.88D-04
 ErrMax= 1.88D-04  0.00D+00 EMaxC= 1.00D-01 BMatC= 3.46D-06 BMatP= 3.46D-06
 IDIUse=3 WtCom= 9.98D-01 WtEn= 1.88D-03
 Coeff-Com:  0.100D+01
 Coeff-En:   0.100D+01
 Coeff:      0.100D+01
 RMSDP=1.24D-04 MaxDP=5.48D-04              OVMax= 0.00D+00

 Cycle   2  Pass 1  IDiag  3:
 E=-0.414165135949531E-01 Delta-E=       -0.000011363031 Rises=F Damp=F
 DIIS: error= 8.15D-05 at cycle   2 NSaved=   2.
 NSaved= 2 IEnMin= 2 EnMin=-0.414165135949531E-01 IErMin= 2 ErrMin= 8.15D-05
 ErrMax= 8.15D-05  0.00D+00 EMaxC= 1.00D-01 BMatC= 4.74D-07 BMatP= 3.46D-06
 IDIUse=1 WtCom= 1.00D+00 WtEn= 0.00D+00
 Coeff-Com: -0.510D+00 0.151D+01
 Coeff:     -0.510D+00 0.151D+01
 Gap=     0.564 Goal=   None    Shift=    0.000
 RMSDP=7.61D-05 MaxDP=3.72D-04 DE=-1.14D-05 OVMax= 6.68D-04

 Cycle   3  Pass 1  IDiag  3:
 E=-0.414186534236620E-01 Delta-E=       -0.000002139829 Rises=F Damp=F
 DIIS: error= 1.57D-05 at cycle   3 NSaved=   3.
 NSaved= 3 IEnMin= 3 EnMin=-0.414186534236620E-01 IErMin= 3 ErrMin= 1.57D-05
 ErrMax= 1.57D-05  0.00D+00 EMaxC= 1.00D-01 BMatC= 1.41D-08 BMatP= 4.74D-07
 IDIUse=1 WtCom= 1.00D+00 WtEn= 0.00D+00
 Coeff-Com:  0.220D+00-0.738D+00 0.152D+01
 Coeff:      0.220D+00-0.738D+00 0.152D+01
 Gap=     0.564 Goal=   None    Shift=    0.000
 RMSDP=1.68D-05 MaxDP=8.00D-05 DE=-2.14D-06 OVMax= 1.75D-04

 Cycle   4  Pass 1  IDiag  3:
 E=-0.414187333642246E-01 Delta-E=       -0.000000079941 Rises=F Damp=F
 DIIS: error= 2.20D-06 at cycle   4 NSaved=   4.
 NSaved= 4 IEnMin= 4 EnMin=-0.414187333642246E-01 IErMin= 4 ErrMin= 2.20D-06
 ErrMax= 2.20D-06  0.00D+00 EMaxC= 1.00D-01 BMatC= 3.73D-10 BMatP= 1.41D-08
 IDIUse=1 WtCom= 1.00D+00 WtEn= 0.00D+00
 Coeff-Com: -0.777D-01 0.264D+00-0.625D+00 0.144D+01
 Coeff:     -0.777D-01 0.264D+00-0.625D+00 0.144D+01
 Gap=     0.564 Goal=   None    Shift=    0.000
 RMSDP=2.50D-06 MaxDP=9.74D-06 DE=-7.99D-08 OVMax= 2.48D-05

 Cycle   5  Pass 1  IDiag  3:
 E=-0.414187352360784E-01 Delta-E=       -0.000000001872 Rises=F Damp=F
 DIIS: error= 7.03D-07 at cycle   5 NSaved=   5.
 NSaved= 5 IEnMin= 5 EnMin=-0.414187352360784E-01 IErMin= 5 ErrMin= 7.03D-07
 ErrMax= 7.03D-07  0.00D+00 EMaxC= 1.00D-01 BMatC= 1.49D-11 BMatP= 3.73D-10
 IDIUse=1 WtCom= 1.00D+00 WtEn= 0.00D+00
 Coeff-Com:  0.329D-01-0.112D+00 0.269D+00-0.685D+00 0.150D+01
 Coeff:      0.329D-01-0.112D+00 0.269D+00-0.685D+00 0.150D+01
 Gap=     0.564 Goal=   None    Shift=    0.000
 RMSDP=4.74D-07 MaxDP=3.35D-06 DE=-1.87D-09 OVMax= 2.74D-06

 Cycle   6  Pass 1  IDiag  3:
 E=-0.414187353193398E-01 Delta-E=       -0.000000000083 Rises=F Damp=F
 DIIS: error= 2.34D-07 at cycle   6 NSaved=   6.
 NSaved= 6 IEnMin= 6 EnMin=-0.414187353193398E-01 IErMin= 6 ErrMin= 2.34D-07
 ErrMax= 2.34D-07  0.00D+00 EMaxC= 1.00D-01 BMatC= 1.59D-12 BMatP= 1.49D-11
 IDIUse=1 WtCom= 1.00D+00 WtEn= 0.00D+00
 Coeff-Com: -0.190D-01 0.646D-01-0.155D+00 0.402D+00-0.109D+01 0.180D+01
 Coeff:     -0.190D-01 0.646D-01-0.155D+00 0.402D+00-0.109D+01 0.180D+01
 Gap=     0.564 Goal=   None    Shift=    0.000
 RMSDP=2.08D-07 MaxDP=1.74D-06 DE=-8.33D-11 OVMax= 1.43D-06

 Cycle   7  Pass 1  IDiag  3:
 E=-0.414187353306659E-01 Delta-E=       -0.000000000011 Rises=F Damp=F
 DIIS: error= 5.52D-08 at cycle   7 NSaved=   7.
 NSaved= 7 IEnMin= 7 EnMin=-0.414187353306659E-01 IErMin= 7 ErrMin= 5.52D-08
 ErrMax= 5.52D-08  0.00D+00 EMaxC= 1.00D-01 BMatC= 9.44D-14 BMatP= 1.59D-12
 IDIUse=1 WtCom= 1.00D+00 WtEn= 0.00D+00
 Coeff-Com:  0.103D-01-0.351D-01 0.843D-01-0.220D+00 0.614D+00-0.117D+01
 Coeff-Com:  0.172D+01
 Coeff:      0.103D-01-0.351D-01 0.843D-01-0.220D+00 0.614D+00-0.117D+01
 Coeff:      0.172D+01
 Gap=     0.564 Goal=   None    Shift=    0.000
 RMSDP=5.37D-08 MaxDP=4.46D-07 DE=-1.13D-11 OVMax= 3.71D-07

 Cycle   8  Pass 1  IDiag  3:
 E=-0.414187353313622E-01 Delta-E=       -0.000000000001 Rises=F Damp=F
 DIIS: error= 1.02D-08 at cycle   8 NSaved=   8.
 NSaved= 8 IEnMin= 8 EnMin=-0.414187353313622E-01 IErMin= 8 ErrMin= 1.02D-08
 ErrMax= 1.02D-08  0.00D+00 EMaxC= 1.00D-01 BMatC= 3.72D-15 BMatP= 9.44D-14
 IDIUse=1 WtCom= 1.00D+00 WtEn= 0.00D+00
 Coeff-Com: -0.352D-02 0.120D-01-0.288D-01 0.751D-01-0.212D+00 0.421D+00
 Coeff-Com: -0.758D+00 0.149D+01
 Coeff:     -0.352D-02 0.120D-01-0.288D-01 0.751D-01-0.212D+00 0.421D+00
 Coeff:     -0.758D+00 0.149D+01
 Gap=     0.564 Goal=   None    Shift=    0.000
 RMSDP=9.33D-09 MaxDP=7.98D-08 DE=-6.96D-13 OVMax= 4.84D-08

 Cycle   9  Pass 2  IDiag  1:
 SCF Done:  E(RPM6) = -0.414187353314E-01 A.U. after    9 cycles
            NFock=  8  Conv=0.93D-08     -V/T= 0.9989
 KE=-3.627900545813D+01 PE=-1.303220419071D+02 EE= 7.541863952348D+01
 Leave Link  502 at Fri Mar 29 17:11:41 2024, MaxMem=   134217728 cpu:               0.2 elap:               0.0
 (Enter /home/emanuele/chem_software/gaussian//gdv/l701.exe)
 ... and contract with generalized density number  0.
 Compute integral first derivatives.
 Leave Link  701 at Fri Mar 29 17:11:41 2024, MaxMem=   134217728 cpu:               0.2 elap:               0.1
 (Enter /home/emanuele/chem_software/gaussian//gdv/l702.exe)
 L702 exits ... SP integral derivatives will be done elsewhere.
 Leave Link  702 at Fri Mar 29 17:11:41 2024, MaxMem=   134217728 cpu:               0.1 elap:               0.0
 (Enter /home/emanuele/chem_software/gaussian//gdv/l703.exe)
 Integral derivatives from FoFJK, PRISM(SPDF).
 Compute integral first derivatives, UseDBF=F ICtDFT=           0.
 Calling FoFJK, ICntrl=      2127 FMM=F ISym2X=0 I1Cent= 0 IOpClX= 0 NMat=1 NMatS=1 NMatT=0.
 FoFJK:  IHMeth=40 ICntrl=    2127 DoSepK=F KAlg= 0 I1Cent=           0 FoldK=F
 IRaf=         0 NMat=       1 IRICut=       1 DoRegI=T DoRafI=F ISym2E= 0 IDoP0=3 IntGTp=3.
 FoFCou: FMM=F IPFlag=           0 FMFlag=      100000 FMFlg1=         800
         NFxFlg=           0 DoJE=F BraDBF=F KetDBF=F FulRan=T
         wScrn=  0.000000 ICntrl=      2127 IOpCl=  0 I1Cent=           0 NGrid=           0
         NMat0=    1 NMatS0=      1 NMatT0=    0 NMatD0=    1 NMtDS0=    0 NMtDT0=    0
 Symmetry not used in FoFCou.
 Leave Link  703 at Fri Mar 29 17:11:41 2024, MaxMem=   134217728 cpu:               0.1 elap:               0.0
 (Enter /home/emanuele/chem_software/gaussian//gdv/l716.exe)
 Dipole        = 6.03261055D-05 4.66078019D-05-1.31047332D-04
 -------------------------------------------------------------------
 Center     Atomic                   Forces (Hartrees/Bohr)
 Number     Number              X              Y              Z
 -------------------------------------------------------------------
      1        6           0.000076277   -0.000122771    0.000097036
      2        1          -0.000031278   -0.000176738   -0.000153490
      3        1          -0.000012218   -0.000088495   -0.000050919
      4        1           0.000006161   -0.000079299   -0.000060310
      5        6           0.000009386   -0.000406767   -0.000321366
      6        1          -0.000023520   -0.000190732    0.000094761
      7        1           0.000168245   -0.000140883    0.000001713
      8        6          -0.000022137    0.000397855    0.000256170
      9        1          -0.000139236    0.000142049    0.000023195
     10        1           0.000010433    0.000186800   -0.000092797
     11        6          -0.000086962    0.000126495   -0.000069094
     12        1          -0.000002156    0.000084443    0.000063099
     13        1           0.000032408    0.000179560    0.000156302
     14        1           0.000014598    0.000088483    0.000055699
 -------------------------------------------------------------------
 Cartesian Forces:  Max     0.000406767 RMS     0.000145238
 Leave Link  716 at Fri Mar 29 17:11:41 2024, MaxMem=   134217728 cpu:               0.1 elap:               0.0
 (Enter /home/emanuele/chem_software/gaussian//gdv/l103.exe)

 GradGradGradGradGradGradGradGradGradGradGradGradGradGradGradGradGradGrad
 Berny optimization.
 Using GEDIIS/GDIIS optimizer.
[...]
           A10        105.82259 105.45155 105.31505 105.78404 105.75256
           A11        109.77206 110.05555 110.31945 109.70960 109.05274
           A12        109.76566 109.72477 109.40641 109.13626 108.84835
           A13        109.77443 110.36713 110.20045 109.72949 109.52986
           A14        109.76374 109.31496 109.62217 109.10316 108.15733
           A15        111.73447 112.43874 112.54158 112.89961 114.82780
           A16        105.80951 104.70101 105.70086 105.72257 104.47595
           A17        109.79692 110.10952 109.00200 109.74263 110.43649
           A18        109.78999 109.61930 109.54247 109.38895 108.87467
           A19        111.59078 111.55297 111.31761 111.41743 111.67911
           A20        111.16552 111.20885 111.26365 111.25572 111.11655
           A21        111.58875 111.57178 111.66126 111.55644 111.41085
           A22        107.44560 107.38226 107.49790 107.52634 107.38131
           A23        107.37829 107.46450 107.44503 107.27851 107.43999
           A24        107.44722 107.43628 107.43787 107.59011 107.59806
           D1          57.98718  59.51616  55.37225  57.88548  64.48236
           D2         -57.95138 -55.69787 -59.55905 -57.72481 -50.65917
           D3        -179.98091-178.24975 178.57801-179.46571-173.26671
           D4         -61.94471 -60.33933 -64.50154 -62.09512 -55.43841
           D5        -177.88327-175.55335-179.43284-177.70541-170.57994
           D6          60.08719  61.89477  58.70422  60.55369  66.81252
           D7         177.91903 179.43670 175.41127 178.03931-175.57349
           D8          61.98047  64.22267  60.47997  62.42902  69.28498
           D9         -60.04907 -58.32921 -61.38297 -59.31188 -53.32256
           D10        -57.68023 -21.68018  14.31991  50.31978  86.31971
           D11         58.22033  92.96264 130.25202 165.71540-160.38556
           D12       -179.73807-145.05370-107.57462 -72.43561 -38.59239
           D13         64.35869  99.96764 137.09919 172.94098-151.59679
           D14       -179.74075-145.38954-106.96870 -71.66340 -38.30206
           D15        -57.69916 -23.40587  15.20467  50.18558  83.49111
           D16       -179.72521-144.42557-107.49238 -71.58217 -36.67464
           D17        -63.82465 -29.78275   8.43974  43.81345  76.62010
           D18         58.21695  92.20092 130.61310 165.66243-161.58674
           D19         60.08822  62.44634  58.32025  60.58679  67.43175
           D20       -179.97987-177.69822 178.20082-179.43465-172.69170
           D21        -60.04727 -57.76150 -61.76249 -59.28091 -52.72075
           D22        -61.95670 -61.07096 -64.25114 -62.16128 -57.00375
           D23         57.97521  58.78448  55.62943  57.81729  62.87280
           D24        177.90781 178.72119 175.66612 177.97102-177.15624
           D25       -177.88527-175.74283-179.46135-177.72535-171.16563
           D26        -57.95336 -55.88739 -59.58078 -57.74679 -51.28907
           D27         61.97925  64.04932  60.45591  62.40695  68.68188
                           6         7         8         9        10
     Eigenvalues --    -0.03583  -0.03822  -0.04028  -0.03924  -0.03994
           R1           1.09591   1.09557   1.09528   1.09551   1.09566
           R2           1.09578   1.09597   1.09569   1.09563   1.09569
           R3           1.09584   1.09567   1.09609   1.09615   1.09600
           R4           1.52603   1.52655   1.52718   1.52740   1.52734
           R5           1.10836   1.10786   1.10798   1.10757   1.10644
           R6           1.10880   1.10897   1.10762   1.10732   1.10828
           R7           1.54239   1.53875   1.53637   1.53897   1.53831
           R8           1.10848   1.10952   1.10806   1.10700   1.10749
           R9           1.10879   1.10620   1.10751   1.10820   1.10648
           R10          1.52590   1.52837   1.52725   1.52679   1.52857
           R11          1.09590   1.09575   1.09568   1.09568   1.09550
           R12          1.09588   1.09553   1.09527   1.09552   1.09565
           R13          1.09587   1.09567   1.09610   1.09622   1.09595
           A1         107.45453 107.56466 107.58691 107.44654 107.40911
           A2         107.48680 107.41599 107.52987 107.47681 107.39022
           A3         110.94324 111.07098 111.25444 111.26121 111.21189
           A4         107.50554 107.44654 107.28254 107.46471 107.50420
           A5         111.62890 111.45480 111.55738 111.64008 111.60364
           A6         111.60745 111.67319 111.41367 111.33437 111.49878
           A7         108.75965 109.53370 109.41940 109.33309 110.07395
           A8         108.72119 108.72334 109.66340 109.54791 109.01385
           A9         115.90593 114.66686 112.88088 112.66325 112.24309
           A10        105.49871 105.71404 105.77884 105.30330 105.46693
           A11        108.73505 108.78484 109.13777 109.41738 109.72643
           A12        108.72203 109.03912 109.71193 110.30922 110.09299
           A13        108.75700 108.36728 109.11724 109.55488 109.46695
           A14        108.70591 109.69590 109.73711 110.12439 110.48881
           A15        115.90340 114.34168 112.87088 112.72697 112.06917
           A16        105.45619 106.94326 105.83459 104.93507 106.21414
           A17        108.78848 107.80153 109.34355 109.88018 108.96027
           A18        108.72716 109.41292 109.69238 109.32880 109.45952
           A19        111.63138 111.42757 111.55678 111.65922 111.59573
           A20        110.95693 111.03336 111.25287 111.27682 111.15544
           A21        111.60963 111.71190 111.41830 111.31388 111.54125
           A22        107.44343 107.61833 107.59141 107.43787 107.44291
           A23        107.49919 107.45872 107.28040 107.44068 107.47684
           A24        107.48468 107.37808 107.52487 107.49437 107.40721
           D1          57.26684  50.43503  57.77279  59.63640  55.62222
           D2         -57.13141 -64.63222 -57.83160 -55.28527 -59.60717
           D3        -179.90836 173.04533 179.51399-178.47353 178.14961
           D4         -62.55130 -69.49234 -62.37664 -60.39526 -64.30357
           D5        -176.94955 175.44040-177.98104-175.31694-179.53296
           D6          60.27350  53.11795  59.36455  61.49480  58.22382
           D7         177.11151 170.32063 177.75244 179.49989 175.45330
           D8          62.71326  55.25337  62.14804  64.57821  60.22391
           D9         -60.06369 -67.06908 -60.50637 -58.61005 -62.01931
           D10        122.32006 158.32001-165.68000-129.68033 -93.67987
           D11       -123.34129 -85.25644 -50.13798 -14.75493  22.95072
           D12         -0.57152  38.07055  72.53813 107.63432 145.31159
           D13       -114.84220 -78.66615 -43.78005  -7.83795  29.04404
           D14         -0.50354  37.75740  71.76196 107.08745 145.67463
           D15        122.26622 161.08439-165.56193-130.52330 -91.96450
           D16         -0.45646  36.16883  71.69270 107.55684 144.69183
           D17        113.88220 152.59238-172.76528-137.51776 -98.67758
           D18       -123.34803 -84.08064 -50.08917 -15.12851  23.68329
           D19         60.26380  52.68336  59.31316  61.70949  57.76555
           D20       -179.92120 172.63505 179.46685-178.24621 177.69055
           D21        -60.06850 -67.52701 -60.55778 -58.36376 -62.46646
           D22        -62.61123 -67.88092 -62.34098 -60.79352 -63.53509
           D23         57.20377  52.07078  57.81271  59.25079  56.38991
           D24        177.05647 171.90872 177.78808 179.13324 176.23291
           D25       -176.97762 176.16276-177.98575-175.45538-179.28979
           D26        -57.16262 -63.88555 -57.83206 -55.41108 -59.36479
           D27         62.69008  55.95239  62.14331  64.47138  60.47820
                          11
     Eigenvalues --    -0.04142
           R1           1.09564
           R2           1.09584
           R3           1.09587
           R4           1.52705
           R5           1.10741
           R6           1.10736
           R7           1.53575
           R8           1.10744
           R9           1.10739
           R10          1.52700
           R11          1.09587
           R12          1.09564
           R13          1.09586
           A1         107.41569
           A2         107.41479
           A3         111.18285
           A4         107.38381
           A5         111.60809
           A6         111.60706
           A7         109.78670
           A8         109.79894
           A9         111.76586
           A10        105.76300
           A11        109.77411
           A12        109.77624
           A13        109.78070
           A14        109.76968
           A15        111.76692
           A16        105.75169
           A17        109.79976
           A18        109.79547
           A19        111.61207
           A20        111.18366
           A21        111.60794
           A22        107.41118
           A23        107.37461
           A24        107.42248
           D1          57.98407
           D2         -57.88757
           D3        -179.95737
           D4         -61.93334
           D5        -177.80497
           D6          60.12523
           D7         177.89964
           D8          62.02800
           D9         -60.04180
           D10        -57.68026
           D11         58.15749
           D12       -179.76795
           D13         64.38554
           D14       -179.77672
           D15        -57.70215
           D16       -179.76309
           D17        -63.92534
           D18         58.14922
           D19         60.12802
           D20       -179.95708
           D21        -60.03061
           D22        -61.94874
           D23         57.96617
           D24        177.89264
           D25       -177.81223
           D26        -57.89732
           D27         62.02915
 Largest change from initial coordinates is atom   14       3.170 Angstoms.
 GradGradGradGradGradGradGradGradGradGradGradGradGradGradGradGradGradGrad

 Leave Link  103 at Fri Mar 29 17:12:32 2024, MaxMem=   134217728 cpu:               0.1 elap:               0.0
 (Enter /home/emanuele/chem_software/gaussian//gdv/l202.exe)
                          Input orientation:                          
 ---------------------------------------------------------------------
 Center     Atomic      Atomic             Coordinates (Angstroms)
 Number     Number       Type             X           Y           Z
 ---------------------------------------------------------------------
      1          6           0       -1.772347   -0.051607    1.012793
      2          1           0       -2.018421   -0.782419    0.234466
      3          1           0       -2.122189   -0.459305    1.967909
      4          1           0       -0.679837    0.015586    1.065989
      5          6           0       -2.405386    1.305800    0.715145
      6          1           0       -3.504154    1.196584    0.630651
      7          1           0       -2.062562    1.671093   -0.272422
      8          6           0       -2.067924    2.341264    1.797952
      9          1           0       -2.406921    1.974126    2.786242
     10          1           0       -0.969252    2.453368    1.879590
     11          6           0       -2.705611    3.697082    1.503281
     12          1           0       -3.798161    3.627207    1.454497
     13          1           0       -2.458254    4.428316    2.280806
     14          1           0       -2.360809    4.105872    0.546771
 ---------------------------------------------------------------------
                    Distance matrix (angstroms):
                    1          2          3          4          5
     1  C    0.000000
     2  H    1.095642   0.000000
     3  H    1.095835   1.766351   0.000000
     4  H    1.095866   1.766366   1.766171   0.000000
     5  C    1.527051   2.177487   2.182937   2.182948   0.000000
     6  H    2.168678   2.506155   2.537726   3.092093   1.107411
     7  H    2.168800   2.505714   3.092124   2.538498   1.107364
     8  C    2.535680   3.493470   2.806246   2.805590   1.535753
     9  H    2.766116   3.776378   2.583085   3.126975   2.176260
    10  H    2.769693   3.778559   3.133804   2.586211   2.176081
    11  C    3.894127   4.706171   4.222773   4.224736   2.535650
    12  H    4.222877   4.909251   4.446577   4.787346   2.806313
    13  H    4.706169   5.615400   4.909142   4.910268   3.493450
    14  H    4.224701   4.910209   4.787214   4.452606   2.805484
                    6          7          8          9         10
     6  H    0.000000
     7  H    1.766037   0.000000
     8  C    2.176152   2.176145   0.000000
     9  H    2.540682   3.092869   1.107441   0.000000
    10  H    3.092747   2.537408   1.107391   1.765950   0.000000
    11  C    2.766160   2.769705   1.526996   2.168820   2.168727
    12  H    2.583232   3.133837   2.182963   2.538064   3.092140
    13  H    3.776375   3.778601   2.177450   2.506221   2.505698
    14  H    3.127017   2.586152   2.182906   3.092199   2.538427
                   11         12         13         14
    11  C    0.000000
    12  H    1.095868   0.000000
    13  H    1.095644   1.766328   0.000000
    14  H    1.095860   1.766088   1.766449   0.000000
 Symmetry turned off by external request.
 Stoichiometry    C4H10
 Framework group  C1[X(C4H10)]
 Deg. of freedom    36
 Full point group                 C1      NOp   1
 Rotational constants (GHZ):          22.9456449           3.6614764           3.4268259
 Leave Link  202 at Fri Mar 29 17:12:32 2024, MaxMem=   134217728 cpu:               0.1 elap:               0.0
 (Enter /home/emanuele/chem_software/gaussian//gdv/l601.exe)
 Copying SCF densities to generalized density rwf, IOpCl= 0 IROHF=0.

 **********************************************************************

            Population analysis using the SCF Density.

 **********************************************************************

 Alpha  occ. eigenvalues --       -1.04023      -0.94334      -0.80334      -0.73962      -0.58824
 Alpha  occ. eigenvalues --       -0.53783      -0.52730      -0.51551      -0.47147      -0.44536
 Alpha  occ. eigenvalues --       -0.43920      -0.42043      -0.40894
 Alpha virt. eigenvalues --        0.15506       0.16810       0.18077       0.20453       0.21570
 Alpha virt. eigenvalues --        0.21892       0.22265       0.22702       0.23508       0.24291
 Alpha virt. eigenvalues --        0.24785       0.25517       0.25689
          Condensed to atoms (all electrons):
               1          2          3          4          5          6
     1  C    4.465163   0.000000   0.000000   0.000000   0.000000   0.000000
     2  H    0.000000   0.855980   0.000000   0.000000   0.000000   0.000000
     3  H    0.000000   0.000000   0.853773   0.000000   0.000000   0.000000
     4  H    0.000000   0.000000   0.000000   0.853773   0.000000   0.000000
     5  C    0.000000   0.000000   0.000000   0.000000   4.224269   0.000000
     6  H    0.000000   0.000000   0.000000   0.000000   0.000000   0.873501
     7  H    0.000000   0.000000   0.000000   0.000000   0.000000   0.000000
     8  C    0.000000   0.000000   0.000000   0.000000   0.000000   0.000000
     9  H    0.000000   0.000000   0.000000   0.000000   0.000000   0.000000
    10  H    0.000000   0.000000   0.000000   0.000000   0.000000   0.000000
    11  C    0.000000   0.000000   0.000000   0.000000   0.000000   0.000000
    12  H    0.000000   0.000000   0.000000   0.000000   0.000000   0.000000
    13  H    0.000000   0.000000   0.000000   0.000000   0.000000   0.000000
    14  H    0.000000   0.000000   0.000000   0.000000   0.000000   0.000000
               7          8          9         10         11         12
     1  C    0.000000   0.000000   0.000000   0.000000   0.000000   0.000000
     2  H    0.000000   0.000000   0.000000   0.000000   0.000000   0.000000
     3  H    0.000000   0.000000   0.000000   0.000000   0.000000   0.000000
     4  H    0.000000   0.000000   0.000000   0.000000   0.000000   0.000000
     5  C    0.000000   0.000000   0.000000   0.000000   0.000000   0.000000
     6  H    0.000000   0.000000   0.000000   0.000000   0.000000   0.000000
     7  H    0.873540   0.000000   0.000000   0.000000   0.000000   0.000000
     8  C    0.000000   4.224279   0.000000   0.000000   0.000000   0.000000
     9  H    0.000000   0.000000   0.873496   0.000000   0.000000   0.000000
    10  H    0.000000   0.000000   0.000000   0.873546   0.000000   0.000000
    11  C    0.000000   0.000000   0.000000   0.000000   4.465153   0.000000
    12  H    0.000000   0.000000   0.000000   0.000000   0.000000   0.853776
    13  H    0.000000   0.000000   0.000000   0.000000   0.000000   0.000000
    14  H    0.000000   0.000000   0.000000   0.000000   0.000000   0.000000
              13         14
     1  C    0.000000   0.000000
     2  H    0.000000   0.000000
     3  H    0.000000   0.000000
     4  H    0.000000   0.000000
     5  C    0.000000   0.000000
     6  H    0.000000   0.000000
     7  H    0.000000   0.000000
     8  C    0.000000   0.000000
     9  H    0.000000   0.000000
    10  H    0.000000   0.000000
    11  C    0.000000   0.000000
    12  H    0.000000   0.000000
    13  H    0.855978   0.000000
    14  H    0.000000   0.853772
 Mulliken charges:
               1
     1  C   -0.465163
     2  H    0.144020
     3  H    0.146227
     4  H    0.146227
     5  C   -0.224269
     6  H    0.126499
     7  H    0.126460
     8  C   -0.224279
     9  H    0.126504
    10  H    0.126454
    11  C   -0.465153
    12  H    0.146224
    13  H    0.144022
    14  H    0.146228
 Sum of Mulliken charges =   0.00000
 Mulliken charges with hydrogens summed into heavy atoms:
               1
     1  C   -0.028690
     5  C    0.028690
     8  C    0.028678
    11  C   -0.028678
 Charge=              0.0000 electrons
 Dipole moment (field-independent basis, Debye):
    X=             -0.0003    Y=             -0.0001    Z=              0.0002  Tot=              0.0004
 N-N= 9.111035162311D+01 E-N=-1.302644922558D+02  KE=-3.627743148840D+01
 Leave Link  601 at Fri Mar 29 17:12:32 2024, MaxMem=   134217728 cpu:               0.1 elap:               0.0
 (Enter /home/emanuele/chem_software/gaussian//gdv/l9999.exe)
 Unable to Open any file for archive entry.
 1\1\GINC-EMANUELE-XPS-13-9343\Scan\RPM6\ZDO\C4H10\EMANUELE\29-Mar-2024
 \0\\#p nosymm geom=nocrowd opt=(modredundant,maxcycle=100) PM6\\Title\
 \0,1\C,-1.7723473466,-0.0516065621,1.0127926669\H,-2.0184214876,-0.782
 4188375,0.2344659317\H,-2.1221886113,-0.4593048387,1.9679094183\H,-0.6
 798374378,0.0155856876,1.0659886513\C,-2.4053858253,1.3057999739,0.715
 144746\H,-3.5041536518,1.1965838258,0.6306509945\H,-2.0625616251,1.671
 0926429,-0.2724217278\C,-2.0679244617,2.3412640413,1.7979520852\H,-2.4
 069207582,1.9741264887,2.7862418601\H,-0.9692517533,2.4533677089,1.879
 5904107\C,-2.7056114573,3.697081555,1.5032807114\H,-3.798160595,3.6272
 066275,1.4544967267\H,-2.4582538711,4.4283156998,2.280806389\H,-2.3608
 090003,4.1058723987,0.546771136\\Version=ES64L-GDVRevJ.14\HF=-0.041423
 9,-0.0399205,-0.0392371,-0.0402834,-0.0382716,-0.0358307,-0.0382201,-0
 .0402839,-0.0392351,-0.0399364,-0.0414242\RMSD=3.001e-09,2.663e-09,9.7
 96e-09,7.430e-09,3.451e-09,5.129e-09,1.505e-09,6.912e-09,2.687e-09,2.8
 87e-09,5.838e-09\PG=C01 [X(C4H10)]\\@
 The archive entry for this job was punched.


 THE MOST BEAUTIFUL EXPERIENCE WE CAN HAVE IS THE MYSTERIOUS.
 IT IS THE FUNDAMENTAL EMOTION WHICH STANDS AT AT THE CRADLE 
 OF TRUE ART AND TRUE SCIENCE.

                                    -- ALBERT EINSTEIN
 Job cpu time:       0 days  0 hours  3 minutes  7.2 seconds.
 Elapsed time:       0 days  0 hours  0 minutes 48.3 seconds.
 File lengths (MBytes):  RWF=      6 Int=      0 D2E=      0 Chk=      3 Scr=      1
 Normal termination of Gaussian DV at Fri Mar 29 17:12:32 2024.
