 Entering Gaussian System, Link 0=/home/emanuele/chem_software/gaussian//g09/g09
 Input=1_qm.gjf
 Output=1_qm.log
 Initial command:
 /home/emanuele/chem_software/gaussian//gdv/l1.exe "/home/emanuele/chem_software/gaussian/scratch/Gau-12614.inp" -scrdir="/home/emanuele/chem_software/gaussian/scratch/"
 Entering Link 1 = /home/emanuele/chem_software/gaussian//gdv/l1.exe PID=     12616.
  
 Copyright (c) 1988-2020, Gaussian, Inc.  All Rights Reserved.
  
 This is the private, development version of
 the Gaussian(R) DV system of programs. It is based on
 the Gaussian(R) 16 system (copyright 2016, Gaussian, Inc.),
 the Gaussian(R) 09 system (copyright 2009, Gaussian, Inc.),
 the Gaussian(R) 03 system (copyright 2003, Gaussian, Inc.),
 the Gaussian(R) 98 system (copyright 1998, Gaussian, Inc.),
 the Gaussian(R) 94 system (copyright 1995, Gaussian, Inc.),
 the Gaussian 92(TM) system (copyright 1992, Gaussian, Inc.),
 the Gaussian 90(TM) system (copyright 1990, Gaussian, Inc.),
 the Gaussian 88(TM) system (copyright 1988, Gaussian, Inc.),
 the Gaussian 86(TM) system (copyright 1986, Carnegie Mellon
 University), and the Gaussian 82(TM) system (copyright 1983,
 Carnegie Mellon University). Gaussian is a federally registered
 trademark of Gaussian, Inc.
  
 This software contains proprietary and confidential information,
 including trade secrets, belonging to Gaussian, Inc.
  
 This software is provided under written license and may be
 used, copied, transmitted, or stored only in accord with that
 written license.
  
 The following legend is applicable only to US Government
 contracts under FAR:
  
                    RESTRICTED RIGHTS LEGEND
  
 Use, reproduction and disclosure by the US Government is
 subject to restrictions as set forth in subparagraphs (a)
 and (c) of the Commercial Computer Software - Restricted
 Rights clause in FAR 52.227-19.
  
 Gaussian, Inc.
 340 Quinnipiac St., Bldg. 40, Wallingford CT 06492
  
  
 ---------------------------------------------------------------
 Warning -- This program may not be used in any manner that
 competes with the business of Gaussian, Inc. or will provide
 assistance to any competitor of Gaussian, Inc.  The licensee
 of this program is prohibited from giving any competitor of
 Gaussian, Inc. access to this program.  By using this program,
 the user acknowledges that Gaussian, Inc. is engaged in the
 business of creating and licensing software in the field of
 computational chemistry and represents and warrants to the
 licensee that it is not a competitor of Gaussian, Inc. and that
 it will not use this program in any manner prohibited above.
 ---------------------------------------------------------------
  

 Cite this work as:
 Gaussian Development Version, Revision J.14,
 M. J. Frisch, G. W. Trucks, H. B. Schlegel, G. E. Scuseria, 
 M. A. Robb, J. R. Cheeseman, G. Scalmani, V. Barone, 
 G. A. Petersson, H. Nakatsuji, X. Li, A. V. Marenich, M. Caricato, 
 J. Bloino, B. G. Janesko, J. Zheng, R. Gomperts, B. Mennucci, 
 H. P. Hratchian, J. V. Ortiz, A. F. Izmaylov, J. L. Sonnenberg, 
 D. Williams-Young, F. Ding, F. Lipparini, F. Egidi, J. Goings, 
 B. Peng, A. Petrone, T. Henderson, D. Ranasinghe, V. G. Zakrzewski, 
 J. Gao, N. Rega, G. Zheng, W. Liang, M. Hada, M. Ehara, K. Toyota, 
 R. Fukuda, J. Hasegawa, M. Ishida, T. Nakajima, Y. Honda, O. Kitao, 
 H. Nakai, T. Vreven, K. Throssell, J. A. Montgomery, Jr., 
 J. E. Peralta, F. Ogliaro, M. J. Bearpark, J. J. Heyd, 
 E. N. Brothers, K. N. Kudin, V. N. Staroverov, T. A. Keith, 
 R. Kobayashi, J. Normand, K. Raghavachari, A. P. Rendell, 
 J. C. Burant, S. S. Iyengar, J. Tomasi, M. Cossi, J. M. Millam, 
 M. Klene, C. Adamo, R. Cammi, J. W. Ochterski, R. L. Martin, 
 K. Morokuma, O. Farkas, J. B. Foresman, and D. J. Fox, 
 Gaussian, Inc., Wallingford CT, 2020.
 
 ******************************************
 Gaussian DV:  ES64L-GDVRevJ.14 29-Dec-2020
                29-Mar-2024 
 ******************************************
 %mem=1GB
 %nprocshared=4
 Will use up to    4 processors via shared memory.
 %chk=1_qm.chk
 ----------------------------------------------------------
 #p nosymm geom=nocrowd opt=(modredundant,maxcycle=100) PM6
 ----------------------------------------------------------
 1/6=100,18=120,19=15,26=1,37=210000000,38=1/1,3;
 2/9=110,12=1,15=1,40=1/2;
 3/5=2,25=1,41=3900000,71=1/1,2,3;
 4/35=1/1;
 5/5=2,35=1,38=5/2;
 6/7=2,8=2,9=2,10=2,28=1/1;
 7/30=1/1,2,3,16;
 1/6=100,18=20,19=15,26=1/3(2);
 2/9=110,12=1,15=1/2;
 99//99;
 2/9=110,12=1,15=1/2;
 3/5=2,25=1,41=3900000,71=1,135=20/1,2,3;
 4/5=5,16=3,35=1/1;
 5/5=2,35=1,38=5/2;
 7/30=1/1,2,3,16;
 1/6=100,18=20,19=15,26=1/3(-5);
 2/9=110,12=1,15=1/2;
 6/7=2,8=2,9=2,10=2,19=2,28=1/1;
 99/9=1/99;
 Leave Link    1 at Fri Mar 29 17:12:37 2024, MaxMem=   134217728 cpu:               0.2 elap:               0.1
 (Enter /home/emanuele/chem_software/gaussian//gdv/l101.exe)
 -----
 Title
 -----
 Symbolic Z-matrix:
 Charge =  0 Multiplicity = 1
 C                    -2.49341   0.34945  -0.01033 
 H                    -2.13722  -0.68175  -0.02338 
 H                    -2.14608   0.83135  -0.92689 
 H                    -3.58472   0.32329  -0.04646 
 C                    -2.00024   1.09707   1.22695 
 H                    -0.90618   1.0768    1.25425 
 H                    -2.33381   0.57262   2.12795 
 C                    -2.47574   2.54907   1.28787 
 H                    -2.14216   3.07352   0.38686 
 H                    -3.5698    2.56934   1.26056 
 C                    -1.98256   3.29668   2.52514 
 H                    -0.89126   3.32285   2.56127 
 H                    -2.33875   4.32789   2.53819 
 H                    -2.3299    2.81479   3.4417 
 
 The following ModRedundant input section has been read:
 D       1       5       8      11 S  10 36.000                                
 
 ITRead=  0  0  0  0  0  0  0  0  0  0  0  0  0  0
 MicOpt= -1 -1 -1 -1 -1 -1 -1 -1 -1 -1 -1 -1 -1 -1
 DXMax1 from symmetrization= 1.89D-06
 NAtoms=     14 NQM=       14 NQMF=       0 NMMI=      0 NMMIF=      0
                NMic=       0 NMicF=      0.
                    Isotopes and Nuclear Properties:
 (Nuclear quadrupole moments (NQMom) in fm**2, nuclear magnetic moments (NMagM)
  in nuclear magnetons)

  Atom         1           2           3           4           5           6           7           8           9          10
 IAtWgt=          12           1           1           1          12           1           1          12           1           1
 AtmWgt=  12.0000000   1.0078250   1.0078250   1.0078250  12.0000000   1.0078250   1.0078250  12.0000000   1.0078250   1.0078250
 NucSpn=           0           1           1           1           0           1           1           0           1           1
 AtZEff=  -0.0000000  -0.0000000  -0.0000000  -0.0000000  -0.0000000  -0.0000000  -0.0000000  -0.0000000  -0.0000000  -0.0000000
 NQMom=    0.0000000   0.0000000   0.0000000   0.0000000   0.0000000   0.0000000   0.0000000   0.0000000   0.0000000   0.0000000
 NMagM=    0.0000000   2.7928460   2.7928460   2.7928460   0.0000000   2.7928460   2.7928460   0.0000000   2.7928460   2.7928460
 AtZNuc=   6.0000000   1.0000000   1.0000000   1.0000000   6.0000000   1.0000000   1.0000000   6.0000000   1.0000000   1.0000000

  Atom        11          12          13          14
 IAtWgt=          12           1           1           1
 AtmWgt=  12.0000000   1.0078250   1.0078250   1.0078250
 NucSpn=           0           1           1           1
 AtZEff=  -0.0000000  -0.0000000  -0.0000000  -0.0000000
 NQMom=    0.0000000   0.0000000   0.0000000   0.0000000
 NMagM=    0.0000000   2.7928460   2.7928460   2.7928460
 AtZNuc=   6.0000000   1.0000000   1.0000000   1.0000000
 Leave Link  101 at Fri Mar 29 17:12:37 2024, MaxMem=   134217728 cpu:               0.9 elap:               0.3
 (Enter /home/emanuele/chem_software/gaussian//gdv/l103.exe)

 GradGradGradGradGradGradGradGradGradGradGradGradGradGradGradGradGradGrad
 Berny optimization.
 Initialization pass.
                           ----------------------------
                           !    Initial Parameters    !
                           ! (Angstroms and Degrees)  !
 --------------------------                            --------------------------
 ! Name  Definition              Value          Derivative Info.                !
 --------------------------------------------------------------------------------
 ! R1    R(1,2)                  1.0911         estimate D2E/DX2                !
 ! R2    R(1,3)                  1.0922         estimate D2E/DX2                !
 ! R3    R(1,4)                  1.0922         estimate D2E/DX2                !
 ! R4    R(1,5)                  1.5274         estimate D2E/DX2                !
 ! R5    R(5,6)                  1.0946         estimate D2E/DX2                !
 ! R6    R(5,7)                  1.0946         estimate D2E/DX2                !
 ! R7    R(5,8)                  1.5291         estimate D2E/DX2                !
 ! R8    R(8,9)                  1.0946         estimate D2E/DX2                !
 ! R9    R(8,10)                 1.0946         estimate D2E/DX2                !
 ! R10   R(8,11)                 1.5274         estimate D2E/DX2                !
 ! R11   R(11,12)                1.0922         estimate D2E/DX2                !
 ! R12   R(11,13)                1.0911         estimate D2E/DX2                !
 ! R13   R(11,14)                1.0922         estimate D2E/DX2                !
 ! A1    A(2,1,3)              107.6467         estimate D2E/DX2                !
 ! A2    A(2,1,4)              107.6468         estimate D2E/DX2                !
 ! A3    A(2,1,5)              111.5239         estimate D2E/DX2                !
 ! A4    A(3,1,4)              107.4912         estimate D2E/DX2                !
 ! A5    A(3,1,5)              111.1696         estimate D2E/DX2                !
 ! A6    A(4,1,5)              111.1697         estimate D2E/DX2                !
 ! A7    A(1,5,6)              109.5036         estimate D2E/DX2                !
 ! A8    A(1,5,7)              109.5036         estimate D2E/DX2                !
 ! A9    A(1,5,8)              113.3693         estimate D2E/DX2                !
 ! A10   A(6,5,7)              105.9736         estimate D2E/DX2                !
 ! A11   A(6,5,8)              109.1119         estimate D2E/DX2                !
 ! A12   A(7,5,8)              109.1118         estimate D2E/DX2                !
 ! A13   A(5,8,9)              109.1118         estimate D2E/DX2                !
 ! A14   A(5,8,10)             109.1119         estimate D2E/DX2                !
 ! A15   A(5,8,11)             113.3693         estimate D2E/DX2                !
 ! A16   A(9,8,10)             105.9736         estimate D2E/DX2                !
 ! A17   A(9,8,11)             109.5036         estimate D2E/DX2                !
 ! A18   A(10,8,11)            109.5036         estimate D2E/DX2                !
 ! A19   A(8,11,12)            111.1697         estimate D2E/DX2                !
 ! A20   A(8,11,13)            111.5239         estimate D2E/DX2                !
 ! A21   A(8,11,14)            111.1696         estimate D2E/DX2                !
 ! A22   A(12,11,13)           107.6468         estimate D2E/DX2                !
 ! A23   A(12,11,14)           107.4912         estimate D2E/DX2                !
 ! A24   A(13,11,14)           107.6467         estimate D2E/DX2                !
 ! D1    D(2,1,5,6)             57.8979         estimate D2E/DX2                !
 ! D2    D(2,1,5,7)            -57.898          estimate D2E/DX2                !
 ! D3    D(2,1,5,8)            180.0            estimate D2E/DX2                !
 ! D4    D(3,1,5,6)            -62.2471         estimate D2E/DX2                !
 ! D5    D(3,1,5,7)           -178.043          estimate D2E/DX2                !
 ! D6    D(3,1,5,8)             59.855          estimate D2E/DX2                !
 ! D7    D(4,1,5,6)            178.043          estimate D2E/DX2                !
 ! D8    D(4,1,5,7)             62.247          estimate D2E/DX2                !
 ! D9    D(4,1,5,8)            -59.8549         estimate D2E/DX2                !
 ! D10   D(1,5,8,9)            -57.6801         estimate D2E/DX2                !
 ! D11   D(1,5,8,10)            57.6801         estimate D2E/DX2                !
 ! D12   D(1,5,8,11)           180.0            Scan                            !
 ! D13   D(6,5,8,9)             64.6398         estimate D2E/DX2                !
 ! D14   D(6,5,8,10)           180.0            estimate D2E/DX2                !
 ! D15   D(6,5,8,11)           -57.6801         estimate D2E/DX2                !
 ! D16   D(7,5,8,9)            180.0            estimate D2E/DX2                !
 ! D17   D(7,5,8,10)           -64.6398         estimate D2E/DX2                !
 ! D18   D(7,5,8,11)            57.6801         estimate D2E/DX2                !
 ! D19   D(5,8,11,12)           59.8549         estimate D2E/DX2                !
 ! D20   D(5,8,11,13)         -180.0            estimate D2E/DX2                !
 ! D21   D(5,8,11,14)          -59.855          estimate D2E/DX2                !
 ! D22   D(9,8,11,12)          -62.247          estimate D2E/DX2                !
 ! D23   D(9,8,11,13)           57.898          estimate D2E/DX2                !
 ! D24   D(9,8,11,14)          178.043          estimate D2E/DX2                !
 ! D25   D(10,8,11,12)        -178.043          estimate D2E/DX2                !
 ! D26   D(10,8,11,13)         -57.8979         estimate D2E/DX2                !
 ! D27   D(10,8,11,14)          62.2471         estimate D2E/DX2                !
 --------------------------------------------------------------------------------
 Trust Radius=3.00D-01 FncErr=1.00D-07 GrdErr=1.00D-07 EigMax=2.50D+02 EigMin=1.00D-04
 Number of optimizations in scan=  11
 Number of steps in this run=    100 maximum allowed number of steps=    100.
 GradGradGradGradGradGradGradGradGradGradGradGradGradGradGradGradGradGrad

 Leave Link  103 at Fri Mar 29 17:12:37 2024, MaxMem=   134217728 cpu:               0.0 elap:               0.0
 (Enter /home/emanuele/chem_software/gaussian//gdv/l202.exe)
                          Input orientation:                          
 ---------------------------------------------------------------------
 Center     Atomic      Atomic             Coordinates (Angstroms)
 Number     Number       Type             X           Y           Z
 ---------------------------------------------------------------------
      1          6           0       -2.493413    0.349454   -0.010333
      2          1           0       -2.137221   -0.681753   -0.023381
      3          1           0       -2.146079    0.831347   -0.926886
      4          1           0       -3.584715    0.323285   -0.046458
      5          6           0       -2.000239    1.097073    1.226945
      6          1           0       -0.906178    1.076799    1.254250
      7          1           0       -2.333815    0.572622    2.127947
      8          6           0       -2.475736    2.549065    1.287865
      9          1           0       -2.142160    3.073516    0.386863
     10          1           0       -3.569797    2.569339    1.260560
     11          6           0       -1.982562    3.296684    2.525143
     12          1           0       -0.891260    3.322853    2.561268
     13          1           0       -2.338754    4.327891    2.538191
     14          1           0       -2.329896    2.814791    3.441696
 ---------------------------------------------------------------------
                    Distance matrix (angstroms):
                    1          2          3          4          5
     1  C    0.000000
     2  H    1.091069   0.000000
     3  H    1.092214   1.762348   0.000000
     4  H    1.092213   1.762349   1.761520   0.000000
     5  C    1.527420   2.178601   2.175056   2.175056   0.000000
     6  H    2.155810   2.498062   2.520904   3.071512   1.094589
     7  H    2.155810   2.498063   3.071512   2.520904   1.094590
     8  C    2.554196   3.503162   2.822118   2.822118   1.529081
     9  H    2.775186   3.777614   2.598706   3.135682   2.152256
    10  H    2.775187   3.777616   3.135683   2.598707   2.152257
    11  C    3.921195   4.727246   4.245130   4.245130   2.554196
    12  H    4.245130   4.926429   4.466474   4.801285   2.822118
    13  H    4.727246   5.630169   4.926429   4.926429   3.503162
    14  H    4.245130   4.926429   4.801286   4.466474   2.822118
                    6          7          8          9         10
     6  H    0.000000
     7  H    1.748053   0.000000
     8  C    2.152257   2.152256   0.000000
     9  H    2.503376   3.053289   1.094590   0.000000
    10  H    3.053291   2.503376   1.094589   1.748053   0.000000
    11  C    2.775187   2.775186   1.527420   2.155810   2.155810
    12  H    2.598707   3.135682   2.175056   2.520904   3.071512
    13  H    3.777616   3.777614   2.178601   2.498063   2.498062
    14  H    3.135683   2.598706   2.175056   3.071512   2.520904
                   11         12         13         14
    11  C    0.000000
    12  H    1.092213   0.000000
    13  H    1.091069   1.762349   0.000000
    14  H    1.092214   1.761520   1.762348   0.000000
 Symmetry turned off by external request.
 Stoichiometry    C4H10
 Framework group  CI[X(C4H10)]
 Deg. of freedom    18
 Full point group                 CI      NOp   2
 Rotational constants (GHZ):          23.6116342           3.6179161           3.3991508
 Leave Link  202 at Fri Mar 29 17:12:37 2024, MaxMem=   134217728 cpu:               0.1 elap:               0.0
 (Enter /home/emanuele/chem_software/gaussian//gdv/l301.exe)
 Standard basis: VSTO-6G (5D, 7F)
 Ernie: Thresh=  0.10000D-02 Tol=  0.10000D-05 Strict=F.
  NNHCO=     0 NNPyr=     0 NCTC=     0               EPep=         0.000000000
    EC=        65.745193473  ECS=         2.271612005   EG=         0.199102294
   EHC=         0.000352266  EAt=       -21.067501684  AtH=         1.919620419
 EPDDG=         0.000000000  ECC=        68.216260039 EAtT=        22.987122103
    26 basis functions,   156 primitive gaussians,    26 cartesian basis functions
    13 alpha electrons       13 beta electrons
       nuclear repulsion energy        91.2033821419 Hartrees.
 IExCor=       0 DFT=F Ex=HF Corr=None N6=None ScaHFX=  1.000000
 ScaDFX=  1.000000  1.000000  1.000000  1.000000  1.000000  0.000000
 ScaDFX=  0.000000  0.000000  0.000000  0.000000  0.000000  0.000000
 IRadAn=      5 IRanWt=     -1 IRanGd=            0 ICorTp=0 IEmpDi=  4
 Integral buffers will be    131072 words long.
 Regular integral format.
 Two-electron integral symmetry is turned off.
 Leave Link  301 at Fri Mar 29 17:12:37 2024, MaxMem=   134217728 cpu:               0.2 elap:               0.1
 (Enter /home/emanuele/chem_software/gaussian//gdv/l302.exe)
 Do NDO integrals.
 NPDir=0 NMtPBC=     1 NCelOv=     1 NCel=       1 NClECP=     1 NCelD=      1
         NCelK=      1 NCelE2=     1 NClLst=     1 CellRange=     0.0.
 One-electron integrals computed using PRISM.
 NBasis=    26 RedAO= F EigKep=  0.00D+00  NBF=    26
 NBsUse=    26 1.00D-04 EigRej=  0.00D+00 NBFU=    26
 Leave Link  302 at Fri Mar 29 17:12:37 2024, MaxMem=   134217728 cpu:               0.3 elap:               0.1
 (Enter /home/emanuele/chem_software/gaussian//gdv/l303.exe)
 DipDrv:  MaxL=1.
 Leave Link  303 at Fri Mar 29 17:12:37 2024, MaxMem=   134217728 cpu:               0.1 elap:               0.0
 (Enter /home/emanuele/chem_software/gaussian//gdv/l401.exe)
 Simple Huckel Guess.
 JPrj=0 DoOrth=F DoCkMO=F.
 Leave Link  401 at Fri Mar 29 17:12:37 2024, MaxMem=   134217728 cpu:               0.2 elap:               0.0
 (Enter /home/emanuele/chem_software/gaussian//gdv/l502.exe)
 Keep J ints in memory in canonical form, NReq=861102.
 FoFCou: FMM=F IPFlag=           0 FMFlag=           0 FMFlg1=           0
         NFxFlg=           0 DoJE=F BraDBF=F KetDBF=F FulRan=T
         wScrn=  0.000000 ICntrl=       600 IOpCl=  2 I1Cent=           0 NGrid=           0
         NMat0=    1 NMatS0=     50 NMatT0=    0 NMatD0=    1 NMtDS0=    0 NMtDT0=    0
 Symmetry not used in FoFCou.
 Two-electron integral symmetry not used.
 Closed shell SCF:
 Using DIIS extrapolation, IDIIS=  1040.
 Overlap will be assumed to be unity.
 NGot=   134217728 LenX=   134154919 LenY=   134153802
 Requested convergence on RMS density matrix=1.00D-08 within 128 cycles.
 Requested convergence on MAX density matrix=1.00D-06.
 Requested convergence on             energy=1.00D-06.
 No special actions if energy rises.

 Cycle   1  Pass 1  IDiag  1:
 E= 0.428709966982694E-01
 DIIS: error= 2.18D-02 at cycle   1 NSaved=   1.
 NSaved= 1 IEnMin= 1 EnMin= 0.428709966982694E-01 IErMin= 1 ErrMin= 2.18D-02
 ErrMax= 2.18D-02  0.00D+00 EMaxC= 1.00D-01 BMatC= 2.95D-02 BMatP= 2.95D-02
 IDIUse=3 WtCom= 7.82D-01 WtEn= 2.18D-01
 Coeff-Com:  0.100D+01
 Coeff-En:   0.100D+01
 Coeff:      0.100D+01
 GapD=    2.000 DampG=2.000 DampE=0.500 DampFc=1.0000 IDamp=-1.
 RMSDP=9.73D-03 MaxDP=6.76D-02              OVMax= 0.00D+00

 Cycle   2  Pass 1  IDiag  1:
 E=-0.333821878197114E-01 Delta-E=       -0.076253184518 Rises=F Damp=F
 DIIS: error= 5.34D-03 at cycle   2 NSaved=   2.
 NSaved= 2 IEnMin= 2 EnMin=-0.333821878197114E-01 IErMin= 2 ErrMin= 5.34D-03
 ErrMax= 5.34D-03  0.00D+00 EMaxC= 1.00D-01 BMatC= 2.11D-03 BMatP= 2.95D-02
 IDIUse=3 WtCom= 9.47D-01 WtEn= 5.34D-02
 Coeff-Com: -0.334D+00 0.133D+01
 Coeff-En:   0.000D+00 0.100D+01
 Coeff:     -0.316D+00 0.132D+01
 RMSDP=3.71D-03 MaxDP=2.10D-02 DE=-7.63D-02 OVMax= 0.00D+00

 Cycle   3  Pass 1  IDiag  3:
 E=-0.402139256419218E-01 Delta-E=       -0.006831737822 Rises=F Damp=F
 DIIS: error= 1.47D-03 at cycle   3 NSaved=   3.
 NSaved= 3 IEnMin= 3 EnMin=-0.402139256419218E-01 IErMin= 3 ErrMin= 1.47D-03
 ErrMax= 1.47D-03  0.00D+00 EMaxC= 1.00D-01 BMatC= 7.64D-05 BMatP= 2.11D-03
 IDIUse=3 WtCom= 9.85D-01 WtEn= 1.47D-02
 Coeff-Com:  0.293D+00-0.122D+01 0.193D+01
 Coeff-En:   0.000D+00 0.000D+00 0.100D+01
 Coeff:      0.289D+00-0.121D+01 0.192D+01
 Gap=     0.564 Goal=   None    Shift=    0.000
 RMSDP=1.30D-03 MaxDP=9.86D-03 DE=-6.83D-03 OVMax= 7.77D-03

 Cycle   4  Pass 1  IDiag  3:
 E=-0.406906053183747E-01 Delta-E=       -0.000476679676 Rises=F Damp=F
 DIIS: error= 2.98D-04 at cycle   4 NSaved=   4.
 NSaved= 4 IEnMin= 4 EnMin=-0.406906053183747E-01 IErMin= 4 ErrMin= 2.98D-04
 ErrMax= 2.98D-04  0.00D+00 EMaxC= 1.00D-01 BMatC= 3.25D-06 BMatP= 7.64D-05
 IDIUse=3 WtCom= 9.97D-01 WtEn= 2.98D-03
 Coeff-Com: -0.139D+00 0.586D+00-0.106D+01 0.162D+01
 Coeff-En:   0.000D+00 0.000D+00 0.000D+00 0.100D+01
 Coeff:     -0.139D+00 0.584D+00-0.106D+01 0.161D+01
 Gap=     0.565 Goal=   None    Shift=    0.000
 RMSDP=2.89D-04 MaxDP=2.11D-03 DE=-4.77D-04 OVMax= 2.06D-03

 Cycle   5  Pass 1  IDiag  3:
 E=-0.407122150718635E-01 Delta-E=       -0.000021609753 Rises=F Damp=F
 DIIS: error= 8.28D-05 at cycle   5 NSaved=   5.
 NSaved= 5 IEnMin= 5 EnMin=-0.407122150718635E-01 IErMin= 5 ErrMin= 8.28D-05
 ErrMax= 8.28D-05  0.00D+00 EMaxC= 1.00D-01 BMatC= 2.33D-07 BMatP= 3.25D-06
 IDIUse=1 WtCom= 1.00D+00 WtEn= 0.00D+00
 Coeff-Com:  0.746D-01-0.316D+00 0.604D+00-0.113D+01 0.177D+01
 Coeff:      0.746D-01-0.316D+00 0.604D+00-0.113D+01 0.177D+01
 Gap=     0.564 Goal=   None    Shift=    0.000
 RMSDP=7.85D-05 MaxDP=4.82D-04 DE=-2.16D-05 OVMax= 5.28D-04

 Cycle   6  Pass 1  IDiag  3:
 E=-0.407137616649891E-01 Delta-E=       -0.000001546593 Rises=F Damp=F
 DIIS: error= 1.53D-05 at cycle   6 NSaved=   6.
 NSaved= 6 IEnMin= 6 EnMin=-0.407137616649891E-01 IErMin= 6 ErrMin= 1.53D-05
 ErrMax= 1.53D-05  0.00D+00 EMaxC= 1.00D-01 BMatC= 7.93D-09 BMatP= 2.33D-07
 IDIUse=1 WtCom= 1.00D+00 WtEn= 0.00D+00
 Coeff-Com:  0.250D-02-0.102D-01 0.106D-01 0.236D-01-0.237D+00 0.121D+01
 Coeff:      0.250D-02-0.102D-01 0.106D-01 0.236D-01-0.237D+00 0.121D+01
 Gap=     0.564 Goal=   None    Shift=    0.000
 RMSDP=1.31D-05 MaxDP=9.81D-05 DE=-1.55D-06 OVMax= 1.02D-04

 Cycle   7  Pass 1  IDiag  3:
 E=-0.407138062769405E-01 Delta-E=       -0.000000044612 Rises=F Damp=F
 DIIS: error= 1.76D-06 at cycle   7 NSaved=   7.
 NSaved= 7 IEnMin= 7 EnMin=-0.407138062769405E-01 IErMin= 7 ErrMin= 1.76D-06
 ErrMax= 1.76D-06  0.00D+00 EMaxC= 1.00D-01 BMatC= 3.16D-10 BMatP= 7.93D-09
 IDIUse=1 WtCom= 1.00D+00 WtEn= 0.00D+00
 Coeff-Com:  0.638D-03-0.284D-02 0.830D-02-0.294D-01 0.121D+00-0.576D+00
 Coeff-Com:  0.148D+01
 Coeff:      0.638D-03-0.284D-02 0.830D-02-0.294D-01 0.121D+00-0.576D+00
 Coeff:      0.148D+01
 Gap=     0.564 Goal=   None    Shift=    0.000
 RMSDP=2.08D-06 MaxDP=1.19D-05 DE=-4.46D-08 OVMax= 1.35D-05

 Cycle   8  Pass 1  IDiag  3:
 E=-0.407138076177489E-01 Delta-E=       -0.000000001341 Rises=F Damp=F
 DIIS: error= 1.63D-07 at cycle   8 NSaved=   8.
 NSaved= 8 IEnMin= 8 EnMin=-0.407138076177489E-01 IErMin= 8 ErrMin= 1.63D-07
 ErrMax= 1.63D-07  0.00D+00 EMaxC= 1.00D-01 BMatC= 2.20D-12 BMatP= 3.16D-10
 IDIUse=1 WtCom= 1.00D+00 WtEn= 0.00D+00
 Coeff-Com:  0.875D-05 0.176D-04-0.113D-02 0.739D-02-0.385D-01 0.203D+00
 Coeff-Com: -0.560D+00 0.139D+01
 Coeff:      0.875D-05 0.176D-04-0.113D-02 0.739D-02-0.385D-01 0.203D+00
 Coeff:     -0.560D+00 0.139D+01
 Gap=     0.564 Goal=   None    Shift=    0.000
 RMSDP=1.55D-07 MaxDP=5.40D-07 DE=-1.34D-09 OVMax= 1.35D-06

 Cycle   9  Pass 1  IDiag  3:
 E=-0.407138076268865E-01 Delta-E=       -0.000000000009 Rises=F Damp=F
 DIIS: error= 1.65D-08 at cycle   9 NSaved=   9.
 NSaved= 9 IEnMin= 9 EnMin=-0.407138076268865E-01 IErMin= 9 ErrMin= 1.65D-08
 ErrMax= 1.65D-08  0.00D+00 EMaxC= 1.00D-01 BMatC= 4.83D-14 BMatP= 2.20D-12
 IDIUse=1 WtCom= 1.00D+00 WtEn= 0.00D+00
 Coeff-Com: -0.250D-05-0.718D-05 0.366D-03-0.238D-02 0.123D-01-0.654D-01
 Coeff-Com:  0.182D+00-0.520D+00 0.139D+01
 Coeff:     -0.250D-05-0.718D-05 0.366D-03-0.238D-02 0.123D-01-0.654D-01
 Coeff:      0.182D+00-0.520D+00 0.139D+01
 Gap=     0.564 Goal=   None    Shift=    0.000
 RMSDP=2.55D-08 MaxDP=8.56D-08 DE=-9.14D-12 OVMax= 2.18D-07

 Cycle  10  Pass 1  IDiag  3:
 E=-0.407138076272417E-01 Delta-E=       -0.000000000000 Rises=F Damp=F
 DIIS: error= 3.84D-09 at cycle  10 NSaved=  10.
 NSaved=10 IEnMin=10 EnMin=-0.407138076272417E-01 IErMin=10 ErrMin= 3.84D-09
 ErrMax= 3.84D-09  0.00D+00 EMaxC= 1.00D-01 BMatC= 1.94D-15 BMatP= 4.83D-14
 IDIUse=1 WtCom= 1.00D+00 WtEn= 0.00D+00
 Coeff-Com: -0.253D-05 0.176D-04-0.169D-03 0.965D-03-0.482D-02 0.252D-01
 Coeff-Com: -0.700D-01 0.205D+00-0.665D+00 0.151D+01
 Coeff:     -0.253D-05 0.176D-04-0.169D-03 0.965D-03-0.482D-02 0.252D-01
 Coeff:     -0.700D-01 0.205D+00-0.665D+00 0.151D+01
 Gap=     0.564 Goal=   None    Shift=    0.000
 RMSDP=5.72D-09 MaxDP=1.94D-08 DE=-3.55D-13 OVMax= 5.34D-08

 Cycle  11  Pass 2  IDiag  1:
 SCF Done:  E(RPM6) = -0.407138076272E-01 A.U. after   11 cycles
            NFock= 10  Conv=0.57D-08     -V/T= 0.9989
 KE=-3.631236529323D+01 PE=-1.303410059149D+02 EE= 7.540927525857D+01
 Leave Link  502 at Fri Mar 29 17:12:37 2024, MaxMem=   134217728 cpu:               0.2 elap:               0.1
 (Enter /home/emanuele/chem_software/gaussian//gdv/l601.exe)
 Copying SCF densities to generalized density rwf, IOpCl= 0 IROHF=0.

 **********************************************************************

            Population analysis using the SCF Density.

 **********************************************************************

 Alpha  occ. eigenvalues --       -1.04693      -0.94762      -0.80934      -0.74278      -0.59173
 Alpha  occ. eigenvalues --       -0.53895      -0.52945      -0.51765      -0.47264      -0.44791
 Alpha  occ. eigenvalues --       -0.44014      -0.42220      -0.41006
 Alpha virt. eigenvalues --        0.15432       0.16616       0.17993       0.20677       0.21657
 Alpha virt. eigenvalues --        0.21959       0.22334       0.22781       0.23653       0.24682
 Alpha virt. eigenvalues --        0.25084       0.25594       0.25761
          Condensed to atoms (all electrons):
               1          2          3          4          5          6
     1  C    4.463483   0.000000   0.000000   0.000000   0.000000   0.000000
     2  H    0.000000   0.855092   0.000000   0.000000   0.000000   0.000000
     3  H    0.000000   0.000000   0.853657   0.000000   0.000000   0.000000
     4  H    0.000000   0.000000   0.000000   0.853657   0.000000   0.000000
     5  C    0.000000   0.000000   0.000000   0.000000   4.227183   0.000000
     6  H    0.000000   0.000000   0.000000   0.000000   0.000000   0.873464
     7  H    0.000000   0.000000   0.000000   0.000000   0.000000   0.000000
     8  C    0.000000   0.000000   0.000000   0.000000   0.000000   0.000000
     9  H    0.000000   0.000000   0.000000   0.000000   0.000000   0.000000
    10  H    0.000000   0.000000   0.000000   0.000000   0.000000   0.000000
    11  C    0.000000   0.000000   0.000000   0.000000   0.000000   0.000000
    12  H    0.000000   0.000000   0.000000   0.000000   0.000000   0.000000
    13  H    0.000000   0.000000   0.000000   0.000000   0.000000   0.000000
    14  H    0.000000   0.000000   0.000000   0.000000   0.000000   0.000000
               7          8          9         10         11         12
     1  C    0.000000   0.000000   0.000000   0.000000   0.000000   0.000000
     2  H    0.000000   0.000000   0.000000   0.000000   0.000000   0.000000
     3  H    0.000000   0.000000   0.000000   0.000000   0.000000   0.000000
     4  H    0.000000   0.000000   0.000000   0.000000   0.000000   0.000000
     5  C    0.000000   0.000000   0.000000   0.000000   0.000000   0.000000
     6  H    0.000000   0.000000   0.000000   0.000000   0.000000   0.000000
     7  H    0.873464   0.000000   0.000000   0.000000   0.000000   0.000000
     8  C    0.000000   4.227183   0.000000   0.000000   0.000000   0.000000
     9  H    0.000000   0.000000   0.873464   0.000000   0.000000   0.000000
    10  H    0.000000   0.000000   0.000000   0.873464   0.000000   0.000000
    11  C    0.000000   0.000000   0.000000   0.000000   4.463483   0.000000
    12  H    0.000000   0.000000   0.000000   0.000000   0.000000   0.853657
    13  H    0.000000   0.000000   0.000000   0.000000   0.000000   0.000000
    14  H    0.000000   0.000000   0.000000   0.000000   0.000000   0.000000
              13         14
     1  C    0.000000   0.000000
     2  H    0.000000   0.000000
     3  H    0.000000   0.000000
     4  H    0.000000   0.000000
     5  C    0.000000   0.000000
     6  H    0.000000   0.000000
     7  H    0.000000   0.000000
     8  C    0.000000   0.000000
     9  H    0.000000   0.000000
    10  H    0.000000   0.000000
    11  C    0.000000   0.000000
    12  H    0.000000   0.000000
    13  H    0.855092   0.000000
    14  H    0.000000   0.853657
 Mulliken charges:
               1
     1  C   -0.463483
     2  H    0.144908
     3  H    0.146343
     4  H    0.146343
     5  C   -0.227183
     6  H    0.126536
     7  H    0.126536
     8  C   -0.227183
     9  H    0.126536
    10  H    0.126536
    11  C   -0.463483
    12  H    0.146343
    13  H    0.144908
    14  H    0.146343
 Sum of Mulliken charges =  -0.00000
 Mulliken charges with hydrogens summed into heavy atoms:
               1
     1  C   -0.025889
     5  C    0.025889
     8  C    0.025889
    11  C   -0.025889
 Charge=              0.0000 electrons
 Dipole moment (field-independent basis, Debye):
    X=             -0.0000    Y=             -0.0000    Z=              0.0000  Tot=              0.0000
 N-N= 9.120338214195D+01 E-N=-1.303410059626D+02  KE=-3.631236529323D+01
 Leave Link  601 at Fri Mar 29 17:12:38 2024, MaxMem=   134217728 cpu:               0.2 elap:               0.0
 (Enter /home/emanuele/chem_software/gaussian//gdv/l701.exe)
 ... and contract with generalized density number  0.
 Compute integral first derivatives.
 Leave Link  701 at Fri Mar 29 17:12:38 2024, MaxMem=   134217728 cpu:               0.2 elap:               0.1
 (Enter /home/emanuele/chem_software/gaussian//gdv/l702.exe)
 L702 exits ... SP integral derivatives will be done elsewhere.
 Leave Link  702 at Fri Mar 29 17:12:38 2024, MaxMem=   134217728 cpu:               0.1 elap:               0.0
 (Enter /home/emanuele/chem_software/gaussian//gdv/l703.exe)
 Integral derivatives from FoFJK, PRISM(SPDF).
 Compute integral first derivatives, UseDBF=F ICtDFT=           0.
 Calling FoFJK, ICntrl=      2127 FMM=F ISym2X=0 I1Cent= 0 IOpClX= 0 NMat=1 NMatS=1 NMatT=0.
 FoFJK:  IHMeth=40 ICntrl=    2127 DoSepK=F KAlg= 0 I1Cent=           0 FoldK=F
 IRaf=         0 NMat=       1 IRICut=       1 DoRegI=T DoRafI=F ISym2E= 0 IDoP0=3 IntGTp=3.
 FoFCou: FMM=F IPFlag=           0 FMFlag=      100000 FMFlg1=         800
         NFxFlg=           0 DoJE=F BraDBF=F KetDBF=F FulRan=T
         wScrn=  0.000000 ICntrl=      2127 IOpCl=  0 I1Cent=           0 NGrid=           0
         NMat0=    1 NMatS0=      1 NMatT0=    0 NMatD0=    1 NMtDS0=    0 NMtDT0=    0
 Symmetry not used in FoFCou.
 Leave Link  703 at Fri Mar 29 17:12:38 2024, MaxMem=   134217728 cpu:               0.2 elap:               0.0
 (Enter /home/emanuele/chem_software/gaussian//gdv/l716.exe)
 Dipole        =-1.42108547D-14-3.64153152D-14-3.55271368D-15
 -------------------------------------------------------------------
 Center     Atomic                   Forces (Hartrees/Bohr)
 Number     Number              X              Y              Z
 -------------------------------------------------------------------
      1        6          -0.001029910    0.004081518    0.000671838
      2        1           0.000873344   -0.001847053    0.000361294
      3        1           0.000487931    0.000448950   -0.002203871
      4        1          -0.002173936   -0.000491070   -0.000574970
      5        6           0.000833928   -0.001856655    0.000291651
      6        1           0.007581629   -0.001026422    0.000317373
      7        1          -0.001789565   -0.004336015    0.006052413
      8        6          -0.000833928    0.001856655   -0.000291651
      9        1           0.001789565    0.004336015   -0.006052413
     10        1          -0.007581629    0.001026422   -0.000317373
     11        6           0.001029910   -0.004081518   -0.000671838
     12        1           0.002173936    0.000491070    0.000574970
     13        1          -0.000873344    0.001847053   -0.000361294
     14        1          -0.000487931   -0.000448950    0.002203871
 -------------------------------------------------------------------
 Cartesian Forces:  Max     0.007581629 RMS     0.002713006
 Leave Link  716 at Fri Mar 29 17:12:38 2024, MaxMem=   134217728 cpu:               0.2 elap:               0.0
 (Enter /home/emanuele/chem_software/gaussian//gdv/l103.exe)

 GradGradGradGradGradGradGradGradGradGradGradGradGradGradGradGradGradGrad
 Berny optimization.
 FormGI is forming the generalized inverse of G from B-inverse, IUseBI=4.
 Internal  Forces:  Max     0.007604897 RMS     0.002481844
 Search for a local minimum.
 Step number   1 out of a maximum of  100 on scan point     1 out of    11
 All quantities printed in internal units (Hartrees-Bohrs-Radians)
 RMS Force = .25015D-02 SwitMx=.10000D-02 MixMth= 1
 Mixed Optimization -- RFO/linear search
 Second derivative matrix not updated -- first step.
 ITU=  0
     Eigenvalues ---    0.00403   0.00403   0.01529   0.03467   0.04824
     Eigenvalues ---    0.04824   0.05471   0.05471   0.05520   0.05520
     Eigenvalues ---    0.08489   0.08489   0.10808   0.12313   0.16000
     Eigenvalues ---    0.16000   0.16000   0.16000   0.16000   0.16000
     Eigenvalues ---    0.21901   0.21901   0.29508   0.29663   0.29663
     Eigenvalues ---    0.34288   0.34288   0.34288   0.34288   0.34558
     Eigenvalues ---    0.34558   0.34558   0.34558   0.34689   0.34689
     Eigenvalues --- 1000.000001000.000001000.000001000.000001000.00000
     Eigenvalues --- 1000.000001000.000001000.000001000.000001000.00000
     Eigenvalues --- 1000.000001000.000001000.000001000.000001000.00000
     Eigenvalues --- 1000.000001000.000001000.000001000.000001000.00000
     Eigenvalues --- 1000.000001000.000001000.000001000.000001000.00000
     Eigenvalues --- 1000.000001000.000001000.000001000.00000
 RFO step:  Lambda=-1.36945783D-03 EMin= 4.03234549D-03
 Linear search not attempted -- first point.
 Iteration  1 RMS(Cart)=  0.01264815 RMS(Int)=  0.00007858
 Iteration  2 RMS(Cart)=  0.00015090 RMS(Int)=  0.00004427
 Iteration  3 RMS(Cart)=  0.00000001 RMS(Int)=  0.00004427
 Fixing frozen coordinates.
 Iteration  1 RMS(Cart)=  0.00000000 RMS(Int)=  0.00000000
 ITry= 1 IFail=0 DXMaxC= 3.63D-02 DCOld= 1.00D+10 DXMaxT= 3.00D-01 DXLimC= 3.00D+00 Rises=F
 Variable       Old X    -DE/DX   Delta X   Delta X   Delta X     New X
                                 (Linear)    (Quad)   (Total)
    R1        2.06182   0.00203   0.00000   0.00582   0.00582   2.06764
    R2        2.06399   0.00220   0.00000   0.00635   0.00635   2.07033
    R3        2.06398   0.00220   0.00000   0.00635   0.00635   2.07033
    R4        2.88641   0.00094   0.00000   0.00314   0.00314   2.88955
    R5        2.06847   0.00760   0.00000   0.02209   0.02209   2.09057
    R6        2.06847   0.00760   0.00000   0.02209   0.02209   2.09057
    R7        2.88955   0.00606   0.00000   0.02046   0.02046   2.91000
    R8        2.06847   0.00760   0.00000   0.02209   0.02209   2.09057
    R9        2.06847   0.00760   0.00000   0.02209   0.02209   2.09057
   R10        2.88641   0.00094   0.00000   0.00314   0.00314   2.88955
   R11        2.06398   0.00220   0.00000   0.00635   0.00635   2.07033
   R12        2.06182   0.00203   0.00000   0.00582   0.00582   2.06764
   R13        2.06399   0.00220   0.00000   0.00635   0.00635   2.07033
    A1        1.87879  -0.00012   0.00000  -0.00227  -0.00225   1.87654
    A2        1.87879  -0.00012   0.00000  -0.00227  -0.00225   1.87654
    A3        1.94646  -0.00105   0.00000  -0.00810  -0.00809   1.93837
    A4        1.87608  -0.00066   0.00000  -0.00099  -0.00103   1.87504
    A5        1.94028   0.00095   0.00000   0.00667   0.00665   1.94692
    A6        1.94028   0.00095   0.00000   0.00667   0.00665   1.94692
    A7        1.91120   0.00127   0.00000   0.00224   0.00230   1.91350
    A8        1.91120   0.00127   0.00000   0.00224   0.00230   1.91350
    A9        1.97867  -0.00543   0.00000  -0.02577  -0.02574   1.95292
   A10        1.84959  -0.00112   0.00000  -0.00114  -0.00124   1.84834
   A11        1.90436   0.00214   0.00000   0.01206   0.01198   1.91634
   A12        1.90436   0.00214   0.00000   0.01206   0.01198   1.91634
   A13        1.90436   0.00214   0.00000   0.01206   0.01198   1.91634
   A14        1.90436   0.00214   0.00000   0.01206   0.01198   1.91634
   A15        1.97867  -0.00543   0.00000  -0.02577  -0.02574   1.95292
   A16        1.84959  -0.00112   0.00000  -0.00114  -0.00124   1.84834
   A17        1.91120   0.00127   0.00000   0.00224   0.00230   1.91350
   A18        1.91120   0.00127   0.00000   0.00224   0.00230   1.91350
   A19        1.94028   0.00095   0.00000   0.00667   0.00665   1.94692
   A20        1.94646  -0.00105   0.00000  -0.00810  -0.00809   1.93837
   A21        1.94028   0.00095   0.00000   0.00667   0.00665   1.94692
   A22        1.87879  -0.00012   0.00000  -0.00227  -0.00225   1.87654
   A23        1.87608  -0.00066   0.00000  -0.00099  -0.00103   1.87504
   A24        1.87879  -0.00012   0.00000  -0.00227  -0.00225   1.87654
    D1        1.01051   0.00005   0.00000   0.00058   0.00056   1.01107
    D2       -1.01051  -0.00005   0.00000  -0.00058  -0.00056  -1.01107
    D3        3.14159  -0.00000   0.00000  -0.00000  -0.00000   3.14159
    D4       -1.08642   0.00026   0.00000   0.00440   0.00440  -1.08202
    D5       -3.10744   0.00017   0.00000   0.00324   0.00328  -3.10415
    D6        1.04467   0.00022   0.00000   0.00382   0.00384   1.04851
    D7        3.10744  -0.00017   0.00000  -0.00324  -0.00328   3.10415
    D8        1.08642  -0.00026   0.00000  -0.00440  -0.00440   1.08202
    D9       -1.04467  -0.00022   0.00000  -0.00382  -0.00384  -1.04851
   D10       -1.00671  -0.00051   0.00000  -0.00593  -0.00598  -1.01269
   D11        1.00671   0.00051   0.00000   0.00593   0.00599   1.01269
   D12        3.14159   0.00000   0.00000   0.00000   0.00000   3.14159
   D13        1.12818  -0.00101   0.00000  -0.01185  -0.01197   1.11621
   D14        3.14159   0.00000   0.00000   0.00000   0.00000   3.14159
   D15       -1.00671  -0.00051   0.00000  -0.00593  -0.00599  -1.01269
   D16        3.14159  -0.00000   0.00000   0.00000  -0.00000   3.14159
   D17       -1.12818   0.00101   0.00000   0.01185   0.01197  -1.11621
   D18        1.00671   0.00051   0.00000   0.00593   0.00598   1.01269
   D19        1.04467   0.00022   0.00000   0.00382   0.00384   1.04851
   D20       -3.14159   0.00000   0.00000   0.00000   0.00000  -3.14159
   D21       -1.04467  -0.00022   0.00000  -0.00382  -0.00384  -1.04851
   D22       -1.08642   0.00026   0.00000   0.00440   0.00440  -1.08202
   D23        1.01051   0.00005   0.00000   0.00058   0.00056   1.01107
   D24        3.10744  -0.00017   0.00000  -0.00324  -0.00328   3.10415
   D25       -3.10744   0.00017   0.00000   0.00324   0.00328  -3.10415
   D26       -1.01051  -0.00005   0.00000  -0.00058  -0.00056  -1.01107
   D27        1.08642  -0.00026   0.00000  -0.00440  -0.00440   1.08202
         Item               Value     Threshold  Converged?
 Maximum Force            0.007605     0.000450     NO 
 RMS     Force            0.002501     0.000300     NO 
 Maximum Displacement     0.036285     0.001800     NO 
 RMS     Displacement     0.012712     0.001200     NO 
 Predicted change in Energy=-6.893516D-04
 Lowest energy point so far.  Saving SCF results.
 GradGradGradGradGradGradGradGradGradGradGradGradGradGradGradGradGradGrad

 Leave Link  103 at Fri Mar 29 17:12:38 2024, MaxMem=   134217728 cpu:               0.1 elap:               0.0
 (Enter /home/emanuele/chem_software/gaussian//gdv/l202.exe)
                          Input orientation:                          
 ---------------------------------------------------------------------
 Center     Atomic      Atomic             Coordinates (Angstroms)
 Number     Number       Type             X           Y           Z
 ---------------------------------------------------------------------
      1          6           0       -2.493651    0.357658   -0.005988
      2          1           0       -2.137431   -0.676772   -0.020849
      3          1           0       -2.145719    0.839501   -0.926342
      4          1           0       -3.588233    0.330069   -0.043542
      5          6           0       -1.992680    1.093517    1.237246
      6          1           0       -0.886977    1.069127    1.263351
      7          1           0       -2.329184    0.559804    2.145965
      8          6           0       -2.483296    2.552621    1.277564
      9          1           0       -2.146792    3.086334    0.368845
     10          1           0       -3.588999    2.577011    1.251459
     11          6           0       -1.982324    3.288480    2.520798
     12          1           0       -0.887743    3.316069    2.558352
     13          1           0       -2.338545    4.322911    2.535659
     14          1           0       -2.330256    2.806637    3.441152
 ---------------------------------------------------------------------
                    Distance matrix (angstroms):
                    1          2          3          4          5
     1  C    0.000000
     2  H    1.094148   0.000000
     3  H    1.095573   1.766089   0.000000
     4  H    1.095573   1.766089   1.766268   0.000000
     5  C    1.529082   2.176621   2.183817   2.183817   0.000000
     6  H    2.167675   2.502193   2.536123   3.090463   1.106280
     7  H    2.167675   2.502194   3.090463   2.536123   1.106280
     8  C    2.542731   3.497783   2.811751   2.811751   1.539908
     9  H    2.776056   3.783242   2.593409   3.137645   2.179264
    10  H    2.776056   3.783242   3.137645   2.593410   2.179264
    11  C    3.903310   4.712458   4.231664   4.231664   2.542731
    12  H    4.231664   4.914955   4.456342   4.793609   2.811751
    13  H    4.712458   5.618987   4.914955   4.914955   3.497783
    14  H    4.231664   4.914955   4.793609   4.456342   2.811751
                    6          7          8          9         10
     6  H    0.000000
     7  H    1.765893   0.000000
     8  C    2.179264   2.179264   0.000000
     9  H    2.540944   3.094314   1.106280   0.000000
    10  H    3.094313   2.540944   1.106280   1.765893   0.000000
    11  C    2.776056   2.776056   1.529082   2.167675   2.167675
    12  H    2.593410   3.137645   2.183817   2.536123   3.090463
    13  H    3.783242   3.783242   2.176621   2.502194   2.502193
    14  H    3.137645   2.593409   2.183817   3.090463   2.536123
                   11         12         13         14
    11  C    0.000000
    12  H    1.095573   0.000000
    13  H    1.094148   1.766089   0.000000
    14  H    1.095573   1.766268   1.766089   0.000000
 Symmetry turned off by external request.
 Stoichiometry    C4H10
 Framework group  CI[X(C4H10)]
 Deg. of freedom    18
 Full point group                 CI      NOp   2
 Rotational constants (GHZ):          22.9464172           3.6456906           3.4130121
 Leave Link  202 at Fri Mar 29 17:12:38 2024, MaxMem=   134217728 cpu:               0.1 elap:               0.0
 (Enter /home/emanuele/chem_software/gaussian//gdv/l301.exe)
 Standard basis: VSTO-6G (5D, 7F)
 Ernie: Thresh=  0.10000D-02 Tol=  0.10000D-05 Strict=F.
  NNHCO=     0 NNPyr=     0 NCTC=     0               EPep=         0.000000000
    EC=        65.639203986  ECS=         2.230601588   EG=         0.197541392
   EHC=         0.000329371  EAt=       -21.067501684  AtH=         1.919620419
 EPDDG=         0.000000000  ECC=        68.067676337 EAtT=        22.987122103
    26 basis functions,   156 primitive gaussians,    26 cartesian basis functions
    13 alpha electrons       13 beta electrons
       nuclear repulsion energy        91.0547984404 Hartrees.
 IExCor=       0 DFT=F Ex=HF Corr=None N6=None ScaHFX=  1.000000
 ScaDFX=  1.000000  1.000000  1.000000  1.000000  1.000000  0.000000
 ScaDFX=  0.000000  0.000000  0.000000  0.000000  0.000000  0.000000
 IRadAn=      5 IRanWt=     -1 IRanGd=            0 ICorTp=0 IEmpDi=  4
 Integral buffers will be    131072 words long.
 Regular integral format.
 Two-electron integral symmetry is turned off.
 Leave Link  301 at Fri Mar 29 17:12:38 2024, MaxMem=   134217728 cpu:               0.2 elap:               0.1
 (Enter /home/emanuele/chem_software/gaussian//gdv/l302.exe)
 Do NDO integrals.
 NPDir=0 NMtPBC=     1 NCelOv=     1 NCel=       1 NClECP=     1 NCelD=      1
         NCelK=      1 NCelE2=     1 NClLst=     1 CellRange=     0.0.
 One-electron integrals computed using PRISM.
 NBasis=    26 RedAO= F EigKep=  0.00D+00  NBF=    26
 NBsUse=    26 1.00D-04 EigRej=  0.00D+00 NBFU=    26
 Leave Link  302 at Fri Mar 29 17:12:38 2024, MaxMem=   134217728 cpu:               0.3 elap:               0.1
 (Enter /home/emanuele/chem_software/gaussian//gdv/l303.exe)
 DipDrv:  MaxL=1.
 Leave Link  303 at Fri Mar 29 17:12:38 2024, MaxMem=   134217728 cpu:               0.1 elap:               0.0
 (Enter /home/emanuele/chem_software/gaussian//gdv/l401.exe)
 Initial guess from the checkpoint file:  "1_qm.chk"
 B after Tr=     0.000000    0.000000    0.000000
         Rot=    1.000000    0.000000    0.000000    0.000000 Ang=   0.00 deg.
 AO Guess basis will be translated and rotated to current coordinates.
 JPrj=0 DoOrth=T DoCkMO=T.
 Leave Link  401 at Fri Mar 29 17:12:38 2024, MaxMem=   134217728 cpu:               0.8 elap:               0.2
 (Enter /home/emanuele/chem_software/gaussian//gdv/l502.exe)
 Keep J ints in memory in canonical form, NReq=861102.
 FoFCou: FMM=F IPFlag=           0 FMFlag=           0 FMFlg1=           0
         NFxFlg=           0 DoJE=F BraDBF=F KetDBF=F FulRan=T
         wScrn=  0.000000 ICntrl=       600 IOpCl=  2 I1Cent=           0 NGrid=           0
         NMat0=    1 NMatS0=     50 NMatT0=    0 NMatD0=    1 NMtDS0=    0 NMtDT0=    0
 Symmetry not used in FoFCou.
 Two-electron integral symmetry not used.
 Closed shell SCF:
 Using DIIS extrapolation, IDIIS=  1040.
 Overlap will be assumed to be unity.
 NGot=   134217728 LenX=   134154919 LenY=   134153802
 Requested convergence on RMS density matrix=1.00D-08 within 128 cycles.
 Requested convergence on MAX density matrix=1.00D-06.
 Requested convergence on             energy=1.00D-06.
 No special actions if energy rises.

 Cycle   1  Pass 1  IDiag  1:
 E=-0.413024875654173E-01
 DIIS: error= 6.65D-04 at cycle   1 NSaved=   1.
 NSaved= 1 IEnMin= 1 EnMin=-0.413024875654173E-01 IErMin= 1 ErrMin= 6.65D-04
 ErrMax= 6.65D-04  0.00D+00 EMaxC= 1.00D-01 BMatC= 2.50D-05 BMatP= 2.50D-05
 IDIUse=3 WtCom= 9.93D-01 WtEn= 6.65D-03
 Coeff-Com:  0.100D+01
 Coeff-En:   0.100D+01
 Coeff:      0.100D+01
 RMSDP=3.21D-04 MaxDP=1.98D-03              OVMax= 0.00D+00

 Cycle   2  Pass 1  IDiag  3:
 E=-0.413818566729844E-01 Delta-E=       -0.000079369108 Rises=F Damp=F
 DIIS: error= 1.99D-04 at cycle   2 NSaved=   2.
 NSaved= 2 IEnMin= 2 EnMin=-0.413818566729844E-01 IErMin= 2 ErrMin= 1.99D-04
 ErrMax= 1.99D-04  0.00D+00 EMaxC= 1.00D-01 BMatC= 3.51D-06 BMatP= 2.50D-05
 IDIUse=3 WtCom= 9.98D-01 WtEn= 1.99D-03
 Coeff-Com: -0.525D+00 0.153D+01
 Coeff-En:   0.000D+00 0.100D+01
 Coeff:     -0.524D+00 0.152D+01
 Gap=     0.564 Goal=   None    Shift=    0.000
 RMSDP=2.00D-04 MaxDP=8.86D-04 DE=-7.94D-05 OVMax= 1.70D-03

 Cycle   3  Pass 1  IDiag  3:
 E=-0.413972112767311E-01 Delta-E=       -0.000015354604 Rises=F Damp=F
 DIIS: error= 3.89D-05 at cycle   3 NSaved=   3.
 NSaved= 3 IEnMin= 3 EnMin=-0.413972112767311E-01 IErMin= 3 ErrMin= 3.89D-05
 ErrMax= 3.89D-05  0.00D+00 EMaxC= 1.00D-01 BMatC= 1.07D-07 BMatP= 3.51D-06
 IDIUse=1 WtCom= 1.00D+00 WtEn= 0.00D+00
 Coeff-Com:  0.262D+00-0.847D+00 0.158D+01
 Coeff:      0.262D+00-0.847D+00 0.158D+01
 Gap=     0.564 Goal=   None    Shift=    0.000
 RMSDP=4.59D-05 MaxDP=2.40D-04 DE=-1.54D-05 OVMax= 3.17D-04

 Cycle   4  Pass 1  IDiag  3:
 E=-0.413978071598819E-01 Delta-E=       -0.000000595883 Rises=F Damp=F
 DIIS: error= 5.76D-06 at cycle   4 NSaved=   4.
 NSaved= 4 IEnMin= 4 EnMin=-0.413978071598819E-01 IErMin= 4 ErrMin= 5.76D-06
 ErrMax= 5.76D-06  0.00D+00 EMaxC= 1.00D-01 BMatC= 3.36D-09 BMatP= 1.07D-07
 IDIUse=1 WtCom= 1.00D+00 WtEn= 0.00D+00
 Coeff-Com: -0.151D+00 0.492D+00-0.984D+00 0.164D+01
 Coeff:     -0.151D+00 0.492D+00-0.984D+00 0.164D+01
 Gap=     0.564 Goal=   None    Shift=    0.000
 RMSDP=8.30D-06 MaxDP=4.14D-05 DE=-5.96D-07 OVMax= 7.01D-05

 Cycle   5  Pass 1  IDiag  3:
 E=-0.413978277765210E-01 Delta-E=       -0.000000020617 Rises=F Damp=F
 DIIS: error= 2.43D-06 at cycle   5 NSaved=   5.
 NSaved= 5 IEnMin= 5 EnMin=-0.413978277765210E-01 IErMin= 5 ErrMin= 2.43D-06
 ErrMax= 2.43D-06  0.00D+00 EMaxC= 1.00D-01 BMatC= 2.63D-10 BMatP= 3.36D-09
 IDIUse=1 WtCom= 1.00D+00 WtEn= 0.00D+00
 Coeff-Com:  0.117D+00-0.381D+00 0.768D+00-0.144D+01 0.193D+01
 Coeff:      0.117D+00-0.381D+00 0.768D+00-0.144D+01 0.193D+01
 Gap=     0.564 Goal=   None    Shift=    0.000
 RMSDP=2.80D-06 MaxDP=1.78D-05 DE=-2.06D-08 OVMax= 1.71D-05

 Cycle   6  Pass 1  IDiag  3:
 E=-0.413978296098350E-01 Delta-E=       -0.000000001833 Rises=F Damp=F
 DIIS: error= 4.34D-07 at cycle   6 NSaved=   6.
 NSaved= 6 IEnMin= 6 EnMin=-0.413978296098350E-01 IErMin= 6 ErrMin= 4.34D-07
 ErrMax= 4.34D-07  0.00D+00 EMaxC= 1.00D-01 BMatC= 9.80D-12 BMatP= 2.63D-10
 IDIUse=1 WtCom= 1.00D+00 WtEn= 0.00D+00
 Coeff-Com: -0.558D-01 0.181D+00-0.366D+00 0.697D+00-0.106D+01 0.160D+01
 Coeff:     -0.558D-01 0.181D+00-0.366D+00 0.697D+00-0.106D+01 0.160D+01
 Gap=     0.564 Goal=   None    Shift=    0.000
 RMSDP=4.95D-07 MaxDP=3.38D-06 DE=-1.83D-09 OVMax= 2.86D-06

 Cycle   7  Pass 1  IDiag  3:
 E=-0.413978296719932E-01 Delta-E=       -0.000000000062 Rises=F Damp=F
 DIIS: error= 5.95D-08 at cycle   7 NSaved=   7.
 NSaved= 7 IEnMin= 7 EnMin=-0.413978296719932E-01 IErMin= 7 ErrMin= 5.95D-08
 ErrMax= 5.95D-08  0.00D+00 EMaxC= 1.00D-01 BMatC= 2.94D-13 BMatP= 9.80D-12
 IDIUse=1 WtCom= 1.00D+00 WtEn= 0.00D+00
 Coeff-Com:  0.189D-01-0.612D-01 0.123D+00-0.235D+00 0.363D+00-0.667D+00
 Coeff-Com:  0.146D+01
 Coeff:      0.189D-01-0.612D-01 0.123D+00-0.235D+00 0.363D+00-0.667D+00
 Coeff:      0.146D+01
 Gap=     0.564 Goal=   None    Shift=    0.000
 RMSDP=8.13D-08 MaxDP=4.53D-07 DE=-6.22D-11 OVMax= 6.65D-07

 Cycle   8  Pass 1  IDiag  3:
 E=-0.413978296735422E-01 Delta-E=       -0.000000000002 Rises=F Damp=F
 DIIS: error= 1.15D-08 at cycle   8 NSaved=   8.
 NSaved= 8 IEnMin= 8 EnMin=-0.413978296735422E-01 IErMin= 8 ErrMin= 1.15D-08
 ErrMax= 1.15D-08  0.00D+00 EMaxC= 1.00D-01 BMatC= 6.23D-15 BMatP= 2.94D-13
 IDIUse=1 WtCom= 1.00D+00 WtEn= 0.00D+00
 Coeff-Com: -0.476D-02 0.154D-01-0.308D-01 0.590D-01-0.918D-01 0.184D+00
 Coeff-Com: -0.524D+00 0.139D+01
 Coeff:     -0.476D-02 0.154D-01-0.308D-01 0.590D-01-0.918D-01 0.184D+00
 Coeff:     -0.524D+00 0.139D+01
 Gap=     0.564 Goal=   None    Shift=    0.000
 RMSDP=9.56D-09 MaxDP=5.84D-08 DE=-1.55D-12 OVMax= 5.42D-08

 Cycle   9  Pass 2  IDiag  1:
 SCF Done:  E(RPM6) = -0.413978296735E-01 A.U. after    9 cycles
            NFock=  8  Conv=0.96D-08     -V/T= 0.9989
 KE=-3.627729248624D+01 PE=-1.301523097969D+02 EE= 7.533340601306D+01
 Leave Link  502 at Fri Mar 29 17:12:38 2024, MaxMem=   134217728 cpu:               0.2 elap:               0.0
 (Enter /home/emanuele/chem_software/gaussian//gdv/l701.exe)
 ... and contract with generalized density number  0.
 Compute integral first derivatives.
 Leave Link  701 at Fri Mar 29 17:12:38 2024, MaxMem=   134217728 cpu:               0.2 elap:               0.1
 (Enter /home/emanuele/chem_software/gaussian//gdv/l702.exe)
 L702 exits ... SP integral derivatives will be done elsewhere.
 Leave Link  702 at Fri Mar 29 17:12:38 2024, MaxMem=   134217728 cpu:               0.1 elap:               0.0
 (Enter /home/emanuele/chem_software/gaussian//gdv/l703.exe)
 Integral derivatives from FoFJK, PRISM(SPDF).
 Compute integral first derivatives, UseDBF=F ICtDFT=           0.
 Calling FoFJK, ICntrl=      2127 FMM=F ISym2X=0 I1Cent= 0 IOpClX= 0 NMat=1 NMatS=1 NMatT=0.
 FoFJK:  IHMeth=40 ICntrl=    2127 DoSepK=F KAlg= 0 I1Cent=           0 FoldK=F
 IRaf=         0 NMat=       1 IRICut=       1 DoRegI=T DoRafI=F ISym2E= 0 IDoP0=3 IntGTp=3.
 FoFCou: FMM=F IPFlag=           0 FMFlag=      100000 FMFlg1=         800
         NFxFlg=           0 DoJE=F BraDBF=F KetDBF=F FulRan=T
         wScrn=  0.000000 ICntrl=      2127 IOpCl=  0 I1Cent=           0 NGrid=           0
         NMat0=    1 NMatS0=      1 NMatT0=    0 NMatD0=    1 NMtDS0=    0 NMtDT0=    0
 Symmetry not used in FoFCou.
 Leave Link  703 at Fri Mar 29 17:12:38 2024, MaxMem=   134217728 cpu:               0.1 elap:               0.0
 (Enter /home/emanuele/chem_software/gaussian//gdv/l716.exe)
 Dipole        = 4.71055195D-10 1.54640745D-11-1.31295774D-09
 -------------------------------------------------------------------
 Center     Atomic                   Forces (Hartrees/Bohr)
 Number     Number              X              Y              Z
 -------------------------------------------------------------------
      1        6           0.000110688    0.001595925    0.001101602
      2        1           0.000154896   -0.000644724   -0.000118894
      3        1          -0.000006481    0.000011389   -0.000091903
      4        1          -0.000078321   -0.000013974   -0.000047990
      5        6          -0.001254574    0.001816084   -0.001001911
      6        1           0.000352172    0.000251170    0.000192797
      7        1          -0.000078543    0.000099076    0.000456343
      8        6           0.001254574   -0.001816084    0.001001911
      9        1           0.000078543   -0.000099076   -0.000456343
     10        1          -0.000352172   -0.000251169   -0.000192796
     11        6          -0.000110688   -0.001595925   -0.001101602
     12        1           0.000078321    0.000013974    0.000047990
     13        1          -0.000154896    0.000644724    0.000118894
     14        1           0.000006481   -0.000011389    0.000091903
 -------------------------------------------------------------------
 Cartesian Forces:  Max     0.001816084 RMS     0.000709402
 Leave Link  716 at Fri Mar 29 17:12:38 2024, MaxMem=   134217728 cpu:               0.1 elap:               0.0
 (Enter /home/emanuele/chem_software/gaussian//gdv/l103.exe)

 GradGradGradGradGradGradGradGradGradGradGradGradGradGradGradGradGradGrad
 Berny optimization.
 Using GEDIIS/GDIIS optimizer.
 FormGI is forming the generalized inverse of G from B-inverse, IUseBI=4.
 Internal  Forces:  Max     0.003219259 RMS     0.000514445
 Search for a local minimum.
 Step number   2 out of a maximum of  100 on scan point     1 out of    11
 All quantities printed in internal units (Hartrees-Bohrs-Radians)
 RMS Force = .51851D-03 SwitMx=.10000D-02 MixMth= 2
 Mixed Optimization -- En-DIIS/RFO-DIIS
 Update second derivatives using D2CorX and points    1    2
 DE= -6.84D-04 DEPred=-6.89D-04 R= 9.92D-01
 TightC=F SS=  1.41D+00  RLast= 7.41D-02 DXNew= 5.0454D-01 2.2215D-01
 Trust test= 9.92D-01 RLast= 7.41D-02 DXMaxT set to 3.00D-01
 ITU=  1  0
 Use linear search instead of GDIIS.
     Eigenvalues ---    0.00403   0.00403   0.01576   0.03592   0.04829
     Eigenvalues ---    0.04849   0.05452   0.05462   0.05503   0.05503
     Eigenvalues ---    0.08255   0.08428   0.10622   0.12142   0.15922
     Eigenvalues ---    0.16000   0.16000   0.16000   0.16000   0.16051
     Eigenvalues ---    0.19736   0.21862   0.29472   0.29663   0.30110
     Eigenvalues ---    0.34288   0.34288   0.34288   0.34382   0.34537
     Eigenvalues ---    0.34558   0.34558   0.34558   0.34689   0.37321
     Eigenvalues --- 1000.000001000.000001000.000001000.000001000.00000
     Eigenvalues --- 1000.000001000.000001000.000001000.000001000.00000
     Eigenvalues --- 1000.000001000.000001000.000001000.000001000.00000
     Eigenvalues --- 1000.000001000.000001000.000001000.000001000.00000
     Eigenvalues --- 1000.000001000.000001000.000001000.000001000.00000
     Eigenvalues --- 1000.000001000.000001000.000001000.00000
 RFO step:  Lambda=-6.49771805D-05 EMin= 4.03234549D-03
 Quartic linear search produced a step of  0.00492.
 Iteration  1 RMS(Cart)=  0.00565985 RMS(Int)=  0.00000614
 Iteration  2 RMS(Cart)=  0.00000767 RMS(Int)=  0.00000350
 Iteration  3 RMS(Cart)=  0.00000000 RMS(Int)=  0.00000350
 Fixing frozen coordinates.
 Iteration  1 RMS(Cart)=  0.00000000 RMS(Int)=  0.00000000
 ITry= 1 IFail=0 DXMaxC= 1.17D-02 DCOld= 1.00D+10 DXMaxT= 3.00D-01 DXLimC= 3.00D+00 Rises=F
 Variable       Old X    -DE/DX   Delta X   Delta X   Delta X     New X
                                 (Linear)    (Quad)   (Total)
    R1        2.06764   0.00066   0.00003   0.00217   0.00219   2.06983
    R2        2.07033   0.00008   0.00003   0.00051   0.00054   2.07087
    R3        2.07033   0.00008   0.00003   0.00051   0.00054   2.07087
    R4        2.88955  -0.00120   0.00002  -0.00393  -0.00392   2.88563
    R5        2.09057   0.00035   0.00011   0.00197   0.00208   2.09265
    R6        2.09057   0.00035   0.00011   0.00197   0.00208   2.09265
    R7        2.91000  -0.00322   0.00010  -0.01008  -0.00998   2.90002
    R8        2.09057   0.00035   0.00011   0.00197   0.00208   2.09265
    R9        2.09057   0.00035   0.00011   0.00197   0.00208   2.09265
   R10        2.88955  -0.00120   0.00002  -0.00393  -0.00392   2.88563
   R11        2.07033   0.00008   0.00003   0.00051   0.00054   2.07087
   R12        2.06764   0.00066   0.00003   0.00217   0.00219   2.06983
   R13        2.07033   0.00008   0.00003   0.00051   0.00054   2.07087
    A1        1.87654  -0.00009  -0.00001  -0.00051  -0.00052   1.87602
    A2        1.87654  -0.00009  -0.00001  -0.00051  -0.00052   1.87602
    A3        1.93837   0.00017  -0.00004   0.00086   0.00082   1.93919
    A4        1.87504  -0.00005  -0.00001  -0.00062  -0.00063   1.87441
    A5        1.94692   0.00002   0.00003   0.00034   0.00037   1.94730
    A6        1.94692   0.00002   0.00003   0.00034   0.00037   1.94730
    A7        1.91350   0.00042   0.00001   0.00330   0.00330   1.91680
    A8        1.91350   0.00042   0.00001   0.00330   0.00330   1.91680
    A9        1.95292  -0.00074  -0.00013  -0.00481  -0.00494   1.94798
   A10        1.84834  -0.00013  -0.00001   0.00032   0.00031   1.84865
   A11        1.91634   0.00004   0.00006  -0.00089  -0.00083   1.91551
   A12        1.91634   0.00004   0.00006  -0.00089  -0.00083   1.91551
   A13        1.91634   0.00004   0.00006  -0.00089  -0.00083   1.91551
   A14        1.91634   0.00004   0.00006  -0.00089  -0.00083   1.91551
   A15        1.95292  -0.00074  -0.00013  -0.00481  -0.00494   1.94798
   A16        1.84834  -0.00013  -0.00001   0.00032   0.00031   1.84865
   A17        1.91350   0.00042   0.00001   0.00330   0.00330   1.91680
   A18        1.91350   0.00042   0.00001   0.00330   0.00330   1.91680
   A19        1.94692   0.00002   0.00003   0.00034   0.00037   1.94730
   A20        1.93837   0.00017  -0.00004   0.00086   0.00082   1.93919
   A21        1.94692   0.00002   0.00003   0.00034   0.00037   1.94730
   A22        1.87654  -0.00009  -0.00001  -0.00051  -0.00052   1.87602
   A23        1.87504  -0.00005  -0.00001  -0.00062  -0.00063   1.87441
   A24        1.87654  -0.00009  -0.00001  -0.00051  -0.00052   1.87602
    D1        1.01107   0.00016   0.00000   0.00207   0.00208   1.01315
    D2       -1.01107  -0.00016  -0.00000  -0.00207  -0.00208  -1.01315
    D3        3.14159   0.00000  -0.00000   0.00000   0.00000   3.14159
    D4       -1.08202   0.00014   0.00002   0.00191   0.00194  -1.08008
    D5       -3.10415  -0.00018   0.00002  -0.00224  -0.00223  -3.10638
    D6        1.04851  -0.00002   0.00002  -0.00016  -0.00014   1.04836
    D7        3.10415   0.00018  -0.00002   0.00224   0.00223   3.10638
    D8        1.08202  -0.00014  -0.00002  -0.00191  -0.00194   1.08008
    D9       -1.04851   0.00002  -0.00002   0.00016   0.00014  -1.04836
   D10       -1.01269   0.00006  -0.00003   0.00032   0.00029  -1.01240
   D11        1.01269  -0.00006   0.00003  -0.00032  -0.00029   1.01240
   D12        3.14159  -0.00000   0.00000   0.00000   0.00000   3.14159
   D13        1.11621   0.00011  -0.00006   0.00064   0.00059   1.11679
   D14        3.14159   0.00000   0.00000   0.00000   0.00000  -3.14159
   D15       -1.01269   0.00006  -0.00003   0.00032   0.00029  -1.01240
   D16        3.14159  -0.00000  -0.00000   0.00000   0.00000   3.14159
   D17       -1.11621  -0.00011   0.00006  -0.00064  -0.00059  -1.11679
   D18        1.01269  -0.00006   0.00003  -0.00032  -0.00029   1.01240
   D19        1.04851  -0.00002   0.00002  -0.00016  -0.00014   1.04836
   D20       -3.14159  -0.00000   0.00000  -0.00000  -0.00000  -3.14159
   D21       -1.04851   0.00002  -0.00002   0.00016   0.00014  -1.04836
   D22       -1.08202   0.00014   0.00002   0.00191   0.00194  -1.08008
   D23        1.01107   0.00016   0.00000   0.00207   0.00208   1.01315
   D24        3.10415   0.00018  -0.00002   0.00224   0.00223   3.10638
   D25       -3.10415  -0.00018   0.00002  -0.00224  -0.00223  -3.10638
   D26       -1.01107  -0.00016  -0.00000  -0.00207  -0.00208  -1.01315
   D27        1.08202  -0.00014  -0.00002  -0.00191  -0.00194   1.08008
         Item               Value     Threshold  Converged?
 Maximum Force            0.003219     0.000450     NO 
 RMS     Force            0.000519     0.000300     NO 
 Maximum Displacement     0.011735     0.001800     NO 
 RMS     Displacement     0.005658     0.001200     NO 
 Predicted change in Energy=-3.253165D-05
 Lowest energy point so far.  Saving SCF results.
 GradGradGradGradGradGradGradGradGradGradGradGradGradGradGradGradGradGrad

 Leave Link  103 at Fri Mar 29 17:12:38 2024, MaxMem=   134217728 cpu:               0.0 elap:               0.0
 (Enter /home/emanuele/chem_software/gaussian//gdv/l202.exe)
                          Input orientation:                          
 ---------------------------------------------------------------------
 Center     Atomic      Atomic             Coordinates (Angstroms)
 Number     Number       Type             X           Y           Z
 ---------------------------------------------------------------------
      1          6           0       -2.493412    0.363190   -0.002406
      2          1           0       -2.137920   -0.672688   -0.019291
      3          1           0       -2.145739    0.845711   -0.922841
      4          1           0       -3.588293    0.336264   -0.040015
      5          6           0       -1.992179    1.096409    1.239733
      6          1           0       -0.885350    1.074998    1.267432
      7          1           0       -2.329162    0.565108    2.151027
      8          6           0       -2.483797    2.549729    1.275077
      9          1           0       -2.146814    3.081030    0.363783
     10          1           0       -3.590626    2.571140    1.247378
     11          6           0       -1.982563    3.282948    2.517216
     12          1           0       -0.887682    3.309874    2.554825
     13          1           0       -2.338055    4.318826    2.534101
     14          1           0       -2.330237    2.800428    3.437651
 ---------------------------------------------------------------------
                    Distance matrix (angstroms):
                    1          2          3          4          5
     1  C    0.000000
     2  H    1.095309   0.000000
     3  H    1.095857   1.766917   0.000000
     4  H    1.095857   1.766917   1.766318   0.000000
     5  C    1.527009   2.176255   2.182466   2.182466   0.000000
     6  H    2.169107   2.505792   2.537409   3.092094   1.107382
     7  H    2.169107   2.505792   3.092094   2.537409   1.107382
     8  C    2.532392   3.489840   2.801571   2.801571   1.534625
     9  H    2.764214   3.773224   2.579158   3.126444   2.174838
    10  H    2.764214   3.773224   3.126444   2.579158   2.174838
    11  C    3.890303   4.701602   4.219093   4.219093   2.532392
    12  H    4.219093   4.904076   4.443980   4.782138   2.801571
    13  H    4.701602   5.610265   4.904076   4.904076   3.489840
    14  H    4.219093   4.904076   4.782138   4.443980   2.801571
                    6          7          8          9         10
     6  H    0.000000
     7  H    1.767858   0.000000
     8  C    2.174838   2.174838   0.000000
     9  H    2.536146   3.091498   1.107382   0.000000
    10  H    3.091498   2.536146   1.107382   1.767858   0.000000
    11  C    2.764214   2.764214   1.527009   2.169107   2.169107
    12  H    2.579158   3.126444   2.182466   2.537409   3.092094
    13  H    3.773224   3.773224   2.176255   2.505792   2.505792
    14  H    3.126444   2.579158   2.182466   3.092094   2.537409
                   11         12         13         14
    11  C    0.000000
    12  H    1.095857   0.000000
    13  H    1.095309   1.766917   0.000000
    14  H    1.095857   1.766318   1.766917   0.000000
 Symmetry turned off by external request.
 Stoichiometry    C4H10
 Framework group  CI[X(C4H10)]
 Deg. of freedom    18
 Full point group                 CI      NOp   2
 Rotational constants (GHZ):          22.9214336           3.6695179           3.4336611
 Leave Link  202 at Fri Mar 29 17:12:38 2024, MaxMem=   134217728 cpu:               0.1 elap:               0.0
 (Enter /home/emanuele/chem_software/gaussian//gdv/l301.exe)
 Standard basis: VSTO-6G (5D, 7F)
 Ernie: Thresh=  0.10000D-02 Tol=  0.10000D-05 Strict=F.
  NNHCO=     0 NNPyr=     0 NCTC=     0               EPep=         0.000000000
    EC=        65.723354113  ECS=         2.231597759   EG=         0.198311304
   EHC=         0.000327760  EAt=       -21.067501684  AtH=         1.919620419
 EPDDG=         0.000000000  ECC=        68.153590937 EAtT=        22.987122103
    26 basis functions,   156 primitive gaussians,    26 cartesian basis functions
    13 alpha electrons       13 beta electrons
       nuclear repulsion energy        91.1407130404 Hartrees.
 IExCor=       0 DFT=F Ex=HF Corr=None N6=None ScaHFX=  1.000000
 ScaDFX=  1.000000  1.000000  1.000000  1.000000  1.000000  0.000000
 ScaDFX=  0.000000  0.000000  0.000000  0.000000  0.000000  0.000000
 IRadAn=      5 IRanWt=     -1 IRanGd=            0 ICorTp=0 IEmpDi=  4
 Integral buffers will be    131072 words long.
 Regular integral format.
 Two-electron integral symmetry is turned off.
 Leave Link  301 at Fri Mar 29 17:12:39 2024, MaxMem=   134217728 cpu:               0.2 elap:               0.1
 (Enter /home/emanuele/chem_software/gaussian//gdv/l302.exe)
 Do NDO integrals.
 NPDir=0 NMtPBC=     1 NCelOv=     1 NCel=       1 NClECP=     1 NCelD=      1
         NCelK=      1 NCelE2=     1 NClLst=     1 CellRange=     0.0.
 One-electron integrals computed using PRISM.
 NBasis=    26 RedAO= F EigKep=  0.00D+00  NBF=    26
 NBsUse=    26 1.00D-04 EigRej=  0.00D+00 NBFU=    26
 Leave Link  302 at Fri Mar 29 17:12:39 2024, MaxMem=   134217728 cpu:               0.3 elap:               0.1
 (Enter /home/emanuele/chem_software/gaussian//gdv/l303.exe)
 DipDrv:  MaxL=1.
 Leave Link  303 at Fri Mar 29 17:12:39 2024, MaxMem=   134217728 cpu:               0.2 elap:               0.0
 (Enter /home/emanuele/chem_software/gaussian//gdv/l401.exe)
 Initial guess from the checkpoint file:  "1_qm.chk"
 B after Tr=     0.000000    0.000000    0.000000
         Rot=    1.000000    0.000000    0.000000    0.000000 Ang=   0.00 deg.
 AO Guess basis will be translated and rotated to current coordinates.
 JPrj=0 DoOrth=T DoCkMO=T.
 Leave Link  401 at Fri Mar 29 17:12:39 2024, MaxMem=   134217728 cpu:               0.8 elap:               0.2
 (Enter /home/emanuele/chem_software/gaussian//gdv/l502.exe)
 Keep J ints in memory in canonical form, NReq=861102.
 FoFCou: FMM=F IPFlag=           0 FMFlag=           0 FMFlg1=           0
         NFxFlg=           0 DoJE=F BraDBF=F KetDBF=F FulRan=T
         wScrn=  0.000000 ICntrl=       600 IOpCl=  2 I1Cent=           0 NGrid=           0
         NMat0=    1 NMatS0=     50 NMatT0=    0 NMatD0=    1 NMtDS0=    0 NMtDT0=    0
 Symmetry not used in FoFCou.
 Two-electron integral symmetry not used.
 Closed shell SCF:
 Using DIIS extrapolation, IDIIS=  1040.
 Overlap will be assumed to be unity.
 NGot=   134217728 LenX=   134154919 LenY=   134153802
 Requested convergence on RMS density matrix=1.00D-08 within 128 cycles.
 Requested convergence on MAX density matrix=1.00D-06.
 Requested convergence on             energy=1.00D-06.
 No special actions if energy rises.

 Cycle   1  Pass 1  IDiag  1:
 E=-0.414054858107846E-01
 DIIS: error= 1.92D-04 at cycle   1 NSaved=   1.
 NSaved= 1 IEnMin= 1 EnMin=-0.414054858107846E-01 IErMin= 1 ErrMin= 1.92D-04
 ErrMax= 1.92D-04  0.00D+00 EMaxC= 1.00D-01 BMatC= 3.41D-06 BMatP= 3.41D-06
 IDIUse=3 WtCom= 9.98D-01 WtEn= 1.92D-03
 Coeff-Com:  0.100D+01
 Coeff-En:   0.100D+01
 Coeff:      0.100D+01
 RMSDP=1.23D-04 MaxDP=4.99D-04              OVMax= 0.00D+00

 Cycle   2  Pass 1  IDiag  3:
 E=-0.414166475582505E-01 Delta-E=       -0.000011161747 Rises=F Damp=F
 DIIS: error= 8.33D-05 at cycle   2 NSaved=   2.
 NSaved= 2 IEnMin= 2 EnMin=-0.414166475582505E-01 IErMin= 2 ErrMin= 8.33D-05
 ErrMax= 8.33D-05  0.00D+00 EMaxC= 1.00D-01 BMatC= 4.64D-07 BMatP= 3.41D-06
 IDIUse=1 WtCom= 1.00D+00 WtEn= 0.00D+00
 Coeff-Com: -0.508D+00 0.151D+01
 Coeff:     -0.508D+00 0.151D+01
 Gap=     0.564 Goal=   None    Shift=    0.000
 RMSDP=7.52D-05 MaxDP=3.39D-04 DE=-1.12D-05 OVMax= 6.64D-04

 Cycle   3  Pass 1  IDiag  3:
 E=-0.414187392708101E-01 Delta-E=       -0.000002091713 Rises=F Damp=F
 DIIS: error= 1.50D-05 at cycle   3 NSaved=   3.
 NSaved= 3 IEnMin= 3 EnMin=-0.414187392708101E-01 IErMin= 3 ErrMin= 1.50D-05
 ErrMax= 1.50D-05  0.00D+00 EMaxC= 1.00D-01 BMatC= 1.37D-08 BMatP= 4.64D-07
 IDIUse=1 WtCom= 1.00D+00 WtEn= 0.00D+00
 Coeff-Com:  0.223D+00-0.750D+00 0.153D+01
 Coeff:      0.223D+00-0.750D+00 0.153D+01
 Gap=     0.564 Goal=   None    Shift=    0.000
 RMSDP=1.68D-05 MaxDP=7.37D-05 DE=-2.09D-06 OVMax= 1.76D-04

 Cycle   4  Pass 1  IDiag  3:
 E=-0.414188177919783E-01 Delta-E=       -0.000000078521 Rises=F Damp=F
 DIIS: error= 1.98D-06 at cycle   4 NSaved=   4.
 NSaved= 4 IEnMin= 4 EnMin=-0.414188177919783E-01 IErMin= 4 ErrMin= 1.98D-06
 ErrMax= 1.98D-06  0.00D+00 EMaxC= 1.00D-01 BMatC= 3.17D-10 BMatP= 1.37D-08
 IDIUse=1 WtCom= 1.00D+00 WtEn= 0.00D+00
 Coeff-Com: -0.834D-01 0.284D+00-0.661D+00 0.146D+01
 Coeff:     -0.834D-01 0.284D+00-0.661D+00 0.146D+01
 Gap=     0.564 Goal=   None    Shift=    0.000
 RMSDP=2.40D-06 MaxDP=9.05D-06 DE=-7.85D-08 OVMax= 2.46D-05

 Cycle   5  Pass 1  IDiag  3:
 E=-0.414188194376237E-01 Delta-E=       -0.000000001646 Rises=F Damp=F
 DIIS: error= 6.14D-07 at cycle   5 NSaved=   5.
 NSaved= 5 IEnMin= 5 EnMin=-0.414188194376237E-01 IErMin= 5 ErrMin= 6.14D-07
 ErrMax= 6.14D-07  0.00D+00 EMaxC= 1.00D-01 BMatC= 1.11D-11 BMatP= 3.17D-10
 IDIUse=1 WtCom= 1.00D+00 WtEn= 0.00D+00
 Coeff-Com:  0.426D-01-0.145D+00 0.343D+00-0.819D+00 0.158D+01
 Coeff:      0.426D-01-0.145D+00 0.343D+00-0.819D+00 0.158D+01
 Gap=     0.564 Goal=   None    Shift=    0.000
 RMSDP=4.32D-07 MaxDP=3.07D-06 DE=-1.65D-09 OVMax= 2.79D-06

 Cycle   6  Pass 1  IDiag  3:
 E=-0.414188195041589E-01 Delta-E=       -0.000000000067 Rises=F Damp=F
 DIIS: error= 1.70D-07 at cycle   6 NSaved=   6.
 NSaved= 6 IEnMin= 6 EnMin=-0.414188195041589E-01 IErMin= 6 ErrMin= 1.70D-07
 ErrMax= 1.70D-07  0.00D+00 EMaxC= 1.00D-01 BMatC= 1.19D-12 BMatP= 1.11D-11
 IDIUse=1 WtCom= 1.00D+00 WtEn= 0.00D+00
 Coeff-Com: -0.234D-01 0.798D-01-0.189D+00 0.461D+00-0.114D+01 0.181D+01
 Coeff:     -0.234D-01 0.798D-01-0.189D+00 0.461D+00-0.114D+01 0.181D+01
 Gap=     0.564 Goal=   None    Shift=    0.000
 RMSDP=1.90D-07 MaxDP=1.36D-06 DE=-6.65D-11 OVMax= 1.44D-06

 Cycle   7  Pass 1  IDiag  3:
 E=-0.414188195127565E-01 Delta-E=       -0.000000000009 Rises=F Damp=F
 DIIS: error= 3.18D-08 at cycle   7 NSaved=   7.
 NSaved= 7 IEnMin= 7 EnMin=-0.414188195127565E-01 IErMin= 7 ErrMin= 3.18D-08
 ErrMax= 3.18D-08  0.00D+00 EMaxC= 1.00D-01 BMatC= 5.14D-14 BMatP= 1.19D-12
 IDIUse=1 WtCom= 1.00D+00 WtEn= 0.00D+00
 Coeff-Com:  0.126D-01-0.431D-01 0.102D+00-0.250D+00 0.635D+00-0.114D+01
 Coeff-Com:  0.168D+01
 Coeff:      0.126D-01-0.431D-01 0.102D+00-0.250D+00 0.635D+00-0.114D+01
 Coeff:      0.168D+01
 Gap=     0.564 Goal=   None    Shift=    0.000
 RMSDP=3.80D-08 MaxDP=2.65D-07 DE=-8.60D-12 OVMax= 2.75D-07

 Cycle   8  Pass 1  IDiag  3:
 E=-0.414188195128133E-01 Delta-E=       -0.000000000000 Rises=F Damp=F
 DIIS: error= 3.30D-09 at cycle   8 NSaved=   8.
 NSaved= 8 IEnMin= 8 EnMin=-0.414188195128133E-01 IErMin= 8 ErrMin= 3.30D-09
 ErrMax= 3.30D-09  0.00D+00 EMaxC= 1.00D-01 BMatC= 9.16D-16 BMatP= 5.14D-14
 IDIUse=1 WtCom= 1.00D+00 WtEn= 0.00D+00
 Coeff-Com: -0.343D-02 0.117D-01-0.277D-01 0.678D-01-0.173D+00 0.319D+00
 Coeff-Com: -0.554D+00 0.136D+01
 Coeff:     -0.343D-02 0.117D-01-0.277D-01 0.678D-01-0.173D+00 0.319D+00
 Coeff:     -0.554D+00 0.136D+01
 Gap=     0.564 Goal=   None    Shift=    0.000
 RMSDP=3.90D-09 MaxDP=1.85D-08 DE=-5.68D-14 OVMax= 2.10D-08

 Cycle   9  Pass 2  IDiag  1:
 SCF Done:  E(RPM6) = -0.414188195128E-01 A.U. after    9 cycles
            NFock=  8  Conv=0.39D-08     -V/T= 0.9989
 KE=-3.627900200803D+01 PE=-1.303215097478D+02 EE= 7.541837989596D+01
 Leave Link  502 at Fri Mar 29 17:12:39 2024, MaxMem=   134217728 cpu:               0.2 elap:               0.0
 (Enter /home/emanuele/chem_software/gaussian//gdv/l701.exe)
 ... and contract with generalized density number  0.
 Compute integral first derivatives.
 Leave Link  701 at Fri Mar 29 17:12:39 2024, MaxMem=   134217728 cpu:               0.2 elap:               0.1
 (Enter /home/emanuele/chem_software/gaussian//gdv/l702.exe)
 L702 exits ... SP integral derivatives will be done elsewhere.
 Leave Link  702 at Fri Mar 29 17:12:39 2024, MaxMem=   134217728 cpu:               0.1 elap:               0.0
 (Enter /home/emanuele/chem_software/gaussian//gdv/l703.exe)
 Integral derivatives from FoFJK, PRISM(SPDF).
 Compute integral first derivatives, UseDBF=F ICtDFT=           0.
 Calling FoFJK, ICntrl=      2127 FMM=F ISym2X=0 I1Cent= 0 IOpClX= 0 NMat=1 NMatS=1 NMatT=0.
 FoFJK:  IHMeth=40 ICntrl=    2127 DoSepK=F KAlg= 0 I1Cent=           0 FoldK=F
 IRaf=         0 NMat=       1 IRICut=       1 DoRegI=T DoRafI=F ISym2E= 0 IDoP0=3 IntGTp=3.
 FoFCou: FMM=F IPFlag=           0 FMFlag=      100000 FMFlg1=         800
         NFxFlg=           0 DoJE=F BraDBF=F KetDBF=F FulRan=T
         wScrn=  0.000000 ICntrl=      2127 IOpCl=  0 I1Cent=           0 NGrid=           0
         NMat0=    1 NMatS0=      1 NMatT0=    0 NMatD0=    1 NMtDS0=    0 NMtDT0=    0
 Symmetry not used in FoFCou.
 Leave Link  703 at Fri Mar 29 17:12:39 2024, MaxMem=   134217728 cpu:               0.1 elap:               0.0
 (Enter /home/emanuele/chem_software/gaussian//gdv/l716.exe)
 Dipole        = 2.60434962D-09 1.24454491D-09 1.87463556D-09
 -------------------------------------------------------------------
 Center     Atomic                   Forces (Hartrees/Bohr)
 Number     Number              X              Y              Z
 -------------------------------------------------------------------
      1        6           0.000093147   -0.000114703    0.000085935
      2        1          -0.000031124   -0.000177181   -0.000153083
      3        1          -0.000012829   -0.000087496   -0.000050595
      4        1           0.000004170   -0.000081494   -0.000061015
      5        6          -0.000034417   -0.000422194   -0.000299842
      6        1          -0.000003852   -0.000193396    0.000096918
      7        1           0.000171526   -0.000131453   -0.000010418
      8        6           0.000034418    0.000422195    0.000299842
      9        1          -0.000171526    0.000131452    0.000010417
     10        1           0.000003852    0.000193395   -0.000096919
     11        6          -0.000093147    0.000114704   -0.000085934
     12        1          -0.000004170    0.000081494    0.000061016
     13        1           0.000031124    0.000177182    0.000153083
     14        1           0.000012829    0.000087496    0.000050595
 -------------------------------------------------------------------
 Cartesian Forces:  Max     0.000422195 RMS     0.000149401
 Leave Link  716 at Fri Mar 29 17:12:39 2024, MaxMem=   134217728 cpu:               0.1 elap:               0.0
 (Enter /home/emanuele/chem_software/gaussian//gdv/l103.exe)

 GradGradGradGradGradGradGradGradGradGradGradGradGradGradGradGradGradGrad
 Berny optimization.
 Using GEDIIS/GDIIS optimizer.
 FormGI is forming the generalized inverse of G from B-inverse, IUseBI=4.
 Internal  Forces:  Max     0.001212735 RMS     0.000208791
 Search for a local minimum.
 Step number   3 out of a maximum of  100 on scan point     1 out of    11
 All quantities printed in internal units (Hartrees-Bohrs-Radians)
 RMS Force = .21044D-03 SwitMx=.10000D-02 MixMth= 2
 Mixed Optimization -- En-DIIS/RFO-DIIS
 Swapping is turned off.
 Update second derivatives using D2CorX and points    1    2    3
 DE= -2.10D-05 DEPred=-3.25D-05 R= 6.45D-01
 TightC=F SS=  1.41D+00  RLast= 1.76D-02 DXNew= 5.0454D-01 5.2893D-02
 Trust test= 6.45D-01 RLast= 1.76D-02 DXMaxT set to 3.00D-01
 ITU=  1  1  0
     Eigenvalues ---    0.00403   0.00403   0.01587   0.03617   0.04854
     Eigenvalues ---    0.05022   0.05448   0.05457   0.05496   0.05496
     Eigenvalues ---    0.08209   0.08578   0.10580   0.12108   0.15234
     Eigenvalues ---    0.16000   0.16000   0.16000   0.16000   0.16065
[...]
           A10        105.82271 105.45189 105.34658 105.78508 105.70062
           A11        109.76920 110.09301 110.32447 109.70140 109.00531
           A12        109.76920 109.72522 109.42836 109.13076 108.78042
           A13        109.76920 110.09301 110.32444 109.70157 109.00519
           A14        109.76920 109.72522 109.42834 109.13092 108.78030
           A15        111.73174 112.28694 112.65568 112.90505 114.74679
           A16        105.82271 105.45189 105.34657 105.78516 105.70057
           A17        109.78851 109.01999 109.52172 109.64970 108.68523
           A18        109.78851 110.03630 109.30035 109.41871 109.53634
           A19        111.58993 111.52261 111.34521 111.41666 111.66940
           A20        111.16491 111.19234 111.25637 111.25299 111.05640
           A21        111.58993 111.60950 111.63756 111.55951 111.47266
           A22        107.44650 107.41251 107.46075 107.52047 107.42233
           A23        107.37841 107.46864 107.43769 107.27867 107.45745
           A24        107.44650 107.41163 107.48586 107.59626 107.54782
           D1          57.96941  59.56504  55.23458  57.95852  64.28777
           D2         -57.96942 -55.62897 -59.70624 -57.64543 -50.74384
           D3         179.99999-178.15821 178.41805-179.39369-173.40747
           D4         -61.96266 -60.29713 -64.61259 -62.01023 -55.59339
           D5        -177.90149-175.49115-179.55342-177.61418-170.62501
           D6          60.06793  61.97962  58.57088  60.63756  66.71136
           D7         177.90148 179.48469 175.31126 178.12031-175.80404
           D8          61.96265  64.29068  60.37044  62.51636  69.16434
           D9         -60.06793 -58.23855 -61.50526 -59.23191 -53.49929
           D10        -57.95832 -22.33402  14.73492  50.61904  86.13139
           D11         57.95831  93.29489 130.19691 166.08977-159.07017
           D12        180.00000-144.00009-107.99982 -71.99983 -36.00003
           D13         64.08337  99.33205 137.46964 173.23803-151.73728
           D14        180.00000-145.03904-107.06837 -71.29125 -36.93883
           D15        -57.95831 -22.33402  14.73490  50.61916  86.13130
           D16        180.00000-145.03904-107.06833 -71.29153 -36.93865
           D17        -64.08337 -29.41012   8.39366  44.17920  77.85980
           D18         57.95832  93.29489 130.19694 166.08960-159.07006
           D19         60.06793  61.97962  58.57079  60.63762  66.71132
           D20       -179.99999-178.15821 178.41796-179.39362-173.40750
           D21        -60.06793 -58.23856 -61.50536 -59.23185 -53.49932
           D22        -61.96265 -60.29714 -64.61267 -62.01022 -55.59339
           D23         57.96942  59.56504  55.23450  57.95854  64.28779
           D24        177.90149 179.48469 175.31118 178.12032-175.80403
           D25       -177.90148-175.49115-179.55349-177.61411-170.62508
           D26        -57.96941 -55.62897 -59.70632 -57.64535 -50.74390
           D27         61.96266  64.29068  60.37035  62.51643  69.16428
                           6         7         8         9        10
     Eigenvalues --    -0.03583  -0.03815  -0.04028  -0.03924  -0.03991
           R1           1.09584   1.09563   1.09531   1.09552   1.09569
           R2           1.09588   1.09597   1.09568   1.09559   1.09584
           R3           1.09584   1.09566   1.09610   1.09625   1.09594
           R4           1.52591   1.52646   1.52713   1.52736   1.52721
           R5           1.10859   1.10780   1.10798   1.10752   1.10645
           R6           1.10860   1.10911   1.10765   1.10728   1.10839
           R7           1.54240   1.53881   1.53642   1.53907   1.53831
           R8           1.10860   1.10780   1.10798   1.10752   1.10644
           R9           1.10862   1.10911   1.10765   1.10728   1.10840
           R10          1.52605   1.52646   1.52712   1.52737   1.52722
           R11          1.09589   1.09597   1.09568   1.09559   1.09583
           R12          1.09585   1.09563   1.09531   1.09552   1.09570
           R13          1.09585   1.09566   1.09610   1.09625   1.09595
           A1         107.46412 107.54608 107.58771 107.45873 107.39852
           A2         107.47724 107.41854 107.52919 107.47407 107.40732
           A3         110.94724 111.05701 111.24866 111.26951 111.19960
           A4         107.50030 107.46274 107.27469 107.43944 107.45914
           A5         111.62020 111.47386 111.56194 111.64560 111.62287
           A6         111.61706 111.66778 111.42215 111.33537 111.52796
           A7         108.74832 109.53835 109.43218 109.32862 110.06224
           A8         108.73786 108.68502 109.64720 109.55358 109.03021
           A9         115.92188 114.74382 112.91004 112.63459 112.29537
           A10        105.46626 105.70106 105.77716 105.31933 105.41654
           A11        108.72895 108.78071 109.12867 109.41338 109.71482
           A12        108.73445 109.00571 109.69508 110.32750 110.09170
           A13        108.72461 108.78051 109.12799 109.41214 109.71263
           A14        108.72992 109.00556 109.69785 110.32793 110.09111
           A15        115.92355 114.74369 112.90926 112.63463 112.29607
           A16        105.46378 105.70117 105.77613 105.31981 105.42006
           A17        108.75296 109.53858 109.43010 109.32865 110.06205
           A18        108.74250 108.68519 109.64894 109.55388 109.02913
           A19        111.62300 111.47370 111.56085 111.64502 111.62198
           A20        110.95073 111.05697 111.24892 111.26977 111.19950
           A21        111.61978 111.66815 111.42152 111.33597 111.52993
           A22        107.46099 107.54639 107.58868 107.45902 107.40106
           A23        107.49691 107.46251 107.27560 107.43982 107.45891
           A24        107.47416 107.41828 107.52888 107.47311 107.40395
           D1          57.16445  50.73645  57.54764  59.64688  55.52208
           D2         -57.19833 -64.29680 -58.05284 -55.29462 -59.64964
           D3         179.98359 173.40002 179.30605-178.49060 178.06246
           D4         -62.66273 -69.17074 -62.60196 -60.40972 -64.39489
           D5        -177.02551 175.79601-178.20245-175.35122-179.56661
           D6          60.15641  53.49283  59.15644  61.45279  58.14549
           D7         177.00615 170.61215 177.52825 179.51316 175.38619
           D8          62.64337  55.57890  61.92776  64.57166  60.21447
           D9         -60.17471 -66.72428 -60.71335 -58.62432 -62.07343
           D10        122.83302 159.07105-166.07409-130.18642 -93.26452
           D11       -122.82378 -86.12948 -50.61789 -14.76413  22.31756
           D12         -0.00018  36.00001  72.00022 107.99988 144.00020
           D13       -114.33765 -77.85796 -44.14474  -8.37189  29.47210
           D14          0.00555  36.94150  71.31146 107.05039 145.05418
           D15        122.82915 159.07100-166.07043-130.18559 -93.26319
           D16          0.01314  36.94158  71.31153 107.05029 145.05152
           D17        114.35635 151.74104-173.23227-137.52742 -99.36640
           D18       -122.82006 -86.12946 -50.61416 -14.76341  22.31623
           D19         60.15414  53.50051  59.24832  61.48594  58.27958
           D20        179.98157 173.40796 179.39859-178.45731 178.19911
           D21        -60.17646 -66.71644 -60.62146 -58.59167 -61.93980
           D22        -62.66416 -69.16287 -62.50721 -60.37503 -64.25833
           D23         57.16327  50.74458  57.64306  59.68172  55.66120
           D24        177.00524 170.62017 177.62301 179.54736 175.52229
           D25       -177.02889 175.80354-178.10627-175.31728-179.43357
           D26        -57.20145 -64.28901 -57.95600 -55.26052 -59.51404
           D27         62.64051  55.58658  62.02395  64.60512  60.34705
                          11
     Eigenvalues --    -0.04142
           R1           1.09562
           R2           1.09586
           R3           1.09586
           R4           1.52702
           R5           1.10741
           R6           1.10739
           R7           1.53575
           R8           1.10742
           R9           1.10740
           R10          1.52702
           R11          1.09586
           R12          1.09563
           R13          1.09586
           A1         107.41561
           A2         107.41877
           A3         111.18259
           A4         107.37894
           A5         111.60859
           A6         111.60775
           A7         109.79599
           A8         109.79357
           A9         111.76725
           A10        105.75992
           A11        109.77372
           A12        109.77417
           A13        109.77370
           A14        109.77416
           A15        111.76739
           A16        105.75910
           A17        109.79554
           A18        109.79467
           A19        111.60792
           A20        111.18293
           A21        111.60901
           A22        107.41689
           A23        107.37829
           A24        107.41714
           D1          57.90355
           D2         -57.96662
           D3         179.96903
           D4         -62.01391
           D5        -177.88408
           D6          60.05157
           D7         177.82447
           D8          61.95430
           D9         -60.11006
           D10        -57.92211
           D11         57.92313
           D12       -179.99988
           D13         64.15615
           D14       -179.99861
           D15        -57.92162
           D16       -179.99760
           D17        -64.15236
           D18         57.92463
           D19         60.11718
           D20       -179.96396
           D21        -60.04403
           D22        -61.94805
           D23         57.97081
           D24        177.89073
           D25       -177.81761
           D26        -57.89874
           D27         62.02118
 Largest change from initial coordinates is atom   14       3.191 Angstoms.
 GradGradGradGradGradGradGradGradGradGradGradGradGradGradGradGradGradGrad

 Leave Link  103 at Fri Mar 29 17:13:26 2024, MaxMem=   134217728 cpu:               0.0 elap:               0.0
 (Enter /home/emanuele/chem_software/gaussian//gdv/l202.exe)
                          Input orientation:                          
 ---------------------------------------------------------------------
 Center     Atomic      Atomic             Coordinates (Angstroms)
 Number     Number       Type             X           Y           Z
 ---------------------------------------------------------------------
      1          6           0       -1.712134   -0.039249    1.042134
      2          1           0       -1.922778   -0.785610    0.268204
      3          1           0       -2.065421   -0.447105    1.995944
      4          1           0       -0.623235    0.061889    1.112635
      5          6           0       -2.381028    1.294844    0.718748
      6          1           0       -3.474249    1.151091    0.615958
      7          1           0       -2.031772    1.660358   -0.266514
      8          6           0       -2.094942    2.351297    1.796055
      9          1           0       -2.444169    1.985750    2.781339
     10          1           0       -1.001740    2.495071    1.898832
     11          6           0       -2.763836    3.685388    1.472675
     12          1           0       -3.852750    3.584277    1.402299
     13          1           0       -2.553121    4.431778    2.246558
     14          1           0       -2.410654    4.093188    0.518803
 ---------------------------------------------------------------------
                    Distance matrix (angstroms):
                    1          2          3          4          5
     1  C    0.000000
     2  H    1.095625   0.000000
     3  H    1.095861   1.766357   0.000000
     4  H    1.095857   1.766389   1.766129   0.000000
     5  C    1.527023   2.177447   2.182939   2.182925   0.000000
     6  H    2.168774   2.505755   2.538382   3.092139   1.107412
     7  H    2.168729   2.506105   3.092126   2.537938   1.107394
     8  C    2.535675   3.493445   2.805687   2.806131   1.535750
     9  H    2.767911   3.777319   2.584392   3.130753   2.176148
    10  H    2.767918   3.777583   3.130056   2.584907   2.176139
    11  C    3.894144   4.706161   4.223635   4.223925   2.535675
    12  H    4.223966   4.909876   4.449607   4.787576   2.806191
    13  H    4.706164   5.615369   4.909599   4.909803   3.493448
    14  H    4.223605   4.909531   4.787003   4.449592   2.805635
                    6          7          8          9         10
     6  H    0.000000
     7  H    1.766026   0.000000
     8  C    2.176146   2.176138   0.000000
     9  H    2.539015   3.092791   1.107415   0.000000
    10  H    3.092790   2.538983   1.107396   1.766021   0.000000
    11  C    2.767907   2.767931   1.527021   2.168768   2.168743
    12  H    2.584954   3.130872   2.182928   2.537940   3.092115
    13  H    3.777598   3.777315   2.177449   2.506175   2.505699
    14  H    3.129953   2.584364   2.182941   3.092166   2.538405
                   11         12         13         14
    11  C    0.000000
    12  H    1.095861   0.000000
    13  H    1.095625   1.766372   0.000000
    14  H    1.095861   1.766124   1.766375   0.000000
 Symmetry turned off by external request.
 Stoichiometry    C4H10
 Framework group  C1[X(C4H10)]
 Deg. of freedom    36
 Full point group                 C1      NOp   1
 Rotational constants (GHZ):          22.9460381           3.6614576           3.4268167
 Leave Link  202 at Fri Mar 29 17:13:26 2024, MaxMem=   134217728 cpu:               0.1 elap:               0.0
 (Enter /home/emanuele/chem_software/gaussian//gdv/l601.exe)
 Copying SCF densities to generalized density rwf, IOpCl= 0 IROHF=0.

 **********************************************************************

            Population analysis using the SCF Density.

 **********************************************************************

 Alpha  occ. eigenvalues --       -1.04023      -0.94334      -0.80334      -0.73962      -0.58825
 Alpha  occ. eigenvalues --       -0.53783      -0.52730      -0.51551      -0.47147      -0.44536
 Alpha  occ. eigenvalues --       -0.43920      -0.42043      -0.40894
 Alpha virt. eigenvalues --        0.15506       0.16809       0.18077       0.20453       0.21569
 Alpha virt. eigenvalues --        0.21892       0.22265       0.22702       0.23508       0.24291
 Alpha virt. eigenvalues --        0.24784       0.25517       0.25689
          Condensed to atoms (all electrons):
               1          2          3          4          5          6
     1  C    4.465158   0.000000   0.000000   0.000000   0.000000   0.000000
     2  H    0.000000   0.855979   0.000000   0.000000   0.000000   0.000000
     3  H    0.000000   0.000000   0.853772   0.000000   0.000000   0.000000
     4  H    0.000000   0.000000   0.000000   0.853774   0.000000   0.000000
     5  C    0.000000   0.000000   0.000000   0.000000   4.224278   0.000000
     6  H    0.000000   0.000000   0.000000   0.000000   0.000000   0.873518
     7  H    0.000000   0.000000   0.000000   0.000000   0.000000   0.000000
     8  C    0.000000   0.000000   0.000000   0.000000   0.000000   0.000000
     9  H    0.000000   0.000000   0.000000   0.000000   0.000000   0.000000
    10  H    0.000000   0.000000   0.000000   0.000000   0.000000   0.000000
    11  C    0.000000   0.000000   0.000000   0.000000   0.000000   0.000000
    12  H    0.000000   0.000000   0.000000   0.000000   0.000000   0.000000
    13  H    0.000000   0.000000   0.000000   0.000000   0.000000   0.000000
    14  H    0.000000   0.000000   0.000000   0.000000   0.000000   0.000000
               7          8          9         10         11         12
     1  C    0.000000   0.000000   0.000000   0.000000   0.000000   0.000000
     2  H    0.000000   0.000000   0.000000   0.000000   0.000000   0.000000
     3  H    0.000000   0.000000   0.000000   0.000000   0.000000   0.000000
     4  H    0.000000   0.000000   0.000000   0.000000   0.000000   0.000000
     5  C    0.000000   0.000000   0.000000   0.000000   0.000000   0.000000
     6  H    0.000000   0.000000   0.000000   0.000000   0.000000   0.000000
     7  H    0.873521   0.000000   0.000000   0.000000   0.000000   0.000000
     8  C    0.000000   4.224278   0.000000   0.000000   0.000000   0.000000
     9  H    0.000000   0.000000   0.873519   0.000000   0.000000   0.000000
    10  H    0.000000   0.000000   0.000000   0.873520   0.000000   0.000000
    11  C    0.000000   0.000000   0.000000   0.000000   4.465157   0.000000
    12  H    0.000000   0.000000   0.000000   0.000000   0.000000   0.853775
    13  H    0.000000   0.000000   0.000000   0.000000   0.000000   0.000000
    14  H    0.000000   0.000000   0.000000   0.000000   0.000000   0.000000
              13         14
     1  C    0.000000   0.000000
     2  H    0.000000   0.000000
     3  H    0.000000   0.000000
     4  H    0.000000   0.000000
     5  C    0.000000   0.000000
     6  H    0.000000   0.000000
     7  H    0.000000   0.000000
     8  C    0.000000   0.000000
     9  H    0.000000   0.000000
    10  H    0.000000   0.000000
    11  C    0.000000   0.000000
    12  H    0.000000   0.000000
    13  H    0.855979   0.000000
    14  H    0.000000   0.853771
 Mulliken charges:
               1
     1  C   -0.465158
     2  H    0.144021
     3  H    0.146228
     4  H    0.146226
     5  C   -0.224278
     6  H    0.126482
     7  H    0.126479
     8  C   -0.224278
     9  H    0.126481
    10  H    0.126480
    11  C   -0.465157
    12  H    0.146225
    13  H    0.144021
    14  H    0.146229
 Sum of Mulliken charges =   0.00000
 Mulliken charges with hydrogens summed into heavy atoms:
               1
     1  C   -0.028682
     5  C    0.028682
     8  C    0.028682
    11  C   -0.028682
 Charge=             -0.0000 electrons
 Dipole moment (field-independent basis, Debye):
    X=             -0.0000    Y=             -0.0000    Z=              0.0000  Tot=              0.0000
 N-N= 9.111041791286D+01 E-N=-1.302645807216D+02  KE=-3.627744865679D+01
 Leave Link  601 at Fri Mar 29 17:13:26 2024, MaxMem=   134217728 cpu:               0.1 elap:               0.0
 (Enter /home/emanuele/chem_software/gaussian//gdv/l9999.exe)
 Unable to Open any file for archive entry.
 1\1\GINC-EMANUELE-XPS-13-9343\Scan\RPM6\ZDO\C4H10\EMANUELE\29-Mar-2024
 \0\\#p nosymm geom=nocrowd opt=(modredundant,maxcycle=100) PM6\\Title\
 \0,1\C,-1.7121344885,-0.0392487929,1.0421335711\H,-1.9227775649,-0.785
 6103761,0.2682035129\H,-2.0654213644,-0.4471052708,1.9959435329\H,-0.6
 232349829,0.0618894071,1.1126350375\C,-2.3810283351,1.2948437615,0.718
 7484264\H,-3.474248671,1.1510907761,0.6159582329\H,-2.0317716444,1.660
 357689,-0.2665135253\C,-2.0949419257,2.3512966394,1.7960550483\H,-2.44
 41689568,1.9857501689,2.7813390575\H,-1.0017396345,2.4950714711,1.8988
 321314\C,-2.7638356553,3.6853876796,1.4726751151\H,-3.8527498252,3.584
 2770223,1.4022986447\H,-2.5531206227,4.4317781658,2.2465584605\H,-2.41
 06542109,4.0931880708,0.5188027543\\Version=ES64L-GDVRevJ.14\HF=-0.041
 424,-0.0399088,-0.0392372,-0.0402814,-0.0381547,-0.0358302,-0.0381547,
 -0.0402814,-0.0392373,-0.0399087,-0.0414243\RMSD=1.126e-09,4.367e-09,7
 .393e-09,6.382e-09,7.250e-09,3.697e-09,7.139e-09,5.212e-09,4.013e-09,1
 .990e-09,5.675e-09\PG=C01 [X(C4H10)]\\@
 The archive entry for this job was punched.


 SEEN ON A WALL AT THE UNIVERSITY OF ILLINOIS AT CHICAGO CIRCLE:

 TO DO IS TO BE  -- SOCRATES
 TO BE IS TO DO  -- SARTRE
 OO BE DO BE DO  -- SINATRA
 Job cpu time:       0 days  0 hours  2 minutes 51.7 seconds.
 Elapsed time:       0 days  0 hours  0 minutes 44.0 seconds.
 File lengths (MBytes):  RWF=      6 Int=      0 D2E=      0 Chk=      3 Scr=      1
 Normal termination of Gaussian DV at Fri Mar 29 17:13:26 2024.
