 Entering Gaussian System, Link 0=/home/emanuele/chem_software/gaussian//g09/g09
 Input=2_mm_70.gjf
 Output=2_mm_70.log
 Initial command:
 /home/emanuele/chem_software/gaussian//gdv/l1.exe "/home/emanuele/chem_software/gaussian/scratch/Gau-19291.inp" -scrdir="/home/emanuele/chem_software/gaussian/scratch/"
 Entering Link 1 = /home/emanuele/chem_software/gaussian//gdv/l1.exe PID=     19293.
  
 Copyright (c) 1988-2020, Gaussian, Inc.  All Rights Reserved.
  
 This is the private, development version of
 the Gaussian(R) DV system of programs. It is based on
 the Gaussian(R) 16 system (copyright 2016, Gaussian, Inc.),
 the Gaussian(R) 09 system (copyright 2009, Gaussian, Inc.),
 the Gaussian(R) 03 system (copyright 2003, Gaussian, Inc.),
 the Gaussian(R) 98 system (copyright 1998, Gaussian, Inc.),
 the Gaussian(R) 94 system (copyright 1995, Gaussian, Inc.),
 the Gaussian 92(TM) system (copyright 1992, Gaussian, Inc.),
 the Gaussian 90(TM) system (copyright 1990, Gaussian, Inc.),
 the Gaussian 88(TM) system (copyright 1988, Gaussian, Inc.),
 the Gaussian 86(TM) system (copyright 1986, Carnegie Mellon
 University), and the Gaussian 82(TM) system (copyright 1983,
 Carnegie Mellon University). Gaussian is a federally registered
 trademark of Gaussian, Inc.
  
 This software contains proprietary and confidential information,
 including trade secrets, belonging to Gaussian, Inc.
  
 This software is provided under written license and may be
 used, copied, transmitted, or stored only in accord with that
 written license.
  
 The following legend is applicable only to US Government
 contracts under FAR:
  
                    RESTRICTED RIGHTS LEGEND
  
 Use, reproduction and disclosure by the US Government is
 subject to restrictions as set forth in subparagraphs (a)
 and (c) of the Commercial Computer Software - Restricted
 Rights clause in FAR 52.227-19.
  
 Gaussian, Inc.
 340 Quinnipiac St., Bldg. 40, Wallingford CT 06492
  
  
 ---------------------------------------------------------------
 Warning -- This program may not be used in any manner that
 competes with the business of Gaussian, Inc. or will provide
 assistance to any competitor of Gaussian, Inc.  The licensee
 of this program is prohibited from giving any competitor of
 Gaussian, Inc. access to this program.  By using this program,
 the user acknowledges that Gaussian, Inc. is engaged in the
 business of creating and licensing software in the field of
 computational chemistry and represents and warrants to the
 licensee that it is not a competitor of Gaussian, Inc. and that
 it will not use this program in any manner prohibited above.
 ---------------------------------------------------------------
  

 Cite this work as:
 Gaussian Development Version, Revision J.14,
 M. J. Frisch, G. W. Trucks, H. B. Schlegel, G. E. Scuseria, 
 M. A. Robb, J. R. Cheeseman, G. Scalmani, V. Barone, 
 G. A. Petersson, H. Nakatsuji, X. Li, A. V. Marenich, M. Caricato, 
 J. Bloino, B. G. Janesko, J. Zheng, R. Gomperts, B. Mennucci, 
 H. P. Hratchian, J. V. Ortiz, A. F. Izmaylov, J. L. Sonnenberg, 
 D. Williams-Young, F. Ding, F. Lipparini, F. Egidi, J. Goings, 
 B. Peng, A. Petrone, T. Henderson, D. Ranasinghe, V. G. Zakrzewski, 
 J. Gao, N. Rega, G. Zheng, W. Liang, M. Hada, M. Ehara, K. Toyota, 
 R. Fukuda, J. Hasegawa, M. Ishida, T. Nakajima, Y. Honda, O. Kitao, 
 H. Nakai, T. Vreven, K. Throssell, J. A. Montgomery, Jr., 
 J. E. Peralta, F. Ogliaro, M. J. Bearpark, J. J. Heyd, 
 E. N. Brothers, K. N. Kudin, V. N. Staroverov, T. A. Keith, 
 R. Kobayashi, J. Normand, K. Raghavachari, A. P. Rendell, 
 J. C. Burant, S. S. Iyengar, J. Tomasi, M. Cossi, J. M. Millam, 
 M. Klene, C. Adamo, R. Cammi, J. W. Ochterski, R. L. Martin, 
 K. Morokuma, O. Farkas, J. B. Foresman, and D. J. Fox, 
 Gaussian, Inc., Wallingford CT, 2020.
 
 ******************************************
 Gaussian DV:  ES64L-GDVRevJ.14 29-Dec-2020
                29-Mar-2024 
 ******************************************
 %mem=1GB
 %nprocshared=1
 Will use up to    1 processors via shared memory.
 %chk=2_mm_70.chk
 ----------------------------------------------
 #p Amber=(SoftFirst,Print) geom=nocrowd nosymm
 ----------------------------------------------
 1/37=210000000,38=1,56=2,64=203,172=1/1;
 2/12=1,15=1,40=1/2;
 3/5=30,11=9,25=1,30=1,41=10030000,43=2/1;
 4/20=11,24=3,119=11/2;
 99/5=1,9=1/99;
 Leave Link    1 at Fri Mar 29 17:15:57 2024, MaxMem=   134217728 cpu:               0.0 elap:               0.0
 (Enter /home/emanuele/chem_software/gaussian//gdv/l101.exe)
 -----
 Title
 -----
 Symbolic Z-matrix:
 Charge =  0 Multiplicity = 1
 C-C0--0.267532       -2.45361   0.40207  -0.02391 
 H-H1-+0.083821       -3.28986   0.95583  -0.47557 
 H-H2-+0.077363       -2.6015   -0.67241   0.13454 
 H-H3-+0.077360       -1.8194    0.51116  -0.91039 
 C-C4--0.092257       -1.73316   1.19014   1.07275 
 H-H5-+0.060623       -0.93135   1.8666    0.70917 
 H-H6-+0.060622       -1.4569    0.6004    1.96829 
 C-C7--0.092258       -2.68821   2.31296   1.50457 
 H-H8-+0.060627       -2.97549   2.91952   0.62346 
 H-H9-+0.060618       -3.62888   1.87551   1.89236 
 C-C10--0.267532      -2.06078   3.21236   2.56767 
 H-H11-+0.077330      -1.14505   3.69097   2.20242 
 H-H12-+0.083821      -2.74965   4.00956   2.86844 
 H-H13-+0.077394      -1.79799   2.64829   3.46988 
 
 ITRead=  0  0  0  0  0  0  0  0  0  0  0  0  0  0
 MicOpt= -1 -1 -1 -1 -1 -1 -1 -1 -1 -1 -1 -1 -1 -1
 NAtoms=     14 NQM=       14 NQMF=       0 NMMI=      0 NMMIF=      0
                NMic=       0 NMicF=      0.
                    Isotopes and Nuclear Properties:
 (Nuclear quadrupole moments (NQMom) in fm**2, nuclear magnetic moments (NMagM)
  in nuclear magnetons)

  Atom         1           2           3           4           5           6           7           8           9          10
 IAtWgt=          12           1           1           1          12           1           1          12           1           1
 AtmWgt=  12.0000000   1.0078250   1.0078250   1.0078250  12.0000000   1.0078250   1.0078250  12.0000000   1.0078250   1.0078250
 NucSpn=           0           1           1           1           0           1           1           0           1           1
 AtZEff=  -0.0000000  -0.0000000  -0.0000000  -0.0000000  -0.0000000  -0.0000000  -0.0000000  -0.0000000  -0.0000000  -0.0000000
 NQMom=    0.0000000   0.0000000   0.0000000   0.0000000   0.0000000   0.0000000   0.0000000   0.0000000   0.0000000   0.0000000
 NMagM=    0.0000000   2.7928460   2.7928460   2.7928460   0.0000000   2.7928460   2.7928460   0.0000000   2.7928460   2.7928460
 AtZNuc=   6.0000000   1.0000000   1.0000000   1.0000000   6.0000000   1.0000000   1.0000000   6.0000000   1.0000000   1.0000000

  Atom        11          12          13          14
 IAtWgt=          12           1           1           1
 AtmWgt=  12.0000000   1.0078250   1.0078250   1.0078250
 NucSpn=           0           1           1           1
 AtZEff=  -0.0000000  -0.0000000  -0.0000000  -0.0000000
 NQMom=    0.0000000   0.0000000   0.0000000   0.0000000
 NMagM=    0.0000000   2.7928460   2.7928460   2.7928460
 AtZNuc=   6.0000000   1.0000000   1.0000000   1.0000000
 Generating MM parameters.
 Read MM parameter file:
 Define C0         1
 Define C4         2
 Define H6         3
 Define C7         4
 Define H8         5
 Define H9         6
 Define C10        7
 Define H11        8
 Define H12        9
 Define H13       10
 Include all MM classes

 MM sanity checks:
 All charges sum to:                0.00000000
 Charges of atoms sum to:           0.00000000
 WARNING -- The following centers have non-zero partial charges, but zero Vanderwaals
 parameters.  These centers can collapse onto other centers with non-zero charge.
   Center  Layer   Charge
      1 C    R   -0.267532
      5 C    R   -0.092257
      7 H    R    0.060622
      8 C    R   -0.092258
      9 H    R    0.060627
     10 H    R    0.060618
     11 C    R   -0.267532
     12 H    R    0.077330
     13 H    R    0.083821
     14 H    R    0.077394
 MMInit generated parameter data with length LenPar=        3661.
 MM Charge=              0.0000 electrons
 MM Dipole moment (Debye):
    X=             -0.0262    Y=              0.2123    Z=             -0.1157  Tot=              0.2432
 MM Quadrupole moment (Debye-Ang):
   XX=              2.3915   YY=              2.9321   ZZ=              2.4404
   XY=             -0.5687   XZ=              0.4573   YZ=              0.2747
 MM Traceless Quadrupole moment (Debye-Ang):
   XX=             -0.1965   YY=              0.3441   ZZ=             -0.1476
   XY=             -0.5687   XZ=              0.4573   YZ=              0.2747
 MM Octapole moment (Debye-Ang**2):
  XXX=            -15.7823  YYY=             14.0349  ZZZ=              9.2361  XYY=             -7.0057
  XXY=              6.2167  XXZ=              1.3056  XZZ=             -4.9556  YZZ=              5.1194
  YYZ=              4.6447  XYZ=             -0.5766
 MM Hexadecapole moment (Debye-Ang**3):
 XXXX=             73.7523 YYYY=             69.6037 ZZZZ=             39.6691 XXXY=            -34.8444
 XXXZ=            -13.9623 YYYX=            -32.4778 YYYZ=             30.5018 ZZZX=            -18.8121
 ZZZY=             25.1012 XXYY=             29.4224 XXZZ=             16.4172 YYZZ=             21.3937
 XXYZ=              8.8148 YYXZ=            -11.0994 ZZXY=            -11.9558
 Leave Link  101 at Fri Mar 29 17:15:58 2024, MaxMem=   134217728 cpu:               0.2 elap:               0.2
 (Enter /home/emanuele/chem_software/gaussian//gdv/l202.exe)
                          Input orientation:                          
 ---------------------------------------------------------------------
 Center     Atomic      Atomic             Coordinates (Angstroms)
 Number     Number       Type             X           Y           Z
 ---------------------------------------------------------------------
      1          6    90000001       -2.453613    0.402071   -0.023909
      2          1    20001035       -3.289858    0.955831   -0.475565
      3          1    20001036       -2.601502   -0.672406    0.134537
      4          1    20001037       -1.819398    0.511160   -0.910393
      5          6    90000002       -1.733161    1.190142    1.072750
      6          1    20001040       -0.931353    1.866600    0.709170
      7          1    90000003       -1.456899    0.600403    1.968286
      8          6    90000004       -2.688211    2.312958    1.504568
      9          1    90000005       -2.975492    2.919522    0.623457
     10          1    90000006       -3.628878    1.875506    1.892356
     11          6    90000007       -2.060775    3.212362    2.567671
     12          1    90000008       -1.145050    3.690966    2.202416
     13          1    90000009       -2.749652    4.009560    2.868444
     14          1    90000010       -1.797986    2.648292    3.469881
 ---------------------------------------------------------------------
                    Distance matrix (angstroms):
                    1          2          3          4          5
     1  C    0.000000
     2  H    1.099977   0.000000
     3  H    1.096119   1.870084   0.000000
     4  H    1.095437   1.596578   1.761929   0.000000
     5  C    1.530610   2.208050   2.259058   2.097930   0.000000
     6  H    2.235962   2.792068   3.092920   2.291032   1.110262
     7  H    2.236429   3.075463   2.508544   2.902785   1.107293
     8  C    2.458204   2.474813   3.285864   3.135817   1.536002
     9  H    2.651226   2.272170   3.644291   3.080496   2.176237
    10  H    2.687811   2.562769   3.261485   3.604311   2.176056
    11  C    3.842960   3.982946   4.615620   4.410406   2.536039
    12  H    4.181589   4.387795   5.043450   4.500610   2.806446
    13  H    4.633284   4.560645   5.423744   5.232952   3.493836
    14  H    4.204988   4.544959   4.774641   4.873868   2.806535
                    6          7          8          9         10
     6  H    0.000000
     7  H    1.861404   0.000000
     8  C    1.979506   2.159632   0.000000
     9  H    2.300977   3.081072   1.107613   0.000000
    10  H    2.945615   2.519751   1.107519   1.768329   0.000000
    11  C    2.557478   2.747045   1.527348   2.168509   2.168451
    12  H    2.367227   3.115068   2.183402   2.537470   3.092157
    13  H    3.544143   3.755509   2.177703   2.505824   2.505987
    14  H    2.997269   2.562221   2.183439   3.092283   2.537311
                   11         12         13         14
    11  C    0.000000
    12  H    1.095913   0.000000
    13  H    1.095692   1.766308   0.000000
    14  H    1.096000   1.766341   1.766478   0.000000
 Symmetry turned off by external request.
 Stoichiometry    C4H10
 Framework group  C1[X(C4H10)]
 Deg. of freedom    36
 Full point group                 C1      NOp   1
 Rotational constants (GHZ):          22.6156288           3.7554751           3.5120506
 Leave Link  202 at Fri Mar 29 17:15:58 2024, MaxMem=   134217728 cpu:               0.0 elap:               0.0
 (Enter /home/emanuele/chem_software/gaussian//gdv/l301.exe)
 Standard basis: Dummy (5D, 7F)
    14 basis functions,    14 primitive gaussians,    14 cartesian basis functions
     9 alpha electrons        9 beta electrons
       nuclear repulsion energy        36.6900857173 Hartrees.
 IExCor=       0 DFT=F Ex=HF Corr=None N6=None ScaHFX=  1.000000
 ScaDFX=  1.000000  1.000000  1.000000  1.000000  1.000000  0.000000
 ScaDFX=  0.000000  0.000000  0.000000  0.000000  0.000000  0.000000
 IRadAn=      5 IRanWt=     -1 IRanGd=            0 ICorTp=0 IEmpDi=  4
 NAtoms=   14 NActive=   14 NUniq=   14 SFac= 1.00D+00 NAtFMM=   60 NAOKFM=F Big=F
 Integral buffers will be    131072 words long.
 Raffenetti 1 integral format.
 Two-electron integral symmetry is turned off.
 Leave Link  301 at Fri Mar 29 17:15:58 2024, MaxMem=   134217728 cpu:               0.0 elap:               0.0
 (Enter /home/emanuele/chem_software/gaussian//gdv/l402.exe)
 AMBER calculation of energy.
 ****************************
 MOLECULAR MECHANICS FUNCTION
 ****************************
 Atomic parameters:
 Center  VDW
      1 0.0000 0.0000000
      2 1.3870 0.0157000
      3 1.2870 0.0157000
      4 1.1870 0.0157000
      5 0.0000 0.0000000
      6 1.3590 0.0150000
      7 0.0000 0.0000000
      8 0.0000 0.0000000
      9 0.0000 0.0000000
     10 0.0000 0.0000000
     11 0.0000 0.0000000
     12 0.0000 0.0000000
     13 0.0000 0.0000000
     14 0.0000 0.0000000
 Molecular mechanics terms:
 NBDir 3 1      0      0
 HrmStr1  1- 2  374.50 1.0910
 HrmStr1  1- 3  371.63 1.0920
 HrmStr1  1- 4  371.66 1.0920
 HrmStr1  1- 5  311.98 1.5270
 HrmStr1  5- 6  362.71 1.0950
 HrmStr1  5- 7  362.77 1.0950
 HrmStr1  5- 8  307.49 1.5290
 HrmStr1  8- 9  362.77 1.0950
 HrmStr1  8-10  362.77 1.0950
 HrmStr1  8-11  312.23 1.5270
 HrmStr1 11-12  371.65 1.0920
 HrmStr1 11-13  374.54 1.0910
 HrmStr1 11-14  371.65 1.0920
 HrmBnd1  1- 5- 6  40.60 109.50
 HrmBnd1  1- 5- 7  40.73 109.50
 HrmBnd1  1- 5- 8  61.43 113.37
 HrmBnd1  2- 1- 3  36.52 107.65
 HrmBnd1  2- 1- 4  36.50 107.65
 HrmBnd1  2- 1- 5  43.83 111.52
 HrmBnd1  3- 1- 4  36.76 107.49
 HrmBnd1  3- 1- 5  44.75 111.17
 HrmBnd1  4- 1- 5  44.80 111.17
 HrmBnd1  5- 8- 9  40.89 109.11
 HrmBnd1  5- 8-10  40.89 109.11
 HrmBnd1  5- 8-11  61.44 113.37
 HrmBnd1  6- 5- 7  28.57 105.97
 HrmBnd1  6- 5- 8  40.86 109.11
 HrmBnd1  7- 5- 8  40.88 109.11
 HrmBnd1  8-11-12  44.81 111.17
 HrmBnd1  8-11-13  43.95 111.52
 HrmBnd1  8-11-14  44.81 111.17
 HrmBnd1  9- 8-10  28.58 105.97
 HrmBnd1  9- 8-11  40.73 109.50
 HrmBnd1 10- 8-11  40.73 109.50
 HrmBnd1 12-11-13  36.54 107.65
 HrmBnd1 12-11-14  36.77 107.49
 HrmBnd1 13-11-14  36.54 107.65
 AmbTrs  2- 1- 5- 6   0   0   0   0  0.0000  0.0000  3.3200  0.0000  9.0
 AmbTrs  2- 1- 5- 7   0   0   0   0  0.0000  0.0000  3.3300  0.0000  9.0
 AmbTrs  2- 1- 5- 8   0   0   0   0  0.0000  0.0000  2.2100  0.0000  9.0
 AmbTrs  3- 1- 5- 6   0   0   0   0  0.0000  0.0000  1.2400  0.0000  9.0
 AmbTrs  3- 1- 5- 7   0   0   0   0  0.0000  0.0000  2.0200  0.0000  9.0
 AmbTrs  3- 1- 5- 8   0   0   0   0  0.0000  0.0000  2.3200  0.0000  9.0
 AmbTrs  4- 1- 5- 6   0   0   0   0  0.0000  0.0000  2.0200  0.0000  9.0
 AmbTrs  4- 1- 5- 7   0   0   0   0  0.0000  0.0000  1.2400  0.0000  9.0
 AmbTrs  4- 1- 5- 8   0   0   0   0  0.0000  0.0000  2.3200  0.0000  9.0
 AmbTrs  1- 5- 8- 9   0   0   0   0  0.0000  0.0000  0.0000  0.0000  9.0
 AmbTrs  1- 5- 8-10   0   0   0   0  0.0000  0.0000  2.2700  0.0000  9.0
 AmbTrs  1- 5- 8-11   0   0   0   0  0.0000  0.0000  2.3900  0.0000  9.0
 AmbTrs  6- 5- 8- 9   0   0   0   0  0.0000  0.0000  3.5500  0.0000  9.0
 AmbTrs  6- 5- 8-10   0   0   0   0  0.0000  0.0000  2.2800  0.0000  9.0
 AmbTrs  6- 5- 8-11   0   0   0   0  0.0000  0.0000  2.2700  0.0000  9.0
 AmbTrs  7- 5- 8- 9   0   0   0   0  0.0000  0.0000  2.2900  0.0000  9.0
 AmbTrs  7- 5- 8-10   0   0   0   0  0.0000  0.0000  3.5500  0.0000  9.0
 AmbTrs  7- 5- 8-11   0   0   0   0  0.0000  0.0000  2.2700  0.0000  9.0
 AmbTrs  5- 8-11-12   0   0   0   0  0.0000  0.0000  2.3200  0.0000  9.0
 AmbTrs  5- 8-11-13   0   0   0   0  0.0000  0.0000  2.2100  0.0000  9.0
 AmbTrs  5- 8-11-14   0   0   0   0  0.0000  0.0000  2.3200  0.0000  9.0
 AmbTrs  9- 8-11-12   0   0   0   0  0.0000  0.0000  1.2400  0.0000  9.0
 AmbTrs  9- 8-11-13   0   0   0   0  0.0000  0.0000  3.3300  0.0000  9.0
 AmbTrs  9- 8-11-14   0   0   0   0  0.0000  0.0000  2.0200  0.0000  9.0
 AmbTrs 10- 8-11-12   0   0   0   0  0.0000  0.0000  2.0200  0.0000  9.0
 AmbTrs 10- 8-11-13   0   0   0   0  0.0000  0.0000  3.3300  0.0000  9.0
 AmbTrs 10- 8-11-14   0   0   0   0  0.0000  0.0000  1.2400  0.0000  9.0
 NBPair  2- 1 3 1      0      0 -1.000 -1.000
 NBPair  3- 2 3 1      0      0 -1.000 -1.000
 NBPair  4- 2 3 1      0      0 -1.000 -1.000
 NBPair  5- 2 3 1      0      0 -1.000 -1.000
 NBPair  3- 1 3 1      0      0 -1.000 -1.000
 NBPair  4- 3 3 1      0      0 -1.000 -1.000
 NBPair  5- 3 3 1      0      0 -1.000 -1.000
 NBPair  4- 1 3 1      0      0 -1.000 -1.000
 NBPair  5- 4 3 1      0      0 -1.000 -1.000
 NBPair  5- 1 3 1      0      0 -1.000 -1.000
 NBPair  6- 2 3 1      0      0 -0.500 -0.167
 NBPair  7- 2 3 1      0      0 -0.500 -0.167
 NBPair  8- 2 3 1      0      0 -0.500 -0.167
 NBPair  6- 3 3 1      0      0 -0.500 -0.167
 NBPair  7- 3 3 1      0      0 -0.500 -0.167
 NBPair  8- 3 3 1      0      0 -0.500 -0.167
 NBPair  6- 4 3 1      0      0 -0.500 -0.167
 NBPair  7- 4 3 1      0      0 -0.500 -0.167
 NBPair  8- 4 3 1      0      0 -0.500 -0.167
 NBPair  6- 1 3 1      0      0 -1.000 -1.000
 NBPair  7- 1 3 1      0      0 -1.000 -1.000
 NBPair  8- 1 3 1      0      0 -1.000 -1.000
 NBPair  6- 5 3 1      0      0 -1.000 -1.000
 NBPair  7- 6 3 1      0      0 -1.000 -1.000
 NBPair  8- 6 3 1      0      0 -1.000 -1.000
 NBPair  7- 5 3 1      0      0 -1.000 -1.000
 NBPair  8- 7 3 1      0      0 -1.000 -1.000
 NBPair  8- 5 3 1      0      0 -1.000 -1.000
 NBPair  9- 1 3 1      0      0 -0.500 -0.167
 NBPair 10- 1 3 1      0      0 -0.500 -0.167
 NBPair 11- 1 3 1      0      0 -0.500 -0.167
 NBPair  9- 6 3 1      0      0 -0.500 -0.167
 NBPair 10- 6 3 1      0      0 -0.500 -0.167
 NBPair 11- 6 3 1      0      0 -0.500 -0.167
 NBPair  9- 7 3 1      0      0 -0.500 -0.167
 NBPair 10- 7 3 1      0      0 -0.500 -0.167
 NBPair 11- 7 3 1      0      0 -0.500 -0.167
 NBPair  9- 5 3 1      0      0 -1.000 -1.000
 NBPair 10- 5 3 1      0      0 -1.000 -1.000
 NBPair 11- 5 3 1      0      0 -1.000 -1.000
 NBPair  9- 8 3 1      0      0 -1.000 -1.000
 NBPair 10- 9 3 1      0      0 -1.000 -1.000
 NBPair 11- 9 3 1      0      0 -1.000 -1.000
 NBPair 10- 8 3 1      0      0 -1.000 -1.000
 NBPair 11-10 3 1      0      0 -1.000 -1.000
 NBPair 11- 8 3 1      0      0 -1.000 -1.000
 NBPair 12- 5 3 1      0      0 -0.500 -0.167
 NBPair 13- 5 3 1      0      0 -0.500 -0.167
 NBPair 14- 5 3 1      0      0 -0.500 -0.167
 NBPair 12- 9 3 1      0      0 -0.500 -0.167
 NBPair 13- 9 3 1      0      0 -0.500 -0.167
 NBPair 14- 9 3 1      0      0 -0.500 -0.167
 NBPair 12-10 3 1      0      0 -0.500 -0.167
 NBPair 13-10 3 1      0      0 -0.500 -0.167
 NBPair 14-10 3 1      0      0 -0.500 -0.167
 NBPair 12- 8 3 1      0      0 -1.000 -1.000
 NBPair 13- 8 3 1      0      0 -1.000 -1.000
 NBPair 14- 8 3 1      0      0 -1.000 -1.000
 NBPair 12-11 3 1      0      0 -1.000 -1.000
 NBPair 13-12 3 1      0      0 -1.000 -1.000
 NBPair 14-12 3 1      0      0 -1.000 -1.000
 NBPair 13-11 3 1      0      0 -1.000 -1.000
 NBPair 14-13 3 1      0      0 -1.000 -1.000
 NBPair 14-11 3 1      0      0 -1.000 -1.000
 Energy per function type:
 Direct Coulomb + vdW (small)                           0.009276785
 Direct Coulomb (large)                                -0.055825561
 Direct vdW (large)                                     0.000000000
 Non-direct Coulomb + vdW (small)                       0.028573418
 Non-direct Coulomb (large)                             0.021618450
 Non-direct vdW (large)                                 0.000000000
 Harmonic stretch I                                     0.000531964
 Harmonic bend I                                        0.014218304
 Amber torsion                                          0.005850734
 Energy per function class:
        Coulomb               0.003665601
    Vanderwaals              -0.000022509
     Stretching               0.000531964
        Bending               0.014218304
        Torsion               0.005850734
 Energy=    2.424409367E-02 NIter=   0.
 Dipole moment=      -0.010299       0.083518      -0.045500
 Leave Link  402 at Fri Mar 29 17:15:58 2024, MaxMem=   134217728 cpu:               0.0 elap:               0.0
 (Enter /home/emanuele/chem_software/gaussian//gdv/l9999.exe)
 Unable to Open any file for archive entry.
 1\1\GINC-EMANUELE-XPS-13-9343\SP\AMBER\ZDO\C4H10\EMANUELE\29-Mar-2024\
 0\\#p Amber=(SoftFirst,Print) geom=nocrowd nosymm\\Title\\0,1\C,0,-2.4
 53613,0.402071,-0.023909\H,0,-3.289858,0.955831,-0.475565\H,0,-2.60150
 2,-0.672406,0.134537\H,0,-1.819398,0.51116,-0.910393\C,0,-1.733161,1.1
 90142,1.07275\H,0,-0.931353,1.8666,0.70917\H,0,-1.456899,0.600403,1.96
 8286\C,0,-2.688211,2.312958,1.504568\H,0,-2.975492,2.919522,0.623457\H
 ,0,-3.628878,1.875506,1.892356\C,0,-2.060775,3.212362,2.567671\H,0,-1.
 14505,3.690966,2.202416\H,0,-2.749652,4.00956,2.868444\H,0,-1.797986,2
 .648292,3.469881\\Version=ES64L-GDVRevJ.14\HF=0.0242441\RMSD=0.000e+00
 \Dipole=-0.010299,0.0835181,-0.0455004\PG=C01 [X(C4H10)]\\@
 The archive entry for this job was punched.


 IF YOU WANT TO LEARN FROM THE THEORETICAL PHYSICISTS ABOUT THE
 METHODS WHICH THEY USE, I ADVISE YOU TO FOLLOW THIS PRINCIPLE VERY STRICTLY:
 DON'T LISTEN TO THEIR WORDS; PAY ATTENTION, INSTEAD, TO THEIR ACTIONS.
 -- A.EINSTEIN, 1934
 Job cpu time:       0 days  0 hours  0 minutes  0.4 seconds.
 Elapsed time:       0 days  0 hours  0 minutes  0.4 seconds.
 File lengths (MBytes):  RWF=      6 Int=      0 D2E=      0 Chk=      1 Scr=      1
 Normal termination of Gaussian DV at Fri Mar 29 17:15:58 2024.
