 Entering Gaussian System, Link 0=/home/emanuele/chem_software/gaussian//g09/g09
 Input=2_qm.gjf
 Output=2_qm.log
 Initial command:
 /home/emanuele/chem_software/gaussian//gdv/l1.exe "/home/emanuele/chem_software/gaussian/scratch/Gau-14885.inp" -scrdir="/home/emanuele/chem_software/gaussian/scratch/"
 Entering Link 1 = /home/emanuele/chem_software/gaussian//gdv/l1.exe PID=     14887.
  
 Copyright (c) 1988-2020, Gaussian, Inc.  All Rights Reserved.
  
 This is the private, development version of
 the Gaussian(R) DV system of programs. It is based on
 the Gaussian(R) 16 system (copyright 2016, Gaussian, Inc.),
 the Gaussian(R) 09 system (copyright 2009, Gaussian, Inc.),
 the Gaussian(R) 03 system (copyright 2003, Gaussian, Inc.),
 the Gaussian(R) 98 system (copyright 1998, Gaussian, Inc.),
 the Gaussian(R) 94 system (copyright 1995, Gaussian, Inc.),
 the Gaussian 92(TM) system (copyright 1992, Gaussian, Inc.),
 the Gaussian 90(TM) system (copyright 1990, Gaussian, Inc.),
 the Gaussian 88(TM) system (copyright 1988, Gaussian, Inc.),
 the Gaussian 86(TM) system (copyright 1986, Carnegie Mellon
 University), and the Gaussian 82(TM) system (copyright 1983,
 Carnegie Mellon University). Gaussian is a federally registered
 trademark of Gaussian, Inc.
  
 This software contains proprietary and confidential information,
 including trade secrets, belonging to Gaussian, Inc.
  
 This software is provided under written license and may be
 used, copied, transmitted, or stored only in accord with that
 written license.
  
 The following legend is applicable only to US Government
 contracts under FAR:
  
                    RESTRICTED RIGHTS LEGEND
  
 Use, reproduction and disclosure by the US Government is
 subject to restrictions as set forth in subparagraphs (a)
 and (c) of the Commercial Computer Software - Restricted
 Rights clause in FAR 52.227-19.
  
 Gaussian, Inc.
 340 Quinnipiac St., Bldg. 40, Wallingford CT 06492
  
  
 ---------------------------------------------------------------
 Warning -- This program may not be used in any manner that
 competes with the business of Gaussian, Inc. or will provide
 assistance to any competitor of Gaussian, Inc.  The licensee
 of this program is prohibited from giving any competitor of
 Gaussian, Inc. access to this program.  By using this program,
 the user acknowledges that Gaussian, Inc. is engaged in the
 business of creating and licensing software in the field of
 computational chemistry and represents and warrants to the
 licensee that it is not a competitor of Gaussian, Inc. and that
 it will not use this program in any manner prohibited above.
 ---------------------------------------------------------------
  

 Cite this work as:
 Gaussian Development Version, Revision J.14,
 M. J. Frisch, G. W. Trucks, H. B. Schlegel, G. E. Scuseria, 
 M. A. Robb, J. R. Cheeseman, G. Scalmani, V. Barone, 
 G. A. Petersson, H. Nakatsuji, X. Li, A. V. Marenich, M. Caricato, 
 J. Bloino, B. G. Janesko, J. Zheng, R. Gomperts, B. Mennucci, 
 H. P. Hratchian, J. V. Ortiz, A. F. Izmaylov, J. L. Sonnenberg, 
 D. Williams-Young, F. Ding, F. Lipparini, F. Egidi, J. Goings, 
 B. Peng, A. Petrone, T. Henderson, D. Ranasinghe, V. G. Zakrzewski, 
 J. Gao, N. Rega, G. Zheng, W. Liang, M. Hada, M. Ehara, K. Toyota, 
 R. Fukuda, J. Hasegawa, M. Ishida, T. Nakajima, Y. Honda, O. Kitao, 
 H. Nakai, T. Vreven, K. Throssell, J. A. Montgomery, Jr., 
 J. E. Peralta, F. Ogliaro, M. J. Bearpark, J. J. Heyd, 
 E. N. Brothers, K. N. Kudin, V. N. Staroverov, T. A. Keith, 
 R. Kobayashi, J. Normand, K. Raghavachari, A. P. Rendell, 
 J. C. Burant, S. S. Iyengar, J. Tomasi, M. Cossi, J. M. Millam, 
 M. Klene, C. Adamo, R. Cammi, J. W. Ochterski, R. L. Martin, 
 K. Morokuma, O. Farkas, J. B. Foresman, and D. J. Fox, 
 Gaussian, Inc., Wallingford CT, 2020.
 
 ******************************************
 Gaussian DV:  ES64L-GDVRevJ.14 29-Dec-2020
                29-Mar-2024 
 ******************************************
 %mem=1GB
 %nprocshared=4
 Will use up to    4 processors via shared memory.
 %chk=2_qm.chk
 ----------------------------------------------------------
 #p nosymm geom=nocrowd opt=(modredundant,maxcycle=100) PM6
 ----------------------------------------------------------
 1/6=100,18=120,19=15,26=1,37=210000000,38=1/1,3;
 2/9=110,12=1,15=1,40=1/2;
 3/5=2,25=1,41=3900000,71=1/1,2,3;
 4/35=1/1;
 5/5=2,35=1,38=5/2;
 6/7=2,8=2,9=2,10=2,28=1/1;
 7/30=1/1,2,3,16;
 1/6=100,18=20,19=15,26=1/3(2);
 2/9=110,12=1,15=1/2;
 99//99;
 2/9=110,12=1,15=1/2;
 3/5=2,25=1,41=3900000,71=1,135=20/1,2,3;
 4/5=5,16=3,35=1/1;
 5/5=2,35=1,38=5/2;
 7/30=1/1,2,3,16;
 1/6=100,18=20,19=15,26=1/3(-5);
 2/9=110,12=1,15=1/2;
 6/7=2,8=2,9=2,10=2,19=2,28=1/1;
 99/9=1/99;
 Leave Link    1 at Fri Mar 29 17:13:31 2024, MaxMem=   134217728 cpu:               0.2 elap:               0.1
 (Enter /home/emanuele/chem_software/gaussian//gdv/l101.exe)
 -----
 Title
 -----
 Symbolic Z-matrix:
 Charge =  0 Multiplicity = 1
 C                    -2.49341   0.34945  -0.01033 
 H                    -2.13722  -0.68175  -0.02338 
 H                    -2.14608   0.83135  -0.92689 
 H                    -3.58472   0.32329  -0.04646 
 C                    -2.00024   1.09707   1.22695 
 H                    -0.90618   1.0768    1.25425 
 H                    -2.33381   0.57262   2.12795 
 C                    -2.47574   2.54907   1.28787 
 H                    -2.14216   3.07352   0.38686 
 H                    -3.5698    2.56934   1.26056 
 C                    -1.98256   3.29668   2.52514 
 H                    -0.89126   3.32285   2.56127 
 H                    -2.33875   4.32789   2.53819 
 H                    -2.3299    2.81479   3.4417 
 
 The following ModRedundant input section has been read:
 D       2       1       5       6 S  10 36.000                                
 
 ITRead=  0  0  0  0  0  0  0  0  0  0  0  0  0  0
 MicOpt= -1 -1 -1 -1 -1 -1 -1 -1 -1 -1 -1 -1 -1 -1
 DXMax1 from symmetrization= 1.89D-06
 NAtoms=     14 NQM=       14 NQMF=       0 NMMI=      0 NMMIF=      0
                NMic=       0 NMicF=      0.
                    Isotopes and Nuclear Properties:
 (Nuclear quadrupole moments (NQMom) in fm**2, nuclear magnetic moments (NMagM)
  in nuclear magnetons)

  Atom         1           2           3           4           5           6           7           8           9          10
 IAtWgt=          12           1           1           1          12           1           1          12           1           1
 AtmWgt=  12.0000000   1.0078250   1.0078250   1.0078250  12.0000000   1.0078250   1.0078250  12.0000000   1.0078250   1.0078250
 NucSpn=           0           1           1           1           0           1           1           0           1           1
 AtZEff=  -0.0000000  -0.0000000  -0.0000000  -0.0000000  -0.0000000  -0.0000000  -0.0000000  -0.0000000  -0.0000000  -0.0000000
 NQMom=    0.0000000   0.0000000   0.0000000   0.0000000   0.0000000   0.0000000   0.0000000   0.0000000   0.0000000   0.0000000
 NMagM=    0.0000000   2.7928460   2.7928460   2.7928460   0.0000000   2.7928460   2.7928460   0.0000000   2.7928460   2.7928460
 AtZNuc=   6.0000000   1.0000000   1.0000000   1.0000000   6.0000000   1.0000000   1.0000000   6.0000000   1.0000000   1.0000000

  Atom        11          12          13          14
 IAtWgt=          12           1           1           1
 AtmWgt=  12.0000000   1.0078250   1.0078250   1.0078250
 NucSpn=           0           1           1           1
 AtZEff=  -0.0000000  -0.0000000  -0.0000000  -0.0000000
 NQMom=    0.0000000   0.0000000   0.0000000   0.0000000
 NMagM=    0.0000000   2.7928460   2.7928460   2.7928460
 AtZNuc=   6.0000000   1.0000000   1.0000000   1.0000000
 Leave Link  101 at Fri Mar 29 17:13:31 2024, MaxMem=   134217728 cpu:               0.9 elap:               0.3
 (Enter /home/emanuele/chem_software/gaussian//gdv/l103.exe)

 GradGradGradGradGradGradGradGradGradGradGradGradGradGradGradGradGradGrad
 Berny optimization.
 Initialization pass.
                           ----------------------------
                           !    Initial Parameters    !
                           ! (Angstroms and Degrees)  !
 --------------------------                            --------------------------
 ! Name  Definition              Value          Derivative Info.                !
 --------------------------------------------------------------------------------
 ! R1    R(1,2)                  1.0911         estimate D2E/DX2                !
 ! R2    R(1,3)                  1.0922         estimate D2E/DX2                !
 ! R3    R(1,4)                  1.0922         estimate D2E/DX2                !
 ! R4    R(1,5)                  1.5274         estimate D2E/DX2                !
 ! R5    R(5,6)                  1.0946         estimate D2E/DX2                !
 ! R6    R(5,7)                  1.0946         estimate D2E/DX2                !
 ! R7    R(5,8)                  1.5291         estimate D2E/DX2                !
 ! R8    R(8,9)                  1.0946         estimate D2E/DX2                !
 ! R9    R(8,10)                 1.0946         estimate D2E/DX2                !
 ! R10   R(8,11)                 1.5274         estimate D2E/DX2                !
 ! R11   R(11,12)                1.0922         estimate D2E/DX2                !
 ! R12   R(11,13)                1.0911         estimate D2E/DX2                !
 ! R13   R(11,14)                1.0922         estimate D2E/DX2                !
 ! A1    A(2,1,3)              107.6467         estimate D2E/DX2                !
 ! A2    A(2,1,4)              107.6468         estimate D2E/DX2                !
 ! A3    A(2,1,5)              111.5239         estimate D2E/DX2                !
 ! A4    A(3,1,4)              107.4912         estimate D2E/DX2                !
 ! A5    A(3,1,5)              111.1696         estimate D2E/DX2                !
 ! A6    A(4,1,5)              111.1697         estimate D2E/DX2                !
 ! A7    A(1,5,6)              109.5036         estimate D2E/DX2                !
 ! A8    A(1,5,7)              109.5036         estimate D2E/DX2                !
 ! A9    A(1,5,8)              113.3693         estimate D2E/DX2                !
 ! A10   A(6,5,7)              105.9736         estimate D2E/DX2                !
 ! A11   A(6,5,8)              109.1119         estimate D2E/DX2                !
 ! A12   A(7,5,8)              109.1118         estimate D2E/DX2                !
 ! A13   A(5,8,9)              109.1118         estimate D2E/DX2                !
 ! A14   A(5,8,10)             109.1119         estimate D2E/DX2                !
 ! A15   A(5,8,11)             113.3693         estimate D2E/DX2                !
 ! A16   A(9,8,10)             105.9736         estimate D2E/DX2                !
 ! A17   A(9,8,11)             109.5036         estimate D2E/DX2                !
 ! A18   A(10,8,11)            109.5036         estimate D2E/DX2                !
 ! A19   A(8,11,12)            111.1697         estimate D2E/DX2                !
 ! A20   A(8,11,13)            111.5239         estimate D2E/DX2                !
 ! A21   A(8,11,14)            111.1696         estimate D2E/DX2                !
 ! A22   A(12,11,13)           107.6468         estimate D2E/DX2                !
 ! A23   A(12,11,14)           107.4912         estimate D2E/DX2                !
 ! A24   A(13,11,14)           107.6467         estimate D2E/DX2                !
 ! D1    D(2,1,5,6)             57.8979         Scan                            !
 ! D2    D(2,1,5,7)            -57.898          estimate D2E/DX2                !
 ! D3    D(2,1,5,8)            180.0            estimate D2E/DX2                !
 ! D4    D(3,1,5,6)            -62.2471         estimate D2E/DX2                !
 ! D5    D(3,1,5,7)           -178.043          estimate D2E/DX2                !
 ! D6    D(3,1,5,8)             59.855          estimate D2E/DX2                !
 ! D7    D(4,1,5,6)            178.043          estimate D2E/DX2                !
 ! D8    D(4,1,5,7)             62.247          estimate D2E/DX2                !
 ! D9    D(4,1,5,8)            -59.8549         estimate D2E/DX2                !
 ! D10   D(1,5,8,9)            -57.6801         estimate D2E/DX2                !
 ! D11   D(1,5,8,10)            57.6801         estimate D2E/DX2                !
 ! D12   D(1,5,8,11)           180.0            estimate D2E/DX2                !
 ! D13   D(6,5,8,9)             64.6398         estimate D2E/DX2                !
 ! D14   D(6,5,8,10)           180.0            estimate D2E/DX2                !
 ! D15   D(6,5,8,11)           -57.6801         estimate D2E/DX2                !
 ! D16   D(7,5,8,9)            180.0            estimate D2E/DX2                !
 ! D17   D(7,5,8,10)           -64.6398         estimate D2E/DX2                !
 ! D18   D(7,5,8,11)            57.6801         estimate D2E/DX2                !
 ! D19   D(5,8,11,12)           59.8549         estimate D2E/DX2                !
 ! D20   D(5,8,11,13)         -180.0            estimate D2E/DX2                !
 ! D21   D(5,8,11,14)          -59.855          estimate D2E/DX2                !
 ! D22   D(9,8,11,12)          -62.247          estimate D2E/DX2                !
 ! D23   D(9,8,11,13)           57.898          estimate D2E/DX2                !
 ! D24   D(9,8,11,14)          178.043          estimate D2E/DX2                !
 ! D25   D(10,8,11,12)        -178.043          estimate D2E/DX2                !
 ! D26   D(10,8,11,13)         -57.8979         estimate D2E/DX2                !
 ! D27   D(10,8,11,14)          62.2471         estimate D2E/DX2                !
 --------------------------------------------------------------------------------
 Trust Radius=3.00D-01 FncErr=1.00D-07 GrdErr=1.00D-07 EigMax=2.50D+02 EigMin=1.00D-04
 Number of optimizations in scan=  11
 Number of steps in this run=    100 maximum allowed number of steps=    100.
 GradGradGradGradGradGradGradGradGradGradGradGradGradGradGradGradGradGrad

 Leave Link  103 at Fri Mar 29 17:13:31 2024, MaxMem=   134217728 cpu:               0.1 elap:               0.0
 (Enter /home/emanuele/chem_software/gaussian//gdv/l202.exe)
                          Input orientation:                          
 ---------------------------------------------------------------------
 Center     Atomic      Atomic             Coordinates (Angstroms)
 Number     Number       Type             X           Y           Z
 ---------------------------------------------------------------------
      1          6           0       -2.493413    0.349454   -0.010333
      2          1           0       -2.137221   -0.681753   -0.023381
      3          1           0       -2.146079    0.831347   -0.926886
      4          1           0       -3.584715    0.323285   -0.046458
      5          6           0       -2.000239    1.097073    1.226945
      6          1           0       -0.906178    1.076799    1.254250
      7          1           0       -2.333815    0.572622    2.127947
      8          6           0       -2.475736    2.549065    1.287865
      9          1           0       -2.142160    3.073516    0.386863
     10          1           0       -3.569797    2.569339    1.260560
     11          6           0       -1.982562    3.296684    2.525143
     12          1           0       -0.891260    3.322853    2.561268
     13          1           0       -2.338754    4.327891    2.538191
     14          1           0       -2.329896    2.814791    3.441696
 ---------------------------------------------------------------------
                    Distance matrix (angstroms):
                    1          2          3          4          5
     1  C    0.000000
     2  H    1.091069   0.000000
     3  H    1.092214   1.762348   0.000000
     4  H    1.092213   1.762349   1.761520   0.000000
     5  C    1.527420   2.178601   2.175056   2.175056   0.000000
     6  H    2.155810   2.498062   2.520904   3.071512   1.094589
     7  H    2.155810   2.498063   3.071512   2.520904   1.094590
     8  C    2.554196   3.503162   2.822118   2.822118   1.529081
     9  H    2.775186   3.777614   2.598706   3.135682   2.152256
    10  H    2.775187   3.777616   3.135683   2.598707   2.152257
    11  C    3.921195   4.727246   4.245130   4.245130   2.554196
    12  H    4.245130   4.926429   4.466474   4.801285   2.822118
    13  H    4.727246   5.630169   4.926429   4.926429   3.503162
    14  H    4.245130   4.926429   4.801286   4.466474   2.822118
                    6          7          8          9         10
     6  H    0.000000
     7  H    1.748053   0.000000
     8  C    2.152257   2.152256   0.000000
     9  H    2.503376   3.053289   1.094590   0.000000
    10  H    3.053291   2.503376   1.094589   1.748053   0.000000
    11  C    2.775187   2.775186   1.527420   2.155810   2.155810
    12  H    2.598707   3.135682   2.175056   2.520904   3.071512
    13  H    3.777616   3.777614   2.178601   2.498063   2.498062
    14  H    3.135683   2.598706   2.175056   3.071512   2.520904
                   11         12         13         14
    11  C    0.000000
    12  H    1.092213   0.000000
    13  H    1.091069   1.762349   0.000000
    14  H    1.092214   1.761520   1.762348   0.000000
 Symmetry turned off by external request.
 Stoichiometry    C4H10
 Framework group  CI[X(C4H10)]
 Deg. of freedom    18
 Full point group                 CI      NOp   2
 Rotational constants (GHZ):          23.6116342           3.6179161           3.3991508
 Leave Link  202 at Fri Mar 29 17:13:31 2024, MaxMem=   134217728 cpu:               0.1 elap:               0.0
 (Enter /home/emanuele/chem_software/gaussian//gdv/l301.exe)
 Standard basis: VSTO-6G (5D, 7F)
 Ernie: Thresh=  0.10000D-02 Tol=  0.10000D-05 Strict=F.
  NNHCO=     0 NNPyr=     0 NCTC=     0               EPep=         0.000000000
    EC=        65.745193473  ECS=         2.271612005   EG=         0.199102294
   EHC=         0.000352266  EAt=       -21.067501684  AtH=         1.919620419
 EPDDG=         0.000000000  ECC=        68.216260039 EAtT=        22.987122103
    26 basis functions,   156 primitive gaussians,    26 cartesian basis functions
    13 alpha electrons       13 beta electrons
       nuclear repulsion energy        91.2033821419 Hartrees.
 IExCor=       0 DFT=F Ex=HF Corr=None N6=None ScaHFX=  1.000000
 ScaDFX=  1.000000  1.000000  1.000000  1.000000  1.000000  0.000000
 ScaDFX=  0.000000  0.000000  0.000000  0.000000  0.000000  0.000000
 IRadAn=      5 IRanWt=     -1 IRanGd=            0 ICorTp=0 IEmpDi=  4
 Integral buffers will be    131072 words long.
 Regular integral format.
 Two-electron integral symmetry is turned off.
 Leave Link  301 at Fri Mar 29 17:13:31 2024, MaxMem=   134217728 cpu:               0.2 elap:               0.1
 (Enter /home/emanuele/chem_software/gaussian//gdv/l302.exe)
 Do NDO integrals.
 NPDir=0 NMtPBC=     1 NCelOv=     1 NCel=       1 NClECP=     1 NCelD=      1
         NCelK=      1 NCelE2=     1 NClLst=     1 CellRange=     0.0.
 One-electron integrals computed using PRISM.
 NBasis=    26 RedAO= F EigKep=  0.00D+00  NBF=    26
 NBsUse=    26 1.00D-04 EigRej=  0.00D+00 NBFU=    26
 Leave Link  302 at Fri Mar 29 17:13:31 2024, MaxMem=   134217728 cpu:               0.3 elap:               0.1
 (Enter /home/emanuele/chem_software/gaussian//gdv/l303.exe)
 DipDrv:  MaxL=1.
 Leave Link  303 at Fri Mar 29 17:13:31 2024, MaxMem=   134217728 cpu:               0.1 elap:               0.0
 (Enter /home/emanuele/chem_software/gaussian//gdv/l401.exe)
 Simple Huckel Guess.
 JPrj=0 DoOrth=F DoCkMO=F.
 Leave Link  401 at Fri Mar 29 17:13:31 2024, MaxMem=   134217728 cpu:               0.2 elap:               0.0
 (Enter /home/emanuele/chem_software/gaussian//gdv/l502.exe)
 Keep J ints in memory in canonical form, NReq=861102.
 FoFCou: FMM=F IPFlag=           0 FMFlag=           0 FMFlg1=           0
         NFxFlg=           0 DoJE=F BraDBF=F KetDBF=F FulRan=T
         wScrn=  0.000000 ICntrl=       600 IOpCl=  2 I1Cent=           0 NGrid=           0
         NMat0=    1 NMatS0=     50 NMatT0=    0 NMatD0=    1 NMtDS0=    0 NMtDT0=    0
 Symmetry not used in FoFCou.
 Two-electron integral symmetry not used.
 Closed shell SCF:
 Using DIIS extrapolation, IDIIS=  1040.
 Overlap will be assumed to be unity.
 NGot=   134217728 LenX=   134154919 LenY=   134153802
 Requested convergence on RMS density matrix=1.00D-08 within 128 cycles.
 Requested convergence on MAX density matrix=1.00D-06.
 Requested convergence on             energy=1.00D-06.
 No special actions if energy rises.

 Cycle   1  Pass 1  IDiag  1:
 E= 0.428709966982694E-01
 DIIS: error= 2.18D-02 at cycle   1 NSaved=   1.
 NSaved= 1 IEnMin= 1 EnMin= 0.428709966982694E-01 IErMin= 1 ErrMin= 2.18D-02
 ErrMax= 2.18D-02  0.00D+00 EMaxC= 1.00D-01 BMatC= 2.95D-02 BMatP= 2.95D-02
 IDIUse=3 WtCom= 7.82D-01 WtEn= 2.18D-01
 Coeff-Com:  0.100D+01
 Coeff-En:   0.100D+01
 Coeff:      0.100D+01
 GapD=    2.000 DampG=2.000 DampE=0.500 DampFc=1.0000 IDamp=-1.
 RMSDP=9.73D-03 MaxDP=6.76D-02              OVMax= 0.00D+00

 Cycle   2  Pass 1  IDiag  1:
 E=-0.333821878197114E-01 Delta-E=       -0.076253184518 Rises=F Damp=F
 DIIS: error= 5.34D-03 at cycle   2 NSaved=   2.
 NSaved= 2 IEnMin= 2 EnMin=-0.333821878197114E-01 IErMin= 2 ErrMin= 5.34D-03
 ErrMax= 5.34D-03  0.00D+00 EMaxC= 1.00D-01 BMatC= 2.11D-03 BMatP= 2.95D-02
 IDIUse=3 WtCom= 9.47D-01 WtEn= 5.34D-02
 Coeff-Com: -0.334D+00 0.133D+01
 Coeff-En:   0.000D+00 0.100D+01
 Coeff:     -0.316D+00 0.132D+01
 RMSDP=3.71D-03 MaxDP=2.10D-02 DE=-7.63D-02 OVMax= 0.00D+00

 Cycle   3  Pass 1  IDiag  3:
 E=-0.402139256419218E-01 Delta-E=       -0.006831737822 Rises=F Damp=F
 DIIS: error= 1.47D-03 at cycle   3 NSaved=   3.
 NSaved= 3 IEnMin= 3 EnMin=-0.402139256419218E-01 IErMin= 3 ErrMin= 1.47D-03
 ErrMax= 1.47D-03  0.00D+00 EMaxC= 1.00D-01 BMatC= 7.64D-05 BMatP= 2.11D-03
 IDIUse=3 WtCom= 9.85D-01 WtEn= 1.47D-02
 Coeff-Com:  0.293D+00-0.122D+01 0.193D+01
 Coeff-En:   0.000D+00 0.000D+00 0.100D+01
 Coeff:      0.289D+00-0.121D+01 0.192D+01
 Gap=     0.564 Goal=   None    Shift=    0.000
 RMSDP=1.30D-03 MaxDP=9.86D-03 DE=-6.83D-03 OVMax= 7.77D-03

 Cycle   4  Pass 1  IDiag  3:
 E=-0.406906053183747E-01 Delta-E=       -0.000476679676 Rises=F Damp=F
 DIIS: error= 2.98D-04 at cycle   4 NSaved=   4.
 NSaved= 4 IEnMin= 4 EnMin=-0.406906053183747E-01 IErMin= 4 ErrMin= 2.98D-04
 ErrMax= 2.98D-04  0.00D+00 EMaxC= 1.00D-01 BMatC= 3.25D-06 BMatP= 7.64D-05
 IDIUse=3 WtCom= 9.97D-01 WtEn= 2.98D-03
 Coeff-Com: -0.139D+00 0.586D+00-0.106D+01 0.162D+01
 Coeff-En:   0.000D+00 0.000D+00 0.000D+00 0.100D+01
 Coeff:     -0.139D+00 0.584D+00-0.106D+01 0.161D+01
 Gap=     0.565 Goal=   None    Shift=    0.000
 RMSDP=2.89D-04 MaxDP=2.11D-03 DE=-4.77D-04 OVMax= 2.06D-03

 Cycle   5  Pass 1  IDiag  3:
 E=-0.407122150718635E-01 Delta-E=       -0.000021609753 Rises=F Damp=F
 DIIS: error= 8.28D-05 at cycle   5 NSaved=   5.
 NSaved= 5 IEnMin= 5 EnMin=-0.407122150718635E-01 IErMin= 5 ErrMin= 8.28D-05
 ErrMax= 8.28D-05  0.00D+00 EMaxC= 1.00D-01 BMatC= 2.33D-07 BMatP= 3.25D-06
 IDIUse=1 WtCom= 1.00D+00 WtEn= 0.00D+00
 Coeff-Com:  0.746D-01-0.316D+00 0.604D+00-0.113D+01 0.177D+01
 Coeff:      0.746D-01-0.316D+00 0.604D+00-0.113D+01 0.177D+01
 Gap=     0.564 Goal=   None    Shift=    0.000
 RMSDP=7.85D-05 MaxDP=4.82D-04 DE=-2.16D-05 OVMax= 5.28D-04

 Cycle   6  Pass 1  IDiag  3:
 E=-0.407137616649891E-01 Delta-E=       -0.000001546593 Rises=F Damp=F
 DIIS: error= 1.53D-05 at cycle   6 NSaved=   6.
 NSaved= 6 IEnMin= 6 EnMin=-0.407137616649891E-01 IErMin= 6 ErrMin= 1.53D-05
 ErrMax= 1.53D-05  0.00D+00 EMaxC= 1.00D-01 BMatC= 7.93D-09 BMatP= 2.33D-07
 IDIUse=1 WtCom= 1.00D+00 WtEn= 0.00D+00
 Coeff-Com:  0.250D-02-0.102D-01 0.106D-01 0.236D-01-0.237D+00 0.121D+01
 Coeff:      0.250D-02-0.102D-01 0.106D-01 0.236D-01-0.237D+00 0.121D+01
 Gap=     0.564 Goal=   None    Shift=    0.000
 RMSDP=1.31D-05 MaxDP=9.81D-05 DE=-1.55D-06 OVMax= 1.02D-04

 Cycle   7  Pass 1  IDiag  3:
 E=-0.407138062769405E-01 Delta-E=       -0.000000044612 Rises=F Damp=F
 DIIS: error= 1.76D-06 at cycle   7 NSaved=   7.
 NSaved= 7 IEnMin= 7 EnMin=-0.407138062769405E-01 IErMin= 7 ErrMin= 1.76D-06
 ErrMax= 1.76D-06  0.00D+00 EMaxC= 1.00D-01 BMatC= 3.16D-10 BMatP= 7.93D-09
 IDIUse=1 WtCom= 1.00D+00 WtEn= 0.00D+00
 Coeff-Com:  0.638D-03-0.284D-02 0.830D-02-0.294D-01 0.121D+00-0.576D+00
 Coeff-Com:  0.148D+01
 Coeff:      0.638D-03-0.284D-02 0.830D-02-0.294D-01 0.121D+00-0.576D+00
 Coeff:      0.148D+01
 Gap=     0.564 Goal=   None    Shift=    0.000
 RMSDP=2.08D-06 MaxDP=1.19D-05 DE=-4.46D-08 OVMax= 1.35D-05

 Cycle   8  Pass 1  IDiag  3:
 E=-0.407138076177489E-01 Delta-E=       -0.000000001341 Rises=F Damp=F
 DIIS: error= 1.63D-07 at cycle   8 NSaved=   8.
 NSaved= 8 IEnMin= 8 EnMin=-0.407138076177489E-01 IErMin= 8 ErrMin= 1.63D-07
 ErrMax= 1.63D-07  0.00D+00 EMaxC= 1.00D-01 BMatC= 2.20D-12 BMatP= 3.16D-10
 IDIUse=1 WtCom= 1.00D+00 WtEn= 0.00D+00
 Coeff-Com:  0.875D-05 0.176D-04-0.113D-02 0.739D-02-0.385D-01 0.203D+00
 Coeff-Com: -0.560D+00 0.139D+01
 Coeff:      0.875D-05 0.176D-04-0.113D-02 0.739D-02-0.385D-01 0.203D+00
 Coeff:     -0.560D+00 0.139D+01
 Gap=     0.564 Goal=   None    Shift=    0.000
 RMSDP=1.55D-07 MaxDP=5.40D-07 DE=-1.34D-09 OVMax= 1.35D-06

 Cycle   9  Pass 1  IDiag  3:
 E=-0.407138076268865E-01 Delta-E=       -0.000000000009 Rises=F Damp=F
 DIIS: error= 1.65D-08 at cycle   9 NSaved=   9.
 NSaved= 9 IEnMin= 9 EnMin=-0.407138076268865E-01 IErMin= 9 ErrMin= 1.65D-08
 ErrMax= 1.65D-08  0.00D+00 EMaxC= 1.00D-01 BMatC= 4.83D-14 BMatP= 2.20D-12
 IDIUse=1 WtCom= 1.00D+00 WtEn= 0.00D+00
 Coeff-Com: -0.250D-05-0.718D-05 0.366D-03-0.238D-02 0.123D-01-0.654D-01
 Coeff-Com:  0.182D+00-0.520D+00 0.139D+01
 Coeff:     -0.250D-05-0.718D-05 0.366D-03-0.238D-02 0.123D-01-0.654D-01
 Coeff:      0.182D+00-0.520D+00 0.139D+01
 Gap=     0.564 Goal=   None    Shift=    0.000
 RMSDP=2.55D-08 MaxDP=8.56D-08 DE=-9.14D-12 OVMax= 2.18D-07

 Cycle  10  Pass 1  IDiag  3:
 E=-0.407138076272417E-01 Delta-E=       -0.000000000000 Rises=F Damp=F
 DIIS: error= 3.84D-09 at cycle  10 NSaved=  10.
 NSaved=10 IEnMin=10 EnMin=-0.407138076272417E-01 IErMin=10 ErrMin= 3.84D-09
 ErrMax= 3.84D-09  0.00D+00 EMaxC= 1.00D-01 BMatC= 1.94D-15 BMatP= 4.83D-14
 IDIUse=1 WtCom= 1.00D+00 WtEn= 0.00D+00
 Coeff-Com: -0.253D-05 0.176D-04-0.169D-03 0.965D-03-0.482D-02 0.252D-01
 Coeff-Com: -0.700D-01 0.205D+00-0.665D+00 0.151D+01
 Coeff:     -0.253D-05 0.176D-04-0.169D-03 0.965D-03-0.482D-02 0.252D-01
 Coeff:     -0.700D-01 0.205D+00-0.665D+00 0.151D+01
 Gap=     0.564 Goal=   None    Shift=    0.000
 RMSDP=5.72D-09 MaxDP=1.94D-08 DE=-3.55D-13 OVMax= 5.34D-08

 Cycle  11  Pass 2  IDiag  1:
 SCF Done:  E(RPM6) = -0.407138076272E-01 A.U. after   11 cycles
            NFock= 10  Conv=0.57D-08     -V/T= 0.9989
 KE=-3.631236529323D+01 PE=-1.303410059149D+02 EE= 7.540927525857D+01
 Leave Link  502 at Fri Mar 29 17:13:31 2024, MaxMem=   134217728 cpu:               0.2 elap:               0.1
 (Enter /home/emanuele/chem_software/gaussian//gdv/l601.exe)
 Copying SCF densities to generalized density rwf, IOpCl= 0 IROHF=0.

 **********************************************************************

            Population analysis using the SCF Density.

 **********************************************************************

 Alpha  occ. eigenvalues --       -1.04693      -0.94762      -0.80934      -0.74278      -0.59173
 Alpha  occ. eigenvalues --       -0.53895      -0.52945      -0.51765      -0.47264      -0.44791
 Alpha  occ. eigenvalues --       -0.44014      -0.42220      -0.41006
 Alpha virt. eigenvalues --        0.15432       0.16616       0.17993       0.20677       0.21657
 Alpha virt. eigenvalues --        0.21959       0.22334       0.22781       0.23653       0.24682
 Alpha virt. eigenvalues --        0.25084       0.25594       0.25761
          Condensed to atoms (all electrons):
               1          2          3          4          5          6
     1  C    4.463483   0.000000   0.000000   0.000000   0.000000   0.000000
     2  H    0.000000   0.855092   0.000000   0.000000   0.000000   0.000000
     3  H    0.000000   0.000000   0.853657   0.000000   0.000000   0.000000
     4  H    0.000000   0.000000   0.000000   0.853657   0.000000   0.000000
     5  C    0.000000   0.000000   0.000000   0.000000   4.227183   0.000000
     6  H    0.000000   0.000000   0.000000   0.000000   0.000000   0.873464
     7  H    0.000000   0.000000   0.000000   0.000000   0.000000   0.000000
     8  C    0.000000   0.000000   0.000000   0.000000   0.000000   0.000000
     9  H    0.000000   0.000000   0.000000   0.000000   0.000000   0.000000
    10  H    0.000000   0.000000   0.000000   0.000000   0.000000   0.000000
    11  C    0.000000   0.000000   0.000000   0.000000   0.000000   0.000000
    12  H    0.000000   0.000000   0.000000   0.000000   0.000000   0.000000
    13  H    0.000000   0.000000   0.000000   0.000000   0.000000   0.000000
    14  H    0.000000   0.000000   0.000000   0.000000   0.000000   0.000000
               7          8          9         10         11         12
     1  C    0.000000   0.000000   0.000000   0.000000   0.000000   0.000000
     2  H    0.000000   0.000000   0.000000   0.000000   0.000000   0.000000
     3  H    0.000000   0.000000   0.000000   0.000000   0.000000   0.000000
     4  H    0.000000   0.000000   0.000000   0.000000   0.000000   0.000000
     5  C    0.000000   0.000000   0.000000   0.000000   0.000000   0.000000
     6  H    0.000000   0.000000   0.000000   0.000000   0.000000   0.000000
     7  H    0.873464   0.000000   0.000000   0.000000   0.000000   0.000000
     8  C    0.000000   4.227183   0.000000   0.000000   0.000000   0.000000
     9  H    0.000000   0.000000   0.873464   0.000000   0.000000   0.000000
    10  H    0.000000   0.000000   0.000000   0.873464   0.000000   0.000000
    11  C    0.000000   0.000000   0.000000   0.000000   4.463483   0.000000
    12  H    0.000000   0.000000   0.000000   0.000000   0.000000   0.853657
    13  H    0.000000   0.000000   0.000000   0.000000   0.000000   0.000000
    14  H    0.000000   0.000000   0.000000   0.000000   0.000000   0.000000
              13         14
     1  C    0.000000   0.000000
     2  H    0.000000   0.000000
     3  H    0.000000   0.000000
     4  H    0.000000   0.000000
     5  C    0.000000   0.000000
     6  H    0.000000   0.000000
     7  H    0.000000   0.000000
     8  C    0.000000   0.000000
     9  H    0.000000   0.000000
    10  H    0.000000   0.000000
    11  C    0.000000   0.000000
    12  H    0.000000   0.000000
    13  H    0.855092   0.000000
    14  H    0.000000   0.853657
 Mulliken charges:
               1
     1  C   -0.463483
     2  H    0.144908
     3  H    0.146343
     4  H    0.146343
     5  C   -0.227183
     6  H    0.126536
     7  H    0.126536
     8  C   -0.227183
     9  H    0.126536
    10  H    0.126536
    11  C   -0.463483
    12  H    0.146343
    13  H    0.144908
    14  H    0.146343
 Sum of Mulliken charges =  -0.00000
 Mulliken charges with hydrogens summed into heavy atoms:
               1
     1  C   -0.025889
     5  C    0.025889
     8  C    0.025889
    11  C   -0.025889
 Charge=              0.0000 electrons
 Dipole moment (field-independent basis, Debye):
    X=             -0.0000    Y=             -0.0000    Z=              0.0000  Tot=              0.0000
 N-N= 9.120338214195D+01 E-N=-1.303410059626D+02  KE=-3.631236529323D+01
 Leave Link  601 at Fri Mar 29 17:13:31 2024, MaxMem=   134217728 cpu:               0.1 elap:               0.0
 (Enter /home/emanuele/chem_software/gaussian//gdv/l701.exe)
 ... and contract with generalized density number  0.
 Compute integral first derivatives.
 Leave Link  701 at Fri Mar 29 17:13:31 2024, MaxMem=   134217728 cpu:               0.2 elap:               0.1
 (Enter /home/emanuele/chem_software/gaussian//gdv/l702.exe)
 L702 exits ... SP integral derivatives will be done elsewhere.
 Leave Link  702 at Fri Mar 29 17:13:32 2024, MaxMem=   134217728 cpu:               0.1 elap:               0.0
 (Enter /home/emanuele/chem_software/gaussian//gdv/l703.exe)
 Integral derivatives from FoFJK, PRISM(SPDF).
 Compute integral first derivatives, UseDBF=F ICtDFT=           0.
 Calling FoFJK, ICntrl=      2127 FMM=F ISym2X=0 I1Cent= 0 IOpClX= 0 NMat=1 NMatS=1 NMatT=0.
 FoFJK:  IHMeth=40 ICntrl=    2127 DoSepK=F KAlg= 0 I1Cent=           0 FoldK=F
 IRaf=         0 NMat=       1 IRICut=       1 DoRegI=T DoRafI=F ISym2E= 0 IDoP0=3 IntGTp=3.
 FoFCou: FMM=F IPFlag=           0 FMFlag=      100000 FMFlg1=         800
         NFxFlg=           0 DoJE=F BraDBF=F KetDBF=F FulRan=T
         wScrn=  0.000000 ICntrl=      2127 IOpCl=  0 I1Cent=           0 NGrid=           0
         NMat0=    1 NMatS0=      1 NMatT0=    0 NMatD0=    1 NMtDS0=    0 NMtDT0=    0
 Symmetry not used in FoFCou.
 Leave Link  703 at Fri Mar 29 17:13:32 2024, MaxMem=   134217728 cpu:               0.1 elap:               0.0
 (Enter /home/emanuele/chem_software/gaussian//gdv/l716.exe)
 Dipole        =-1.42108547D-14-3.64153152D-14-3.55271368D-15
 -------------------------------------------------------------------
 Center     Atomic                   Forces (Hartrees/Bohr)
 Number     Number              X              Y              Z
 -------------------------------------------------------------------
      1        6          -0.001029910    0.004081518    0.000671838
      2        1           0.000873344   -0.001847053    0.000361294
      3        1           0.000487931    0.000448950   -0.002203871
      4        1          -0.002173936   -0.000491070   -0.000574970
      5        6           0.000833928   -0.001856655    0.000291651
      6        1           0.007581629   -0.001026422    0.000317373
      7        1          -0.001789565   -0.004336015    0.006052413
      8        6          -0.000833928    0.001856655   -0.000291651
      9        1           0.001789565    0.004336015   -0.006052413
     10        1          -0.007581629    0.001026422   -0.000317373
     11        6           0.001029910   -0.004081518   -0.000671838
     12        1           0.002173936    0.000491070    0.000574970
     13        1          -0.000873344    0.001847053   -0.000361294
     14        1          -0.000487931   -0.000448950    0.002203871
 -------------------------------------------------------------------
 Cartesian Forces:  Max     0.007581629 RMS     0.002713006
 Leave Link  716 at Fri Mar 29 17:13:32 2024, MaxMem=   134217728 cpu:               0.1 elap:               0.0
 (Enter /home/emanuele/chem_software/gaussian//gdv/l103.exe)

 GradGradGradGradGradGradGradGradGradGradGradGradGradGradGradGradGradGrad
 Berny optimization.
 FormGI is forming the generalized inverse of G from B-inverse, IUseBI=4.
 Internal  Forces:  Max     0.007604897 RMS     0.002481844
 Search for a local minimum.
 Step number   1 out of a maximum of  100 on scan point     1 out of    11
 All quantities printed in internal units (Hartrees-Bohrs-Radians)
 RMS Force = .25014D-02 SwitMx=.10000D-02 MixMth= 1
 Mixed Optimization -- RFO/linear search
 Second derivative matrix not updated -- first step.
 ITU=  0
     Eigenvalues ---    0.00381   0.00403   0.01780   0.03467   0.03668
     Eigenvalues ---    0.04824   0.05024   0.05471   0.05520   0.05520
     Eigenvalues ---    0.08071   0.08489   0.12190   0.12313   0.16000
     Eigenvalues ---    0.16000   0.16000   0.16000   0.16000   0.16000
     Eigenvalues ---    0.21878   0.21901   0.29508   0.29663   0.29663
     Eigenvalues ---    0.34288   0.34288   0.34288   0.34288   0.34558
     Eigenvalues ---    0.34558   0.34558   0.34558   0.34689   0.34689
     Eigenvalues --- 1000.000001000.000001000.000001000.000001000.00000
     Eigenvalues --- 1000.000001000.000001000.000001000.000001000.00000
     Eigenvalues --- 1000.000001000.000001000.000001000.000001000.00000
     Eigenvalues --- 1000.000001000.000001000.000001000.000001000.00000
     Eigenvalues --- 1000.000001000.000001000.000001000.000001000.00000
     Eigenvalues --- 1000.000001000.000001000.000001000.00000
 RFO step:  Lambda=-1.36944474D-03 EMin= 3.81256157D-03
 Linear search not attempted -- first point.
 Iteration  1 RMS(Cart)=  0.01264945 RMS(Int)=  0.00007863
 Iteration  2 RMS(Cart)=  0.00015075 RMS(Int)=  0.00004432
 Iteration  3 RMS(Cart)=  0.00000001 RMS(Int)=  0.00004432
 Fixing frozen coordinates.
 Iteration  1 RMS(Cart)=  0.00000149 RMS(Int)=  0.00000228
 Iteration  2 RMS(Cart)=  0.00000090 RMS(Int)=  0.00000254
 ITry= 1 IFail=0 DXMaxC= 3.62D-02 DCOld= 1.00D+10 DXMaxT= 3.00D-01 DXLimC= 3.00D+00 Rises=F
 Variable       Old X    -DE/DX   Delta X   Delta X   Delta X     New X
                                 (Linear)    (Quad)   (Total)
    R1        2.06182   0.00203   0.00000   0.00582   0.00582   2.06764
    R2        2.06399   0.00220   0.00000   0.00635   0.00635   2.07033
    R3        2.06398   0.00220   0.00000   0.00635   0.00635   2.07033
    R4        2.88641   0.00094   0.00000   0.00314   0.00314   2.88955
    R5        2.06847   0.00760   0.00000   0.02209   0.02209   2.09057
    R6        2.06847   0.00760   0.00000   0.02209   0.02209   2.09057
    R7        2.88955   0.00606   0.00000   0.02046   0.02046   2.91000
    R8        2.06847   0.00760   0.00000   0.02209   0.02209   2.09057
    R9        2.06847   0.00760   0.00000   0.02209   0.02209   2.09057
   R10        2.88641   0.00094   0.00000   0.00314   0.00314   2.88955
   R11        2.06398   0.00220   0.00000   0.00635   0.00635   2.07033
   R12        2.06182   0.00203   0.00000   0.00582   0.00582   2.06764
   R13        2.06399   0.00220   0.00000   0.00635   0.00635   2.07033
    A1        1.87879  -0.00012   0.00000  -0.00232  -0.00230   1.87649
    A2        1.87879  -0.00012   0.00000  -0.00221  -0.00220   1.87659
    A3        1.94646  -0.00105   0.00000  -0.00810  -0.00809   1.93837
    A4        1.87608  -0.00066   0.00000  -0.00099  -0.00103   1.87504
    A5        1.94028   0.00095   0.00000   0.00664   0.00662   1.94690
    A6        1.94028   0.00095   0.00000   0.00670   0.00667   1.94695
    A7        1.91120   0.00127   0.00000   0.00224   0.00231   1.91351
    A8        1.91120   0.00127   0.00000   0.00221   0.00228   1.91348
    A9        1.97867  -0.00543   0.00000  -0.02575  -0.02573   1.95294
   A10        1.84959  -0.00112   0.00000  -0.00119  -0.00129   1.84829
   A11        1.90436   0.00214   0.00000   0.01211   0.01203   1.91639
   A12        1.90436   0.00214   0.00000   0.01206   0.01198   1.91634
   A13        1.90436   0.00214   0.00000   0.01206   0.01198   1.91634
   A14        1.90436   0.00214   0.00000   0.01206   0.01198   1.91634
   A15        1.97867  -0.00543   0.00000  -0.02577  -0.02574   1.95292
   A16        1.84959  -0.00112   0.00000  -0.00114  -0.00124   1.84834
   A17        1.91120   0.00127   0.00000   0.00224   0.00230   1.91350
   A18        1.91120   0.00127   0.00000   0.00224   0.00230   1.91350
   A19        1.94028   0.00095   0.00000   0.00667   0.00665   1.94692
   A20        1.94646  -0.00105   0.00000  -0.00810  -0.00809   1.93837
   A21        1.94028   0.00095   0.00000   0.00667   0.00665   1.94692
   A22        1.87879  -0.00012   0.00000  -0.00227  -0.00225   1.87654
   A23        1.87608  -0.00066   0.00000  -0.00099  -0.00103   1.87504
   A24        1.87879  -0.00012   0.00000  -0.00227  -0.00225   1.87654
    D1        1.01051   0.00005   0.00000   0.00000  -0.00001   1.01050
    D2       -1.01051  -0.00005   0.00000  -0.00108  -0.00105  -1.01156
    D3        3.14159  -0.00000   0.00000  -0.00050  -0.00049   3.14110
    D4       -1.08642   0.00026   0.00000   0.00391   0.00391  -1.08250
    D5       -3.10744   0.00017   0.00000   0.00283   0.00287  -3.10457
    D6        1.04467   0.00022   0.00000   0.00342   0.00343   1.04810
    D7        3.10744  -0.00017   0.00000  -0.00373  -0.00377   3.10367
    D8        1.08642  -0.00026   0.00000  -0.00482  -0.00481   1.08161
    D9       -1.04467  -0.00022   0.00000  -0.00423  -0.00425  -1.04891
   D10       -1.00671  -0.00051   0.00000  -0.00595  -0.00601  -1.01272
   D11        1.00671   0.00051   0.00000   0.00590   0.00596   1.01267
   D12        3.14159   0.00000   0.00000  -0.00003  -0.00002   3.14157
   D13        1.12818  -0.00101   0.00000  -0.01182  -0.01194   1.11623
   D14        3.14159   0.00000   0.00000   0.00003   0.00003  -3.14156
   D15       -1.00671  -0.00051   0.00000  -0.00590  -0.00596  -1.01266
   D16        3.14159  -0.00000   0.00000  -0.00000  -0.00000   3.14159
   D17       -1.12818   0.00101   0.00000   0.01185   0.01197  -1.11621
   D18        1.00671   0.00051   0.00000   0.00592   0.00598   1.01269
   D19        1.04467   0.00022   0.00000   0.00382   0.00384   1.04851
   D20       -3.14159   0.00000   0.00000   0.00000   0.00000  -3.14159
   D21       -1.04467  -0.00022   0.00000  -0.00382  -0.00384  -1.04851
   D22       -1.08642   0.00026   0.00000   0.00440   0.00440  -1.08202
   D23        1.01051   0.00005   0.00000   0.00058   0.00056   1.01107
   D24        3.10744  -0.00017   0.00000  -0.00324  -0.00328   3.10415
   D25       -3.10744   0.00017   0.00000   0.00324   0.00328  -3.10415
   D26       -1.01051  -0.00005   0.00000  -0.00058  -0.00056  -1.01107
   D27        1.08642  -0.00026   0.00000  -0.00440  -0.00440   1.08202
         Item               Value     Threshold  Converged?
 Maximum Force            0.007605     0.000450     NO 
 RMS     Force            0.002501     0.000300     NO 
 Maximum Displacement     0.036206     0.001800     NO 
 RMS     Displacement     0.012713     0.001200     NO 
 Predicted change in Energy=-6.893473D-04
 Lowest energy point so far.  Saving SCF results.
 GradGradGradGradGradGradGradGradGradGradGradGradGradGradGradGradGradGrad

 Leave Link  103 at Fri Mar 29 17:13:32 2024, MaxMem=   134217728 cpu:               0.1 elap:               0.0
 (Enter /home/emanuele/chem_software/gaussian//gdv/l202.exe)
                          Input orientation:                          
 ---------------------------------------------------------------------
 Center     Atomic      Atomic             Coordinates (Angstroms)
 Number     Number       Type             X           Y           Z
 ---------------------------------------------------------------------
      1          6           0       -2.493682    0.357643   -0.005972
      2          1           0       -2.137102   -0.676661   -0.021039
      3          1           0       -2.146019    0.839700   -0.926315
      4          1           0       -3.588260    0.329733   -0.043378
      5          6           0       -1.992720    1.093515    1.237258
      6          1           0       -0.887022    1.069009    1.263452
      7          1           0       -2.329300    0.559831    2.145966
      8          6           0       -2.483257    2.552647    1.277538
      9          1           0       -2.146673    3.086333    0.368832
     10          1           0       -3.588957    2.577098    1.251372
     11          6           0       -1.982311    3.288489    2.520793
     12          1           0       -0.887730    3.316017    2.558405
     13          1           0       -2.338475    4.322939    2.535626
     14          1           0       -2.330320    2.806673    3.441132
 ---------------------------------------------------------------------
                    Distance matrix (angstroms):
                    1          2          3          4          5
     1  C    0.000000
     2  H    1.094148   0.000000
     3  H    1.095573   1.766056   0.000000
     4  H    1.095573   1.766122   1.766268   0.000000
     5  C    1.529082   2.176621   2.183798   2.183837   0.000000
     6  H    2.167679   2.501995   2.536284   3.090473   1.106280
     7  H    2.167657   2.502352   3.090442   2.535973   1.106280
     8  C    2.542744   3.497793   2.811563   2.811974   1.539908
     9  H    2.776085   3.783149   2.593216   3.137983   2.179264
    10  H    2.776063   3.783366   3.137347   2.593652   2.179264
    11  C    3.903319   4.712460   4.231539   4.231818   2.542731
    12  H    4.231676   4.914869   4.456311   4.793749   2.811751
    13  H    4.712471   5.618993   4.914777   4.915173   3.497783
    14  H    4.231662   4.915036   4.793490   4.456396   2.811751
                    6          7          8          9         10
     6  H    0.000000
     7  H    1.765860   0.000000
     8  C    2.179300   2.179263   0.000000
     9  H    2.540997   3.094313   1.106280   0.000000
    10  H    3.094339   2.540945   1.106280   1.765893   0.000000
    11  C    2.776087   2.776053   1.529082   2.167675   2.167675
    12  H    2.593443   3.137641   2.183817   2.536123   3.090463
    13  H    3.783280   3.783239   2.176621   2.502194   2.502193
    14  H    3.137655   2.593406   2.183817   3.090463   2.536123
                   11         12         13         14
    11  C    0.000000
    12  H    1.095573   0.000000
    13  H    1.094148   1.766089   0.000000
    14  H    1.095573   1.766268   1.766089   0.000000
 Symmetry turned off by external request.
 Stoichiometry    C4H10
 Framework group  C1[X(C4H10)]
 Deg. of freedom    36
 Full point group                 C1      NOp   1
 Rotational constants (GHZ):          22.9464685           3.6456742           3.4129962
 Leave Link  202 at Fri Mar 29 17:13:32 2024, MaxMem=   134217728 cpu:               0.1 elap:               0.0
 (Enter /home/emanuele/chem_software/gaussian//gdv/l301.exe)
 Standard basis: VSTO-6G (5D, 7F)
 Ernie: Thresh=  0.10000D-02 Tol=  0.10000D-05 Strict=F.
  NNHCO=     0 NNPyr=     0 NCTC=     0               EPep=         0.000000000
    EC=        65.639139524  ECS=         2.230601240   EG=         0.197541101
   EHC=         0.000329371  EAt=       -21.067501684  AtH=         1.919620419
 EPDDG=         0.000000000  ECC=        68.067611236 EAtT=        22.987122103
    26 basis functions,   156 primitive gaussians,    26 cartesian basis functions
    13 alpha electrons       13 beta electrons
       nuclear repulsion energy        91.0547333394 Hartrees.
 IExCor=       0 DFT=F Ex=HF Corr=None N6=None ScaHFX=  1.000000
 ScaDFX=  1.000000  1.000000  1.000000  1.000000  1.000000  0.000000
 ScaDFX=  0.000000  0.000000  0.000000  0.000000  0.000000  0.000000
 IRadAn=      5 IRanWt=     -1 IRanGd=            0 ICorTp=0 IEmpDi=  4
 Integral buffers will be    131072 words long.
 Regular integral format.
 Two-electron integral symmetry is turned off.
 Leave Link  301 at Fri Mar 29 17:13:32 2024, MaxMem=   134217728 cpu:               0.2 elap:               0.1
 (Enter /home/emanuele/chem_software/gaussian//gdv/l302.exe)
 Do NDO integrals.
 NPDir=0 NMtPBC=     1 NCelOv=     1 NCel=       1 NClECP=     1 NCelD=      1
         NCelK=      1 NCelE2=     1 NClLst=     1 CellRange=     0.0.
 One-electron integrals computed using PRISM.
 NBasis=    26 RedAO= F EigKep=  0.00D+00  NBF=    26
 NBsUse=    26 1.00D-04 EigRej=  0.00D+00 NBFU=    26
 Leave Link  302 at Fri Mar 29 17:13:32 2024, MaxMem=   134217728 cpu:               0.3 elap:               0.1
 (Enter /home/emanuele/chem_software/gaussian//gdv/l303.exe)
 DipDrv:  MaxL=1.
 Leave Link  303 at Fri Mar 29 17:13:32 2024, MaxMem=   134217728 cpu:               0.1 elap:               0.0
 (Enter /home/emanuele/chem_software/gaussian//gdv/l401.exe)
 Initial guess from the checkpoint file:  "2_qm.chk"
 B after Tr=     0.000000    0.000000    0.000000
         Rot=    1.000000    0.000000    0.000000    0.000000 Ang=   0.00 deg.
 AO Guess basis will be translated and rotated to current coordinates.
 JPrj=0 DoOrth=T DoCkMO=T.
 Leave Link  401 at Fri Mar 29 17:13:32 2024, MaxMem=   134217728 cpu:               0.8 elap:               0.2
 (Enter /home/emanuele/chem_software/gaussian//gdv/l502.exe)
 Keep J ints in memory in canonical form, NReq=861102.
 FoFCou: FMM=F IPFlag=           0 FMFlag=           0 FMFlg1=           0
         NFxFlg=           0 DoJE=F BraDBF=F KetDBF=F FulRan=T
         wScrn=  0.000000 ICntrl=       600 IOpCl=  2 I1Cent=           0 NGrid=           0
         NMat0=    1 NMatS0=     50 NMatT0=    0 NMatD0=    1 NMtDS0=    0 NMtDT0=    0
 Symmetry not used in FoFCou.
 Two-electron integral symmetry not used.
 Closed shell SCF:
 Using DIIS extrapolation, IDIIS=  1040.
 Overlap will be assumed to be unity.
 NGot=   134217728 LenX=   134154919 LenY=   134153802
 Requested convergence on RMS density matrix=1.00D-08 within 128 cycles.
 Requested convergence on MAX density matrix=1.00D-06.
 Requested convergence on             energy=1.00D-06.
 No special actions if energy rises.

 Cycle   1  Pass 1  IDiag  1:
 E=-0.413024625898402E-01
 DIIS: error= 6.65D-04 at cycle   1 NSaved=   1.
 NSaved= 1 IEnMin= 1 EnMin=-0.413024625898402E-01 IErMin= 1 ErrMin= 6.65D-04
 ErrMax= 6.65D-04  0.00D+00 EMaxC= 1.00D-01 BMatC= 2.50D-05 BMatP= 2.50D-05
 IDIUse=3 WtCom= 9.93D-01 WtEn= 6.65D-03
 Coeff-Com:  0.100D+01
 Coeff-En:   0.100D+01
 Coeff:      0.100D+01
 RMSDP=3.21D-04 MaxDP=1.98D-03              OVMax= 0.00D+00

 Cycle   2  Pass 1  IDiag  3:
 E=-0.413818176009357E-01 Delta-E=       -0.000079355011 Rises=F Damp=F
 DIIS: error= 1.99D-04 at cycle   2 NSaved=   2.
 NSaved= 2 IEnMin= 2 EnMin=-0.413818176009357E-01 IErMin= 2 ErrMin= 1.99D-04
 ErrMax= 1.99D-04  0.00D+00 EMaxC= 1.00D-01 BMatC= 3.51D-06 BMatP= 2.50D-05
 IDIUse=3 WtCom= 9.98D-01 WtEn= 1.99D-03
 Coeff-Com: -0.525D+00 0.153D+01
 Coeff-En:   0.000D+00 0.100D+01
 Coeff:     -0.524D+00 0.152D+01
 Gap=     0.564 Goal=   None    Shift=    0.000
 RMSDP=2.00D-04 MaxDP=8.86D-04 DE=-7.94D-05 OVMax= 1.70D-03

 Cycle   3  Pass 1  IDiag  3:
 E=-0.413971665078492E-01 Delta-E=       -0.000015348907 Rises=F Damp=F
 DIIS: error= 3.80D-05 at cycle   3 NSaved=   3.
 NSaved= 3 IEnMin= 3 EnMin=-0.413971665078492E-01 IErMin= 3 ErrMin= 3.80D-05
 ErrMax= 3.80D-05  0.00D+00 EMaxC= 1.00D-01 BMatC= 1.08D-07 BMatP= 3.51D-06
 IDIUse=1 WtCom= 1.00D+00 WtEn= 0.00D+00
 Coeff-Com:  0.260D+00-0.842D+00 0.158D+01
 Coeff:      0.260D+00-0.842D+00 0.158D+01
 Gap=     0.564 Goal=   None    Shift=    0.000
 RMSDP=4.58D-05 MaxDP=2.41D-04 DE=-1.53D-05 OVMax= 3.17D-04

 Cycle   4  Pass 1  IDiag  3:
 E=-0.413977652744819E-01 Delta-E=       -0.000000598767 Rises=F Damp=F
 DIIS: error= 6.19D-06 at cycle   4 NSaved=   4.
 NSaved= 4 IEnMin= 4 EnMin=-0.413977652744819E-01 IErMin= 4 ErrMin= 6.19D-06
 ErrMax= 6.19D-06  0.00D+00 EMaxC= 1.00D-01 BMatC= 3.62D-09 BMatP= 1.08D-07
 IDIUse=1 WtCom= 1.00D+00 WtEn= 0.00D+00
 Coeff-Com: -0.144D+00 0.467D+00-0.942D+00 0.162D+01
 Coeff:     -0.144D+00 0.467D+00-0.942D+00 0.162D+01
 Gap=     0.564 Goal=   None    Shift=    0.000
 RMSDP=8.42D-06 MaxDP=4.32D-05 DE=-5.99D-07 OVMax= 6.96D-05

 Cycle   5  Pass 1  IDiag  3:
 E=-0.413977870237972E-01 Delta-E=       -0.000000021749 Rises=F Damp=F
 DIIS: error= 2.60D-06 at cycle   5 NSaved=   5.
 NSaved= 5 IEnMin= 5 EnMin=-0.413977870237972E-01 IErMin= 5 ErrMin= 2.60D-06
 ErrMax= 2.60D-06  0.00D+00 EMaxC= 1.00D-01 BMatC= 2.91D-10 BMatP= 3.62D-09
 IDIUse=1 WtCom= 1.00D+00 WtEn= 0.00D+00
 Coeff-Com:  0.102D+00-0.332D+00 0.676D+00-0.131D+01 0.186D+01
 Coeff:      0.102D+00-0.332D+00 0.676D+00-0.131D+01 0.186D+01
 Gap=     0.564 Goal=   None    Shift=    0.000
 RMSDP=2.83D-06 MaxDP=1.75D-05 DE=-2.17D-08 OVMax= 1.73D-05

 Cycle   6  Pass 1  IDiag  3:
 E=-0.413977890092099E-01 Delta-E=       -0.000000001985 Rises=F Damp=F
 DIIS: error= 5.58D-07 at cycle   6 NSaved=   6.
 NSaved= 6 IEnMin= 6 EnMin=-0.413977890092099E-01 IErMin= 6 ErrMin= 5.58D-07
 ErrMax= 5.58D-07  0.00D+00 EMaxC= 1.00D-01 BMatC= 1.36D-11 BMatP= 2.91D-10
 IDIUse=1 WtCom= 1.00D+00 WtEn= 0.00D+00
 Coeff-Com: -0.494D-01 0.160D+00-0.325D+00 0.642D+00-0.105D+01 0.162D+01
 Coeff:     -0.494D-01 0.160D+00-0.325D+00 0.642D+00-0.105D+01 0.162D+01
 Gap=     0.564 Goal=   None    Shift=    0.000
 RMSDP=5.89D-07 MaxDP=4.21D-06 DE=-1.99D-09 OVMax= 3.45D-06

 Cycle   7  Pass 1  IDiag  3:
 E=-0.413977890967487E-01 Delta-E=       -0.000000000088 Rises=F Damp=F
 DIIS: error= 9.33D-08 at cycle   7 NSaved=   7.
 NSaved= 7 IEnMin= 7 EnMin=-0.413977890967487E-01 IErMin= 7 ErrMin= 9.33D-08
 ErrMax= 9.33D-08  0.00D+00 EMaxC= 1.00D-01 BMatC= 4.79D-13 BMatP= 1.36D-11
 IDIUse=1 WtCom= 1.00D+00 WtEn= 0.00D+00
 Coeff-Com:  0.195D-01-0.631D-01 0.128D+00-0.252D+00 0.419D+00-0.770D+00
 Coeff-Com:  0.152D+01
 Coeff:      0.195D-01-0.631D-01 0.128D+00-0.252D+00 0.419D+00-0.770D+00
 Coeff:      0.152D+01
 Gap=     0.564 Goal=   None    Shift=    0.000
 RMSDP=1.06D-07 MaxDP=6.58D-07 DE=-8.75D-11 OVMax= 8.00D-07

 Cycle   8  Pass 1  IDiag  3:
 E=-0.413977890993493E-01 Delta-E=       -0.000000000003 Rises=F Damp=F
 DIIS: error= 1.88D-08 at cycle   8 NSaved=   8.
 NSaved= 8 IEnMin= 8 EnMin=-0.413977890993493E-01 IErMin= 8 ErrMin= 1.88D-08
 ErrMax= 1.88D-08  0.00D+00 EMaxC= 1.00D-01 BMatC= 1.18D-14 BMatP= 4.79D-13
 IDIUse=1 WtCom= 1.00D+00 WtEn= 0.00D+00
 Coeff-Com: -0.572D-02 0.185D-01-0.373D-01 0.737D-01-0.123D+00 0.239D+00
 Coeff-Com: -0.579D+00 0.141D+01
 Coeff:     -0.572D-02 0.185D-01-0.373D-01 0.737D-01-0.123D+00 0.239D+00
 Coeff:     -0.579D+00 0.141D+01
 Gap=     0.564 Goal=   None    Shift=    0.000
 RMSDP=1.38D-08 MaxDP=9.03D-08 DE=-2.60D-12 OVMax= 6.39D-08

 Cycle   9  Pass 1  IDiag  3:
 E=-0.413977890994772E-01 Delta-E=       -0.000000000000 Rises=F Damp=F
 DIIS: error= 5.21D-09 at cycle   9 NSaved=   9.
 NSaved= 9 IEnMin= 9 EnMin=-0.413977890994772E-01 IErMin= 9 ErrMin= 5.21D-09
 ErrMax= 5.21D-09  0.00D+00 EMaxC= 1.00D-01 BMatC= 1.14D-15 BMatP= 1.18D-14
 IDIUse=1 WtCom= 1.00D+00 WtEn= 0.00D+00
 Coeff-Com:  0.168D-02-0.544D-02 0.109D-01-0.215D-01 0.361D-01-0.734D-01
 Coeff-Com:  0.204D+00-0.647D+00 0.149D+01
 Coeff:      0.168D-02-0.544D-02 0.109D-01-0.215D-01 0.361D-01-0.734D-01
 Coeff:      0.204D+00-0.647D+00 0.149D+01
 Gap=     0.564 Goal=   None    Shift=    0.000
 RMSDP=4.43D-09 MaxDP=3.30D-08 DE=-1.28D-13 OVMax= 2.71D-08

 Cycle  10  Pass 2  IDiag  1:
 SCF Done:  E(RPM6) = -0.413977890995E-01 A.U. after   10 cycles
            NFock=  9  Conv=0.44D-08     -V/T= 0.9989
 KE=-3.627728915624D+01 PE=-1.301521851741D+02 EE= 7.533334320181D+01
 Leave Link  502 at Fri Mar 29 17:13:32 2024, MaxMem=   134217728 cpu:               0.2 elap:               0.0
 (Enter /home/emanuele/chem_software/gaussian//gdv/l701.exe)
 ... and contract with generalized density number  0.
 Compute integral first derivatives.
 Leave Link  701 at Fri Mar 29 17:13:32 2024, MaxMem=   134217728 cpu:               0.2 elap:               0.1
 (Enter /home/emanuele/chem_software/gaussian//gdv/l702.exe)
 L702 exits ... SP integral derivatives will be done elsewhere.
 Leave Link  702 at Fri Mar 29 17:13:32 2024, MaxMem=   134217728 cpu:               0.1 elap:               0.0
 (Enter /home/emanuele/chem_software/gaussian//gdv/l703.exe)
 Integral derivatives from FoFJK, PRISM(SPDF).
 Compute integral first derivatives, UseDBF=F ICtDFT=           0.
 Calling FoFJK, ICntrl=      2127 FMM=F ISym2X=0 I1Cent= 0 IOpClX= 0 NMat=1 NMatS=1 NMatT=0.
 FoFJK:  IHMeth=40 ICntrl=    2127 DoSepK=F KAlg= 0 I1Cent=           0 FoldK=F
 IRaf=         0 NMat=       1 IRICut=       1 DoRegI=T DoRafI=F ISym2E= 0 IDoP0=3 IntGTp=3.
 FoFCou: FMM=F IPFlag=           0 FMFlag=      100000 FMFlg1=         800
         NFxFlg=           0 DoJE=F BraDBF=F KetDBF=F FulRan=T
         wScrn=  0.000000 ICntrl=      2127 IOpCl=  0 I1Cent=           0 NGrid=           0
         NMat0=    1 NMatS0=      1 NMatT0=    0 NMatD0=    1 NMtDS0=    0 NMtDT0=    0
 Symmetry not used in FoFCou.
 Leave Link  703 at Fri Mar 29 17:13:32 2024, MaxMem=   134217728 cpu:               0.1 elap:               0.0
 (Enter /home/emanuele/chem_software/gaussian//gdv/l716.exe)
 Dipole        = 2.34444333D-05-4.53835125D-06-3.37187123D-06
 -------------------------------------------------------------------
 Center     Atomic                   Forces (Hartrees/Bohr)
 Number     Number              X              Y              Z
 -------------------------------------------------------------------
      1        6           0.000116510    0.001599854    0.001096994
      2        1           0.000151020   -0.000646047   -0.000116507
      3        1          -0.000007647    0.000012455   -0.000094534
      4        1          -0.000076079   -0.000014509   -0.000046050
      5        6          -0.001257966    0.001810252   -0.000997061
      6        1           0.000351481    0.000256240    0.000189886
      7        1          -0.000079996    0.000099374    0.000458497
      8        6           0.001256832   -0.001818163    0.001000911
      9        1           0.000078643   -0.000099017   -0.000456248
     10        1          -0.000352051   -0.000251653   -0.000192986
     11        6          -0.000110669   -0.001596070   -0.001101642
     12        1           0.000078318    0.000013938    0.000047961
     13        1          -0.000154871    0.000644730    0.000118871
     14        1           0.000006474   -0.000011382    0.000091908
 -------------------------------------------------------------------
 Cartesian Forces:  Max     0.001818163 RMS     0.000709344
 Leave Link  716 at Fri Mar 29 17:13:32 2024, MaxMem=   134217728 cpu:               0.1 elap:               0.0
 (Enter /home/emanuele/chem_software/gaussian//gdv/l103.exe)

 GradGradGradGradGradGradGradGradGradGradGradGradGradGradGradGradGradGrad
 Berny optimization.
 Using GEDIIS/GDIIS optimizer.
 FormGI is forming the generalized inverse of G from B-inverse, IUseBI=4.
 Internal  Forces:  Max     0.003222626 RMS     0.000514911
 Search for a local minimum.
 Step number   2 out of a maximum of  100 on scan point     1 out of    11
 All quantities printed in internal units (Hartrees-Bohrs-Radians)
 RMS Force = .51792D-03 SwitMx=.10000D-02 MixMth= 2
 Mixed Optimization -- En-DIIS/RFO-DIIS
 Update second derivatives using D2CorX and points    1    2
 DE= -6.84D-04 DEPred=-6.89D-04 R= 9.92D-01
 TightC=F SS=  1.41D+00  RLast= 7.41D-02 DXNew= 5.0454D-01 2.2217D-01
 Trust test= 9.92D-01 RLast= 7.41D-02 DXMaxT set to 3.00D-01
 ITU=  1  0
 Use linear search instead of GDIIS.
     Eigenvalues ---    0.00381   0.00403   0.01800   0.03592   0.03775
     Eigenvalues ---    0.04839   0.05041   0.05452   0.05462   0.05503
     Eigenvalues ---    0.07908   0.08357   0.12017   0.12142   0.15922
     Eigenvalues ---    0.16000   0.16000   0.16000   0.16000   0.16051
     Eigenvalues ---    0.19730   0.21851   0.29471   0.29663   0.30109
     Eigenvalues ---    0.34288   0.34288   0.34288   0.34382   0.34537
     Eigenvalues ---    0.34558   0.34558   0.34558   0.34689   0.37321
     Eigenvalues --- 1000.000001000.000001000.000001000.000001000.00000
     Eigenvalues --- 1000.000001000.000001000.000001000.000001000.00000
     Eigenvalues --- 1000.000001000.000001000.000001000.000001000.00000
     Eigenvalues --- 1000.000001000.000001000.000001000.000001000.00000
     Eigenvalues --- 1000.000001000.000001000.000001000.000001000.00000
     Eigenvalues --- 1000.000001000.000001000.000001000.00000
 RFO step:  Lambda=-6.49776214D-05 EMin= 3.81256157D-03
 Quartic linear search produced a step of  0.00487.
 Iteration  1 RMS(Cart)=  0.00568423 RMS(Int)=  0.00000618
 Iteration  2 RMS(Cart)=  0.00000775 RMS(Int)=  0.00000343
 Iteration  3 RMS(Cart)=  0.00000000 RMS(Int)=  0.00000343
 Fixing frozen coordinates.
 Iteration  1 RMS(Cart)=  0.00000026 RMS(Int)=  0.00000040
 ITry= 1 IFail=0 DXMaxC= 1.33D-02 DCOld= 1.00D+10 DXMaxT= 3.00D-01 DXLimC= 3.00D+00 Rises=F
 Variable       Old X    -DE/DX   Delta X   Delta X   Delta X     New X
                                 (Linear)    (Quad)   (Total)
    R1        2.06764   0.00066   0.00003   0.00217   0.00219   2.06983
    R2        2.07033   0.00008   0.00003   0.00051   0.00054   2.07088
    R3        2.07033   0.00008   0.00003   0.00050   0.00053   2.07086
    R4        2.88955  -0.00120   0.00002  -0.00393  -0.00392   2.88563
    R5        2.09057   0.00035   0.00011   0.00197   0.00208   2.09265
    R6        2.09057   0.00035   0.00011   0.00198   0.00209   2.09266
    R7        2.91000  -0.00322   0.00010  -0.01009  -0.00999   2.90001
    R8        2.09057   0.00035   0.00011   0.00198   0.00208   2.09265
    R9        2.09057   0.00035   0.00011   0.00198   0.00208   2.09265
   R10        2.88955  -0.00120   0.00002  -0.00393  -0.00392   2.88563
   R11        2.07033   0.00008   0.00003   0.00051   0.00054   2.07087
   R12        2.06764   0.00066   0.00003   0.00217   0.00219   2.06983
   R13        2.07033   0.00008   0.00003   0.00051   0.00054   2.07087
    A1        1.87649  -0.00009  -0.00001  -0.00065  -0.00066   1.87582
    A2        1.87659  -0.00009  -0.00001  -0.00037  -0.00038   1.87621
    A3        1.93837   0.00017  -0.00004   0.00086   0.00082   1.93919
    A4        1.87504  -0.00005  -0.00001  -0.00062  -0.00063   1.87441
    A5        1.94690   0.00002   0.00003   0.00028   0.00031   1.94721
    A6        1.94695   0.00002   0.00003   0.00040   0.00043   1.94738
    A7        1.91351   0.00042   0.00001   0.00330   0.00331   1.91682
    A8        1.91348   0.00042   0.00001   0.00324   0.00325   1.91673
    A9        1.95294  -0.00075  -0.00013  -0.00477  -0.00490   1.94804
   A10        1.84829  -0.00013  -0.00001   0.00019   0.00017   1.84847
   A11        1.91639   0.00004   0.00006  -0.00076  -0.00070   1.91569
   A12        1.91634   0.00004   0.00006  -0.00089  -0.00083   1.91551
   A13        1.91634   0.00004   0.00006  -0.00089  -0.00083   1.91551
   A14        1.91634   0.00004   0.00006  -0.00090  -0.00084   1.91550
   A15        1.95292  -0.00075  -0.00013  -0.00481  -0.00494   1.94798
   A16        1.84834  -0.00013  -0.00001   0.00032   0.00031   1.84865
   A17        1.91350   0.00042   0.00001   0.00330   0.00330   1.91680
   A18        1.91350   0.00042   0.00001   0.00330   0.00331   1.91681
   A19        1.94692   0.00002   0.00003   0.00034   0.00037   1.94729
   A20        1.93837   0.00017  -0.00004   0.00086   0.00082   1.93919
   A21        1.94692   0.00002   0.00003   0.00034   0.00037   1.94730
   A22        1.87654  -0.00009  -0.00001  -0.00051  -0.00052   1.87602
   A23        1.87504  -0.00005  -0.00001  -0.00062  -0.00063   1.87441
   A24        1.87654  -0.00009  -0.00001  -0.00051  -0.00052   1.87602
    D1        1.01050   0.00016  -0.00000   0.00000   0.00001   1.01051
    D2       -1.01156  -0.00016  -0.00001  -0.00395  -0.00396  -1.01553
    D3        3.14110   0.00000  -0.00000  -0.00188  -0.00188   3.13923
    D4       -1.08250   0.00014   0.00002   0.00006   0.00008  -1.08242
    D5       -3.10457  -0.00018   0.00001  -0.00390  -0.00389  -3.10845
    D6        1.04810  -0.00002   0.00002  -0.00182  -0.00180   1.04630
    D7        3.10367   0.00018  -0.00002   0.00039   0.00037   3.10405
    D8        1.08161  -0.00014  -0.00002  -0.00357  -0.00359   1.07801
    D9       -1.04891   0.00002  -0.00002  -0.00149  -0.00151  -1.05042
   D10       -1.01272   0.00006  -0.00003   0.00025   0.00023  -1.01249
   D11        1.01267  -0.00006   0.00003  -0.00039  -0.00036   1.01231
   D12        3.14157   0.00000  -0.00000  -0.00007  -0.00007   3.14150
   D13        1.11623   0.00011  -0.00006   0.00070   0.00065   1.11688
   D14       -3.14156  -0.00000   0.00000   0.00006   0.00006  -3.14151
   D15       -1.01266   0.00006  -0.00003   0.00038   0.00035  -1.01231
   D16        3.14159  -0.00000  -0.00000  -0.00003  -0.00003   3.14156
   D17       -1.11621  -0.00011   0.00006  -0.00067  -0.00061  -1.11682
   D18        1.01269  -0.00006   0.00003  -0.00035  -0.00032   1.01237
   D19        1.04851  -0.00002   0.00002  -0.00016  -0.00014   1.04836
   D20       -3.14159   0.00000   0.00000   0.00000   0.00000  -3.14159
   D21       -1.04851   0.00002  -0.00002   0.00016   0.00015  -1.04836
   D22       -1.08202   0.00014   0.00002   0.00191   0.00193  -1.08009
   D23        1.01107   0.00016   0.00000   0.00207   0.00208   1.01315
   D24        3.10415   0.00018  -0.00002   0.00224   0.00223   3.10638
   D25       -3.10415  -0.00018   0.00002  -0.00224  -0.00223  -3.10638
   D26       -1.01107  -0.00016  -0.00000  -0.00208  -0.00208  -1.01315
   D27        1.08202  -0.00014  -0.00002  -0.00191  -0.00194   1.08008
         Item               Value     Threshold  Converged?
 Maximum Force            0.003223     0.000450     NO 
 RMS     Force            0.000518     0.000300     NO 
 Maximum Displacement     0.013265     0.001800     NO 
 RMS     Displacement     0.005682     0.001200     NO 
 Predicted change in Energy=-3.253228D-05
 Lowest energy point so far.  Saving SCF results.
 GradGradGradGradGradGradGradGradGradGradGradGradGradGradGradGradGradGrad

 Leave Link  103 at Fri Mar 29 17:13:32 2024, MaxMem=   134217728 cpu:               0.0 elap:               0.0
 (Enter /home/emanuele/chem_software/gaussian//gdv/l202.exe)
                          Input orientation:                          
 ---------------------------------------------------------------------
 Center     Atomic      Atomic             Coordinates (Angstroms)
 Number     Number       Type             X           Y           Z
 ---------------------------------------------------------------------
      1          6           0       -2.493543    0.363132   -0.002334
      2          1           0       -2.136332   -0.672137   -0.020222
      3          1           0       -2.147234    0.846720   -0.922727
      4          1           0       -3.588405    0.334617   -0.039180
      5          6           0       -1.992381    1.096386    1.239814
      6          1           0       -0.885573    1.074466    1.267902
      7          1           0       -2.329734    0.565234    2.151061
      8          6           0       -2.483599    2.549840    1.274947
      9          1           0       -2.146219    3.081000    0.363718
     10          1           0       -3.590414    2.571554    1.246943
     11          6           0       -1.982501    3.282983    2.517186
     12          1           0       -0.887623    3.309604    2.555092
     13          1           0       -2.337708    4.318961    2.533920
     14          1           0       -2.330561    2.800607    3.437550
 ---------------------------------------------------------------------
                    Distance matrix (angstroms):
                    1          2          3          4          5
     1  C    0.000000
     2  H    1.095309   0.000000
     3  H    1.095861   1.766794   0.000000
     4  H    1.095854   1.767040   1.766318   0.000000
     5  C    1.527009   2.176256   2.182406   2.182524   0.000000
     6  H    2.169115   2.504852   2.538210   3.092109   1.107381
     7  H    2.169052   2.506584   3.092040   2.536650   1.107385
     8  C    2.532437   3.489870   2.800630   2.802630   1.534619
     9  H    2.764315   3.772737   2.578168   3.128074   2.174834
    10  H    2.764227   3.773804   3.124946   2.580311   2.174829
    11  C    3.890331   4.701604   4.218473   4.219810   2.532387
    12  H    4.219136   4.903650   4.443832   4.782784   2.801567
    13  H    4.701643   5.610281   4.903177   4.905108   3.489835
    14  H    4.219081   4.904474   4.781558   4.444201   2.801567
                    6          7          8          9         10
     6  H    0.000000
     7  H    1.767736   0.000000
     8  C    2.174963   2.174836   0.000000
     9  H    2.536327   3.091497   1.107382   0.000000
    10  H    3.091582   2.536152   1.107382   1.767858   0.000000
    11  C    2.764328   2.764196   1.527009   2.169107   2.169108
    12  H    2.579284   3.126419   2.182465   2.537409   3.092095
    13  H    3.773360   3.773210   2.176255   2.505792   2.505795
    14  H    3.126488   2.579137   2.182465   3.092094   2.537410
                   11         12         13         14
    11  C    0.000000
    12  H    1.095857   0.000000
    13  H    1.095309   1.766917   0.000000
    14  H    1.095857   1.766318   1.766917   0.000000
 Symmetry turned off by external request.
 Stoichiometry    C4H10
 Framework group  C1[X(C4H10)]
 Deg. of freedom    36
 Full point group                 C1      NOp   1
 Rotational constants (GHZ):          22.9216569           3.6694676           3.4336119
 Leave Link  202 at Fri Mar 29 17:13:32 2024, MaxMem=   134217728 cpu:               0.1 elap:               0.0
 (Enter /home/emanuele/chem_software/gaussian//gdv/l301.exe)
 Standard basis: VSTO-6G (5D, 7F)
 Ernie: Thresh=  0.10000D-02 Tol=  0.10000D-05 Strict=F.
  NNHCO=     0 NNPyr=     0 NCTC=     0               EPep=         0.000000000
    EC=        65.723165831  ECS=         2.231599296   EG=         0.198310704
   EHC=         0.000327760  EAt=       -21.067501684  AtH=         1.919620419
 EPDDG=         0.000000000  ECC=        68.153403591 EAtT=        22.987122103
    26 basis functions,   156 primitive gaussians,    26 cartesian basis functions
    13 alpha electrons       13 beta electrons
       nuclear repulsion energy        91.1405256943 Hartrees.
 IExCor=       0 DFT=F Ex=HF Corr=None N6=None ScaHFX=  1.000000
 ScaDFX=  1.000000  1.000000  1.000000  1.000000  1.000000  0.000000
 ScaDFX=  0.000000  0.000000  0.000000  0.000000  0.000000  0.000000
 IRadAn=      5 IRanWt=     -1 IRanGd=            0 ICorTp=0 IEmpDi=  4
 Integral buffers will be    131072 words long.
 Regular integral format.
 Two-electron integral symmetry is turned off.
 Leave Link  301 at Fri Mar 29 17:13:32 2024, MaxMem=   134217728 cpu:               0.2 elap:               0.1
 (Enter /home/emanuele/chem_software/gaussian//gdv/l302.exe)
 Do NDO integrals.
 NPDir=0 NMtPBC=     1 NCelOv=     1 NCel=       1 NClECP=     1 NCelD=      1
         NCelK=      1 NCelE2=     1 NClLst=     1 CellRange=     0.0.
 One-electron integrals computed using PRISM.
 NBasis=    26 RedAO= F EigKep=  0.00D+00  NBF=    26
 NBsUse=    26 1.00D-04 EigRej=  0.00D+00 NBFU=    26
 Leave Link  302 at Fri Mar 29 17:13:33 2024, MaxMem=   134217728 cpu:               0.3 elap:               0.1
 (Enter /home/emanuele/chem_software/gaussian//gdv/l303.exe)
 DipDrv:  MaxL=1.
 Leave Link  303 at Fri Mar 29 17:13:33 2024, MaxMem=   134217728 cpu:               0.1 elap:               0.0
 (Enter /home/emanuele/chem_software/gaussian//gdv/l401.exe)
 Initial guess from the checkpoint file:  "2_qm.chk"
 B after Tr=     0.000000    0.000000    0.000000
         Rot=    1.000000    0.000000    0.000000    0.000000 Ang=   0.00 deg.
 AO Guess basis will be translated and rotated to current coordinates.
 JPrj=0 DoOrth=T DoCkMO=T.
 Leave Link  401 at Fri Mar 29 17:13:33 2024, MaxMem=   134217728 cpu:               0.8 elap:               0.2
 (Enter /home/emanuele/chem_software/gaussian//gdv/l502.exe)
 Keep J ints in memory in canonical form, NReq=861102.
 FoFCou: FMM=F IPFlag=           0 FMFlag=           0 FMFlg1=           0
         NFxFlg=           0 DoJE=F BraDBF=F KetDBF=F FulRan=T
         wScrn=  0.000000 ICntrl=       600 IOpCl=  2 I1Cent=           0 NGrid=           0
         NMat0=    1 NMatS0=     50 NMatT0=    0 NMatD0=    1 NMtDS0=    0 NMtDT0=    0
 Symmetry not used in FoFCou.
 Two-electron integral symmetry not used.
 Closed shell SCF:
 Using DIIS extrapolation, IDIIS=  1040.
 Overlap will be assumed to be unity.
 NGot=   134217728 LenX=   134154919 LenY=   134153802
 Requested convergence on RMS density matrix=1.00D-08 within 128 cycles.
 Requested convergence on MAX density matrix=1.00D-06.
 Requested convergence on             energy=1.00D-06.
 No special actions if energy rises.

 Cycle   1  Pass 1  IDiag  1:
 E=-0.414047391001020E-01
 DIIS: error= 2.01D-04 at cycle   1 NSaved=   1.
 NSaved= 1 IEnMin= 1 EnMin=-0.414047391001020E-01 IErMin= 1 ErrMin= 2.01D-04
 ErrMax= 2.01D-04  0.00D+00 EMaxC= 1.00D-01 BMatC= 3.58D-06 BMatP= 3.58D-06
 IDIUse=3 WtCom= 9.98D-01 WtEn= 2.01D-03
 Coeff-Com:  0.100D+01
 Coeff-En:   0.100D+01
 Coeff:      0.100D+01
 RMSDP=1.27D-04 MaxDP=6.57D-04              OVMax= 0.00D+00

 Cycle   2  Pass 1  IDiag  3:
 E=-0.414165713011698E-01 Delta-E=       -0.000011832201 Rises=F Damp=F
 DIIS: error= 8.67D-05 at cycle   2 NSaved=   2.
 NSaved= 2 IEnMin= 2 EnMin=-0.414165713011698E-01 IErMin= 2 ErrMin= 8.67D-05
 ErrMax= 8.67D-05  0.00D+00 EMaxC= 1.00D-01 BMatC= 4.98D-07 BMatP= 3.58D-06
 IDIUse=1 WtCom= 1.00D+00 WtEn= 0.00D+00
 Coeff-Com: -0.518D+00 0.152D+01
 Coeff:     -0.518D+00 0.152D+01
 Gap=     0.564 Goal=   None    Shift=    0.000
 RMSDP=7.86D-05 MaxDP=4.54D-04 DE=-1.18D-05 OVMax= 6.66D-04

 Cycle   3  Pass 1  IDiag  3:
 E=-0.414188377392435E-01 Delta-E=       -0.000002266438 Rises=F Damp=F
 DIIS: error= 1.78D-05 at cycle   3 NSaved=   3.
 NSaved= 3 IEnMin= 3 EnMin=-0.414188377392435E-01 IErMin= 3 ErrMin= 1.78D-05
 ErrMax= 1.78D-05  0.00D+00 EMaxC= 1.00D-01 BMatC= 1.44D-08 BMatP= 4.98D-07
 IDIUse=1 WtCom= 1.00D+00 WtEn= 0.00D+00
 Coeff-Com:  0.223D+00-0.740D+00 0.152D+01
 Coeff:      0.223D+00-0.740D+00 0.152D+01
 Gap=     0.564 Goal=   None    Shift=    0.000
 RMSDP=1.70D-05 MaxDP=9.52D-05 DE=-2.27D-06 OVMax= 1.71D-04

 Cycle   4  Pass 1  IDiag  3:
 E=-0.414189193859471E-01 Delta-E=       -0.000000081647 Rises=F Damp=F
 DIIS: error= 2.44D-06 at cycle   4 NSaved=   4.
 NSaved= 4 IEnMin= 4 EnMin=-0.414189193859471E-01 IErMin= 4 ErrMin= 2.44D-06
 ErrMax= 2.44D-06  0.00D+00 EMaxC= 1.00D-01 BMatC= 3.55D-10 BMatP= 1.44D-08
 IDIUse=1 WtCom= 1.00D+00 WtEn= 0.00D+00
 Coeff-Com: -0.808D-01 0.272D+00-0.635D+00 0.144D+01
 Coeff:     -0.808D-01 0.272D+00-0.635D+00 0.144D+01
 Gap=     0.564 Goal=   None    Shift=    0.000
 RMSDP=2.44D-06 MaxDP=9.31D-06 DE=-8.16D-08 OVMax= 2.38D-05

 Cycle   5  Pass 1  IDiag  3:
 E=-0.414189211722658E-01 Delta-E=       -0.000000001786 Rises=F Damp=F
 DIIS: error= 6.27D-07 at cycle   5 NSaved=   5.
 NSaved= 5 IEnMin= 5 EnMin=-0.414189211722658E-01 IErMin= 5 ErrMin= 6.27D-07
 ErrMax= 6.27D-07  0.00D+00 EMaxC= 1.00D-01 BMatC= 1.42D-11 BMatP= 3.55D-10
 IDIUse=1 WtCom= 1.00D+00 WtEn= 0.00D+00
 Coeff-Com:  0.364D-01-0.123D+00 0.291D+00-0.729D+00 0.152D+01
 Coeff:      0.364D-01-0.123D+00 0.291D+00-0.729D+00 0.152D+01
 Gap=     0.564 Goal=   None    Shift=    0.000
 RMSDP=4.71D-07 MaxDP=2.92D-06 DE=-1.79D-09 OVMax= 2.84D-06

 Cycle   6  Pass 1  IDiag  3:
 E=-0.414189212530545E-01 Delta-E=       -0.000000000081 Rises=F Damp=F
 DIIS: error= 2.04D-07 at cycle   6 NSaved=   6.
 NSaved= 6 IEnMin= 6 EnMin=-0.414189212530545E-01 IErMin= 6 ErrMin= 2.04D-07
 ErrMax= 2.04D-07  0.00D+00 EMaxC= 1.00D-01 BMatC= 1.45D-12 BMatP= 1.42D-11
 IDIUse=1 WtCom= 1.00D+00 WtEn= 0.00D+00
 Coeff-Com: -0.196D-01 0.660D-01-0.157D+00 0.402D+00-0.106D+01 0.177D+01
 Coeff:     -0.196D-01 0.660D-01-0.157D+00 0.402D+00-0.106D+01 0.177D+01
 Gap=     0.564 Goal=   None    Shift=    0.000
 RMSDP=1.98D-07 MaxDP=1.46D-06 DE=-8.08D-11 OVMax= 1.40D-06

 Cycle   7  Pass 1  IDiag  3:
 E=-0.414189212632436E-01 Delta-E=       -0.000000000010 Rises=F Damp=F
 DIIS: error= 5.05D-08 at cycle   7 NSaved=   7.
 NSaved= 7 IEnMin= 7 EnMin=-0.414189212632436E-01 IErMin= 7 ErrMin= 5.05D-08
 ErrMax= 5.05D-08  0.00D+00 EMaxC= 1.00D-01 BMatC= 8.54D-14 BMatP= 1.45D-12
 IDIUse=1 WtCom= 1.00D+00 WtEn= 0.00D+00
 Coeff-Com:  0.104D-01-0.349D-01 0.831D-01-0.214D+00 0.583D+00-0.114D+01
 Coeff-Com:  0.171D+01
 Coeff:      0.104D-01-0.349D-01 0.831D-01-0.214D+00 0.583D+00-0.114D+01
 Coeff:      0.171D+01
 Gap=     0.564 Goal=   None    Shift=    0.000
 RMSDP=5.03D-08 MaxDP=3.90D-07 DE=-1.02D-11 OVMax= 3.64D-07

 Cycle   8  Pass 1  IDiag  3:
 E=-0.414189212636416E-01 Delta-E=       -0.000000000000 Rises=F Damp=F
 DIIS: error= 8.35D-09 at cycle   8 NSaved=   8.
 NSaved= 8 IEnMin= 8 EnMin=-0.414189212636416E-01 IErMin= 8 ErrMin= 8.35D-09
 ErrMax= 8.35D-09  0.00D+00 EMaxC= 1.00D-01 BMatC= 2.97D-15 BMatP= 8.54D-14
 IDIUse=1 WtCom= 1.00D+00 WtEn= 0.00D+00
 Coeff-Com: -0.332D-02 0.112D-01-0.266D-01 0.686D-01-0.189D+00 0.382D+00
 Coeff-Com: -0.708D+00 0.146D+01
 Coeff:     -0.332D-02 0.112D-01-0.266D-01 0.686D-01-0.189D+00 0.382D+00
 Coeff:     -0.708D+00 0.146D+01
 Gap=     0.564 Goal=   None    Shift=    0.000
 RMSDP=8.06D-09 MaxDP=5.89D-08 DE=-3.98D-13 OVMax= 3.79D-08

 Cycle   9  Pass 2  IDiag  1:
 SCF Done:  E(RPM6) = -0.414189212636E-01 A.U. after    9 cycles
            NFock=  8  Conv=0.81D-08     -V/T= 0.9989
 KE=-3.627899258705D+01 PE=-1.303211467482D+02 EE= 7.541819471969D+01
 Leave Link  502 at Fri Mar 29 17:13:33 2024, MaxMem=   134217728 cpu:               0.2 elap:               0.1
 (Enter /home/emanuele/chem_software/gaussian//gdv/l701.exe)
 ... and contract with generalized density number  0.
 Compute integral first derivatives.
 Leave Link  701 at Fri Mar 29 17:13:33 2024, MaxMem=   134217728 cpu:               0.2 elap:               0.1
 (Enter /home/emanuele/chem_software/gaussian//gdv/l702.exe)
 L702 exits ... SP integral derivatives will be done elsewhere.
 Leave Link  702 at Fri Mar 29 17:13:33 2024, MaxMem=   134217728 cpu:               0.2 elap:               0.0
 (Enter /home/emanuele/chem_software/gaussian//gdv/l703.exe)
 Integral derivatives from FoFJK, PRISM(SPDF).
 Compute integral first derivatives, UseDBF=F ICtDFT=           0.
 Calling FoFJK, ICntrl=      2127 FMM=F ISym2X=0 I1Cent= 0 IOpClX= 0 NMat=1 NMatS=1 NMatT=0.
 FoFJK:  IHMeth=40 ICntrl=    2127 DoSepK=F KAlg= 0 I1Cent=           0 FoldK=F
 IRaf=         0 NMat=       1 IRICut=       1 DoRegI=T DoRafI=F ISym2E= 0 IDoP0=3 IntGTp=3.
 FoFCou: FMM=F IPFlag=           0 FMFlag=      100000 FMFlg1=         800
         NFxFlg=           0 DoJE=F BraDBF=F KetDBF=F FulRan=T
         wScrn=  0.000000 ICntrl=      2127 IOpCl=  0 I1Cent=           0 NGrid=           0
         NMat0=    1 NMatS0=      1 NMatT0=    0 NMatD0=    1 NMtDS0=    0 NMtDT0=    0
 Symmetry not used in FoFCou.
 Leave Link  703 at Fri Mar 29 17:13:33 2024, MaxMem=   134217728 cpu:               0.1 elap:               0.0
 (Enter /home/emanuele/chem_software/gaussian//gdv/l716.exe)
 Dipole        = 8.91744685D-05-1.71713502D-05-1.41072041D-05
 -------------------------------------------------------------------
 Center     Atomic                   Forces (Hartrees/Bohr)
 Number     Number              X              Y              Z
 -------------------------------------------------------------------
      1        6           0.000114885   -0.000100270    0.000068561
      2        1          -0.000046761   -0.000182615   -0.000143485
      3        1          -0.000016545   -0.000084436   -0.000058612
      4        1           0.000010764   -0.000083112   -0.000054974
      5        6          -0.000044797   -0.000446916   -0.000282110
      6        1          -0.000005184   -0.000173974    0.000086613
      7        1           0.000166586   -0.000130248   -0.000004348
      8        6           0.000041482    0.000416645    0.000296674
      9        1          -0.000171155    0.000132257    0.000010660
     10        1           0.000003921    0.000192029   -0.000097620
     11        6          -0.000092993    0.000114481   -0.000085983
     12        1          -0.000004122    0.000081407    0.000060909
     13        1           0.000031107    0.000177206    0.000153066
     14        1           0.000012811    0.000087545    0.000050650
 -------------------------------------------------------------------
 Cartesian Forces:  Max     0.000446916 RMS     0.000148897
 Leave Link  716 at Fri Mar 29 17:13:33 2024, MaxMem=   134217728 cpu:               0.1 elap:               0.0
 (Enter /home/emanuele/chem_software/gaussian//gdv/l103.exe)

 GradGradGradGradGradGradGradGradGradGradGradGradGradGradGradGradGradGrad
 Berny optimization.
 Using GEDIIS/GDIIS optimizer.
 FormGI is forming the generalized inverse of G from B-inverse, IUseBI=4.
 Internal  Forces:  Max     0.001204190 RMS     0.000207385
 Search for a local minimum.
 Step number   3 out of a maximum of  100 on scan point     1 out of    11
[...]
           A9         111.73213 112.03230 112.43770 111.89403 111.83405
           A10        105.82035 106.16118 105.10046 105.37511 106.22944
           A11        109.76988 109.06969 109.89371 110.07533 109.18967
           A12        109.76954 109.63535 109.53191 109.72258 109.69915
           A13        109.76973 109.69455 109.78464 109.76529 109.71631
           A14        109.76856 109.81566 109.70881 109.69629 109.81671
           A15        111.73220 111.75672 111.77044 111.76189 111.75898
           A16        105.82252 105.87404 105.91025 105.84817 105.81822
           A17        109.78815 109.80758 109.72462 109.77781 109.82023
           A18        109.78869 109.72236 109.77305 109.81982 109.73758
           A19        111.58991 111.62521 111.60702 111.60969 111.62450
           A20        111.16501 111.17418 111.17394 111.19361 111.18116
           A21        111.59004 111.59968 111.61965 111.63050 111.59953
           A22        107.44642 107.41023 107.41461 107.40331 107.41228
           A23        107.37840 107.37986 107.38598 107.37454 107.37573
           A24        107.44639 107.42307 107.41085 107.39809 107.41861
           D1          57.89772  93.89782 129.89801 165.89818-158.10215
           D2         -58.03873 -22.55971  14.80763  50.50462  85.37959
           D3         179.92972-144.82982-107.32343 -71.48495 -36.81258
           D4         -62.03225 -27.02350  10.49145  46.44969  81.16233
           D5        -177.96869-143.48102-104.59893 -68.94387 -35.35593
           D6          59.99975  94.24887 133.27001 169.06656-157.54810
           D7         177.83204-147.18933-109.40509 -73.34764 -38.80415
           D8          61.89559  96.35314 135.50453 171.25880-155.32241
           D9         -60.13596 -25.91697  13.37347  49.26923  82.48542
           D10        -57.96163 -56.12095 -59.11756 -59.27146 -55.97009
           D11         57.95470  59.84145  56.87898  56.63184  59.93800
           D12        179.99647-178.15176 178.88510 178.68287-178.03361
           D13         64.08130  65.50503  63.68495  63.25168  65.60256
           D14        179.99764-178.53257 179.68149 179.15498-178.48935
           D15        -57.96060 -56.52578 -58.31240 -58.79399 -56.46095
           D16        179.99567-178.64480 178.66689 178.77614-178.36169
           D17        -64.08799 -62.68241 -65.33657 -65.32057 -62.45361
           D18         57.95377  59.32439  56.66955  56.73046  59.57479
           D19         60.06812  60.28124  59.86051  59.81551  60.37793
           D20       -179.99985-179.80264 179.76976 179.72559-179.69907
           D21        -60.06779 -59.88745 -60.31723 -60.35691 -59.78489
           D22        -61.96319 -61.68461 -62.17132 -62.22297 -61.62589
           D23         57.96884  58.23151  57.73794  57.68710  58.29710
           D24        177.90090 178.14670 177.65094 177.60460 178.21129
           D25       -177.90168-177.65837-178.17029-178.20443-177.54823
           D26        -57.96966 -57.74224 -58.26104 -58.29435 -57.62524
           D27         61.96241  62.17295  61.65197  61.62315  62.28895
                           6         7         8         9        10
     Eigenvalues --    -0.03957  -0.04081  -0.04126  -0.03975  -0.04024
           R1           1.09574   1.09594   1.09577   1.09507   1.09572
           R2           1.09522   1.09623   1.09560   1.09517   1.09667
           R3           1.09502   1.09478   1.09592   1.09574   1.09458
           R4           1.53022   1.52799   1.52727   1.53000   1.52858
           R5           1.10709   1.10705   1.10763   1.10726   1.10723
           R6           1.10698   1.10818   1.10682   1.10666   1.10787
           R7           1.53592   1.53486   1.53622   1.53632   1.53494
           R8           1.10750   1.10749   1.10738   1.10755   1.10724
           R9           1.10754   1.10752   1.10736   1.10741   1.10741
           R10          1.52709   1.52713   1.52705   1.52711   1.52729
           R11          1.09587   1.09587   1.09586   1.09587   1.09587
           R12          1.09566   1.09561   1.09562   1.09562   1.09554
           R13          1.09589   1.09584   1.09588   1.09586   1.09588
           A1         106.84096 106.64603 107.70789 107.40351 106.25873
           A2         106.88943 107.74476 107.13374 106.98757 108.11120
           A3         112.44857 111.94845 111.53652 111.51384 111.34427
           A4         107.41255 107.48067 107.28746 106.91061 107.10247
           A5         111.46691 111.33663 111.84090 112.46169 111.99284
           A6         111.47990 111.43055 111.09602 111.26571 111.74821
           A7         109.82799 109.95100 109.71994 109.74810 109.96909
           A8         109.83263 109.56157 109.94042 109.99207 109.58073
           A9         112.44202 112.11836 111.71682 112.25882 112.31892
           A10        105.46013 105.06923 106.07511 105.85625 104.96153
           A11        109.50675 110.20408 109.44695 109.19908 110.13952
           A12        109.53370 109.69720 109.78242 109.58184 109.61047
           A13        109.73824 109.81234 109.73217 109.71180 109.80857
           A14        109.75414 109.71461 109.79867 109.79700 109.68292
           A15        111.75874 111.77960 111.76404 111.75945 111.75982
           A16        105.94164 105.81392 105.77996 105.90960 105.88510
           A17        109.74197 109.73367 109.82030 109.77279 109.73262
           A18        109.73929 109.81241 109.77067 109.72180 109.80221
           A19        111.62164 111.59330 111.61870 111.62179 111.60139
           A20        111.17680 111.17806 111.18072 111.17825 111.16469
           A21        111.61864 111.61870 111.60262 111.60558 111.62289
           A22        107.40709 107.42519 107.41360 107.40064 107.44659
           A23        107.38120 107.38456 107.37445 107.39427 107.35245
           A24        107.40550 107.41306 107.42196 107.41114 107.42508
           D1        -122.10207 -86.10192 -50.10197 -14.10182  21.89833
           D2         122.34908 158.90481-166.39415-130.17520 -92.98640
           D3           0.10458  36.86383  71.46270 107.53065 144.93417
           D4         117.94356 154.62444-170.79609-134.82302 -96.91841
           D5           2.39471  39.63116  72.91174 109.10360 148.19686
           D6        -119.84979 -82.40981 -49.23142 -13.19055  26.11743
           D7          -2.07629  34.64011  69.35150 105.26548 142.91050
           D8        -117.62515 -80.35316 -46.94068 -10.80790  28.02577
           D9         120.13035 157.60586-169.08383-133.10205 -94.05366
           D10        -57.98690 -59.95689 -56.69352 -56.82898 -59.90358
           D11         58.04696  55.94253  59.16714  59.17559  56.06143
           D12       -179.96615 178.00881-178.77157-178.82946 178.07943
           D13         64.40138  62.86584  65.02875  65.11674  63.03641
           D14       -179.56476 178.76526-179.11059-178.87870 179.00142
           D15        -57.57787 -59.16846 -57.04930 -56.88375 -58.98058
           D16        179.59964 178.07954-178.92735-179.35559 178.03389
           D17        -64.36650 -66.02104 -63.06669 -63.35103 -66.00111
           D18         57.62039  56.04525  58.99461  58.64392  56.01690
           D19         60.07941  59.81125  60.23661  60.25843  59.79827
           D20        179.99093 179.72748-179.84294-179.83717 179.73805
           D21        -60.10160 -60.35456 -59.92272 -59.93037 -60.33499
           D22        -61.89769 -62.26821 -61.79083 -61.70700 -62.26234
           D23         58.01382  57.64802  58.12962  58.19740  57.67743
           D24        177.92130 177.56598 178.04984 178.10420 177.60440
           D25       -177.92516-178.17862-177.68603-177.70342-178.25228
           D26        -58.01365 -58.26239 -57.76557 -57.79901 -58.31251
           D27         61.89383  61.65557  62.15465  62.10779  61.61445
                          11
     Eigenvalues --    -0.04142
           R1           1.09569
           R2           1.09581
           R3           1.09575
           R4           1.52702
           R5           1.10736
           R6           1.10746
           R7           1.53568
           R8           1.10736
           R9           1.10745
           R10          1.52704
           R11          1.09587
           R12          1.09565
           R13          1.09583
           A1         107.40130
           A2         107.43236
           A3         111.16982
           A4         107.39246
           A5         111.60110
           A6         111.61599
           A7         109.78148
           A8         109.79072
           A9         111.76748
           A10        105.77254
           A11        109.77695
           A12        109.77606
           A13        109.78713
           A14        109.76508
           A15        111.76764
           A16        105.76874
           A17        109.78323
           A18        109.79321
           A19        111.60445
           A20        111.18328
           A21        111.61407
           A22        107.41177
           A23        107.38497
           A24        107.41347
           D1          57.89809
           D2         -57.97735
           D3         179.95771
           D4         -61.98747
           D5        -177.86291
           D6          60.07215
           D7         177.83312
           D8          61.95768
           D9         -60.10725
           D10        -57.91157
           D11         57.94781
           D12       -179.98321
           D13         64.15066
           D14       -179.98996
           D15        -57.92099
           D16       -179.98491
           D17        -64.12554
           D18         57.94344
           D19         60.09673
           D20       -179.99301
           D21        -60.07410
           D22        -61.97715
           D23         57.93310
           D24        177.85202
           D25       -177.85044
           D26        -57.94018
           D27         61.97873
 Largest change from initial coordinates is atom    9       1.045 Angstoms.
 GradGradGradGradGradGradGradGradGradGradGradGradGradGradGradGradGradGrad

 Leave Link  103 at Fri Mar 29 17:14:17 2024, MaxMem=   134217728 cpu:               0.1 elap:               0.0
 (Enter /home/emanuele/chem_software/gaussian//gdv/l202.exe)
                          Input orientation:                          
 ---------------------------------------------------------------------
 Center     Atomic      Atomic             Coordinates (Angstroms)
 Number     Number       Type             X           Y           Z
 ---------------------------------------------------------------------
      1          6           0       -2.388423    0.503286   -0.166176
      2          1           0       -1.655667    0.065608   -0.853225
      3          1           0       -3.170551    0.970332   -0.775230
      4          1           0       -2.852538   -0.320709    0.387257
      5          6           0       -1.730194    1.511425    0.773066
      6          1           0       -1.238367    2.308439    0.182206
      7          1           0       -0.920619    1.017758    1.345213
      8          6           0       -2.745781    2.134459    1.741943
      9          1           0       -3.555517    2.627903    1.170033
     10          1           0       -3.237394    1.337235    2.332868
     11          6           0       -2.087620    3.142917    2.680926
     12          1           0       -1.623577    3.966797    2.127019
     13          1           0       -2.820280    3.581179    3.367646
     14          1           0       -1.305299    2.676337    3.290124
 ---------------------------------------------------------------------
                    Distance matrix (angstroms):
                    1          2          3          4          5
     1  C    0.000000
     2  H    1.095688   0.000000
     3  H    1.095812   1.766206   0.000000
     4  H    1.095745   1.766504   1.766152   0.000000
     5  C    1.527018   2.177330   2.182803   2.182938   0.000000
     6  H    2.168543   2.505305   2.537824   3.091928   1.107358
     7  H    2.168739   2.505997   3.092042   2.538009   1.107462
     8  C    2.535615   3.493335   2.805669   2.806140   1.535679
     9  H    2.767952   3.777348   2.584528   3.130692   2.176215
    10  H    2.767931   3.777577   3.130393   2.585014   2.176001
    11  C    3.894114   4.706022   4.223491   4.224065   2.535636
    12  H    4.223700   4.909396   4.449155   4.787465   2.805960
    13  H    4.706147   5.615275   4.909443   4.910039   3.493424
    14  H    4.223898   4.909787   4.787141   4.450042   2.805911
                    6          7          8          9         10
     6  H    0.000000
     7  H    1.766184   0.000000
     8  C    2.176085   2.176151   0.000000
     9  H    2.539103   3.092886   1.107357   0.000000
    10  H    3.092684   2.538696   1.107449   1.766130   0.000000
    11  C    2.767885   2.768090   1.527040   2.168585   2.168781
    12  H    2.584731   3.130846   2.182908   2.537883   3.092147
    13  H    3.777478   3.777575   2.177489   2.505756   2.505999
    14  H    3.130332   2.584867   2.182999   3.092024   2.538213
                   11         12         13         14
    11  C    0.000000
    12  H    1.095868   0.000000
    13  H    1.095649   1.766339   0.000000
    14  H    1.095831   1.766182   1.766328   0.000000
 Symmetry turned off by external request.
 Stoichiometry    C4H10
 Framework group  C1[X(C4H10)]
 Deg. of freedom    36
 Full point group                 C1      NOp   1
 Rotational constants (GHZ):          22.9471550           3.6614962           3.4269042
 Leave Link  202 at Fri Mar 29 17:14:17 2024, MaxMem=   134217728 cpu:               0.1 elap:               0.0
 (Enter /home/emanuele/chem_software/gaussian//gdv/l601.exe)
 Copying SCF densities to generalized density rwf, IOpCl= 0 IROHF=0.

 **********************************************************************

            Population analysis using the SCF Density.

 **********************************************************************

 Alpha  occ. eigenvalues --       -1.04025      -0.94335      -0.80334      -0.73960      -0.58827
 Alpha  occ. eigenvalues --       -0.53783      -0.52729      -0.51554      -0.47146      -0.44539
 Alpha  occ. eigenvalues --       -0.43918      -0.42043      -0.40895
 Alpha virt. eigenvalues --        0.15506       0.16811       0.18076       0.20454       0.21571
 Alpha virt. eigenvalues --        0.21891       0.22264       0.22703       0.23509       0.24291
 Alpha virt. eigenvalues --        0.24784       0.25517       0.25690
          Condensed to atoms (all electrons):
               1          2          3          4          5          6
     1  C    4.465173   0.000000   0.000000   0.000000   0.000000   0.000000
     2  H    0.000000   0.855977   0.000000   0.000000   0.000000   0.000000
     3  H    0.000000   0.000000   0.853777   0.000000   0.000000   0.000000
     4  H    0.000000   0.000000   0.000000   0.853765   0.000000   0.000000
     5  C    0.000000   0.000000   0.000000   0.000000   4.224282   0.000000
     6  H    0.000000   0.000000   0.000000   0.000000   0.000000   0.873522
     7  H    0.000000   0.000000   0.000000   0.000000   0.000000   0.000000
     8  C    0.000000   0.000000   0.000000   0.000000   0.000000   0.000000
     9  H    0.000000   0.000000   0.000000   0.000000   0.000000   0.000000
    10  H    0.000000   0.000000   0.000000   0.000000   0.000000   0.000000
    11  C    0.000000   0.000000   0.000000   0.000000   0.000000   0.000000
    12  H    0.000000   0.000000   0.000000   0.000000   0.000000   0.000000
    13  H    0.000000   0.000000   0.000000   0.000000   0.000000   0.000000
    14  H    0.000000   0.000000   0.000000   0.000000   0.000000   0.000000
               7          8          9         10         11         12
     1  C    0.000000   0.000000   0.000000   0.000000   0.000000   0.000000
     2  H    0.000000   0.000000   0.000000   0.000000   0.000000   0.000000
     3  H    0.000000   0.000000   0.000000   0.000000   0.000000   0.000000
     4  H    0.000000   0.000000   0.000000   0.000000   0.000000   0.000000
     5  C    0.000000   0.000000   0.000000   0.000000   0.000000   0.000000
     6  H    0.000000   0.000000   0.000000   0.000000   0.000000   0.000000
     7  H    0.873505   0.000000   0.000000   0.000000   0.000000   0.000000
     8  C    0.000000   4.224268   0.000000   0.000000   0.000000   0.000000
     9  H    0.000000   0.000000   0.873518   0.000000   0.000000   0.000000
    10  H    0.000000   0.000000   0.000000   0.873513   0.000000   0.000000
    11  C    0.000000   0.000000   0.000000   0.000000   4.465171   0.000000
    12  H    0.000000   0.000000   0.000000   0.000000   0.000000   0.853773
    13  H    0.000000   0.000000   0.000000   0.000000   0.000000   0.000000
    14  H    0.000000   0.000000   0.000000   0.000000   0.000000   0.000000
              13         14
     1  C    0.000000   0.000000
     2  H    0.000000   0.000000
     3  H    0.000000   0.000000
     4  H    0.000000   0.000000
     5  C    0.000000   0.000000
     6  H    0.000000   0.000000
     7  H    0.000000   0.000000
     8  C    0.000000   0.000000
     9  H    0.000000   0.000000
    10  H    0.000000   0.000000
    11  C    0.000000   0.000000
    12  H    0.000000   0.000000
    13  H    0.855982   0.000000
    14  H    0.000000   0.853774
 Mulliken charges:
               1
     1  C   -0.465173
     2  H    0.144023
     3  H    0.146223
     4  H    0.146235
     5  C   -0.224282
     6  H    0.126478
     7  H    0.126495
     8  C   -0.224268
     9  H    0.126482
    10  H    0.126487
    11  C   -0.465171
    12  H    0.146227
    13  H    0.144018
    14  H    0.146226
 Sum of Mulliken charges =   0.00000
 Mulliken charges with hydrogens summed into heavy atoms:
               1
     1  C   -0.028691
     5  C    0.028690
     8  C    0.028701
    11  C   -0.028700
 Charge=              0.0000 electrons
 Dipole moment (field-independent basis, Debye):
    X=              0.0002    Y=              0.0004    Z=             -0.0003  Tot=              0.0006
 N-N= 9.111101739598D+01 E-N=-1.302655698828D+02  KE=-3.627753650551D+01
 Leave Link  601 at Fri Mar 29 17:14:17 2024, MaxMem=   134217728 cpu:               0.1 elap:               0.0
 (Enter /home/emanuele/chem_software/gaussian//gdv/l9999.exe)
 Unable to Open any file for archive entry.
 1\1\GINC-EMANUELE-XPS-13-9343\Scan\RPM6\ZDO\C4H10\EMANUELE\29-Mar-2024
 \0\\#p nosymm geom=nocrowd opt=(modredundant,maxcycle=100) PM6\\Title\
 \0,1\C,-2.3884231565,0.5032861806,-0.1661756031\H,-1.6556670097,0.0656
 075911,-0.853225333\H,-3.1705511233,0.9703322799,-0.7752299227\H,-2.85
 25382026,-0.3207087614,0.387256601\C,-1.7301939113,1.5114246522,0.7730
 659456\H,-1.238366512,2.3084393617,0.1822063105\H,-0.9206187504,1.0177
 581955,1.3452133511\C,-2.7457808921,2.1344592895,1.741942618\H,-3.5555
 17073,2.6279031484,1.1700326277\H,-3.2373941084,1.3372349286,2.3328684
 272\C,-2.0876204838,3.142916955,2.6809262377\H,-1.623577005,3.96679676
 52,2.127019227\H,-2.8202803722,3.5811786138,3.3676457758\H,-1.30529928
 21,2.6763372119,3.2901237371\\Version=ES64L-GDVRevJ.14\HF=-0.041424,-0
 .0402368,-0.0397595,-0.0412582,-0.0408053,-0.0395664,-0.0408072,-0.041
 2602,-0.0397534,-0.0402428,-0.0414243\RMSD=2.446e-09,8.762e-09,7.228e-
 09,4.459e-09,8.217e-09,6.110e-09,3.935e-09,2.542e-09,9.567e-09,5.736e-
 09,5.079e-09\PG=C01 [X(C4H10)]\\@
 The archive entry for this job was punched.


 TIME IS NATURE'S WAY OF MAKING SURE EVERYTHING
 DOESN'T HAPPEN AT ONCE.
                     - WOODY ALLEN
 Job cpu time:       0 days  0 hours  2 minutes 42.6 seconds.
 Elapsed time:       0 days  0 hours  0 minutes 41.6 seconds.
 File lengths (MBytes):  RWF=      6 Int=      0 D2E=      0 Chk=      3 Scr=      1
 Normal termination of Gaussian DV at Fri Mar 29 17:14:17 2024.
