 Entering Gaussian System, Link 0=/home/emanuele/chem_software/gaussian//g09/g09
 Input=3_qm.gjf
 Output=3_qm.log
 Initial command:
 /home/emanuele/chem_software/gaussian//gdv/l1.exe "/home/emanuele/chem_software/gaussian/scratch/Gau-17054.inp" -scrdir="/home/emanuele/chem_software/gaussian/scratch/"
 Entering Link 1 = /home/emanuele/chem_software/gaussian//gdv/l1.exe PID=     17056.
  
 Copyright (c) 1988-2020, Gaussian, Inc.  All Rights Reserved.
  
 This is the private, development version of
 the Gaussian(R) DV system of programs. It is based on
 the Gaussian(R) 16 system (copyright 2016, Gaussian, Inc.),
 the Gaussian(R) 09 system (copyright 2009, Gaussian, Inc.),
 the Gaussian(R) 03 system (copyright 2003, Gaussian, Inc.),
 the Gaussian(R) 98 system (copyright 1998, Gaussian, Inc.),
 the Gaussian(R) 94 system (copyright 1995, Gaussian, Inc.),
 the Gaussian 92(TM) system (copyright 1992, Gaussian, Inc.),
 the Gaussian 90(TM) system (copyright 1990, Gaussian, Inc.),
 the Gaussian 88(TM) system (copyright 1988, Gaussian, Inc.),
 the Gaussian 86(TM) system (copyright 1986, Carnegie Mellon
 University), and the Gaussian 82(TM) system (copyright 1983,
 Carnegie Mellon University). Gaussian is a federally registered
 trademark of Gaussian, Inc.
  
 This software contains proprietary and confidential information,
 including trade secrets, belonging to Gaussian, Inc.
  
 This software is provided under written license and may be
 used, copied, transmitted, or stored only in accord with that
 written license.
  
 The following legend is applicable only to US Government
 contracts under FAR:
  
                    RESTRICTED RIGHTS LEGEND
  
 Use, reproduction and disclosure by the US Government is
 subject to restrictions as set forth in subparagraphs (a)
 and (c) of the Commercial Computer Software - Restricted
 Rights clause in FAR 52.227-19.
  
 Gaussian, Inc.
 340 Quinnipiac St., Bldg. 40, Wallingford CT 06492
  
  
 ---------------------------------------------------------------
 Warning -- This program may not be used in any manner that
 competes with the business of Gaussian, Inc. or will provide
 assistance to any competitor of Gaussian, Inc.  The licensee
 of this program is prohibited from giving any competitor of
 Gaussian, Inc. access to this program.  By using this program,
 the user acknowledges that Gaussian, Inc. is engaged in the
 business of creating and licensing software in the field of
 computational chemistry and represents and warrants to the
 licensee that it is not a competitor of Gaussian, Inc. and that
 it will not use this program in any manner prohibited above.
 ---------------------------------------------------------------
  

 Cite this work as:
 Gaussian Development Version, Revision J.14,
 M. J. Frisch, G. W. Trucks, H. B. Schlegel, G. E. Scuseria, 
 M. A. Robb, J. R. Cheeseman, G. Scalmani, V. Barone, 
 G. A. Petersson, H. Nakatsuji, X. Li, A. V. Marenich, M. Caricato, 
 J. Bloino, B. G. Janesko, J. Zheng, R. Gomperts, B. Mennucci, 
 H. P. Hratchian, J. V. Ortiz, A. F. Izmaylov, J. L. Sonnenberg, 
 D. Williams-Young, F. Ding, F. Lipparini, F. Egidi, J. Goings, 
 B. Peng, A. Petrone, T. Henderson, D. Ranasinghe, V. G. Zakrzewski, 
 J. Gao, N. Rega, G. Zheng, W. Liang, M. Hada, M. Ehara, K. Toyota, 
 R. Fukuda, J. Hasegawa, M. Ishida, T. Nakajima, Y. Honda, O. Kitao, 
 H. Nakai, T. Vreven, K. Throssell, J. A. Montgomery, Jr., 
 J. E. Peralta, F. Ogliaro, M. J. Bearpark, J. J. Heyd, 
 E. N. Brothers, K. N. Kudin, V. N. Staroverov, T. A. Keith, 
 R. Kobayashi, J. Normand, K. Raghavachari, A. P. Rendell, 
 J. C. Burant, S. S. Iyengar, J. Tomasi, M. Cossi, J. M. Millam, 
 M. Klene, C. Adamo, R. Cammi, J. W. Ochterski, R. L. Martin, 
 K. Morokuma, O. Farkas, J. B. Foresman, and D. J. Fox, 
 Gaussian, Inc., Wallingford CT, 2020.
 
 ******************************************
 Gaussian DV:  ES64L-GDVRevJ.14 29-Dec-2020
                29-Mar-2024 
 ******************************************
 %mem=1GB
 %nprocshared=4
 Will use up to    4 processors via shared memory.
 %chk=3_qm.chk
 ----------------------------------------------------------
 #p nosymm geom=nocrowd opt=(modredundant,maxcycle=100) PM6
 ----------------------------------------------------------
 1/6=100,18=120,19=15,26=1,37=210000000,38=1/1,3;
 2/9=110,12=1,15=1,40=1/2;
 3/5=2,25=1,41=3900000,71=1/1,2,3;
 4/35=1/1;
 5/5=2,35=1,38=5/2;
 6/7=2,8=2,9=2,10=2,28=1/1;
 7/30=1/1,2,3,16;
 1/6=100,18=20,19=15,26=1/3(2);
 2/9=110,12=1,15=1/2;
 99//99;
 2/9=110,12=1,15=1/2;
 3/5=2,25=1,41=3900000,71=1,135=20/1,2,3;
 4/5=5,16=3,35=1/1;
 5/5=2,35=1,38=5/2;
 7/30=1/1,2,3,16;
 1/6=100,18=20,19=15,26=1/3(-5);
 2/9=110,12=1,15=1/2;
 6/7=2,8=2,9=2,10=2,19=2,28=1/1;
 99/9=1/99;
 Leave Link    1 at Fri Mar 29 17:14:22 2024, MaxMem=   134217728 cpu:               0.2 elap:               0.1
 (Enter /home/emanuele/chem_software/gaussian//gdv/l101.exe)
 -----
 Title
 -----
 Symbolic Z-matrix:
 Charge =  0 Multiplicity = 1
 C                    -2.49341   0.34945  -0.01033 
 H                    -2.13722  -0.68175  -0.02338 
 H                    -2.14608   0.83135  -0.92689 
 H                    -3.58472   0.32329  -0.04646 
 C                    -2.00024   1.09707   1.22695 
 H                    -0.90618   1.0768    1.25425 
 H                    -2.33381   0.57262   2.12795 
 C                    -2.47574   2.54907   1.28787 
 H                    -2.14216   3.07352   0.38686 
 H                    -3.5698    2.56934   1.26056 
 C                    -1.98256   3.29668   2.52514 
 H                    -0.89126   3.32285   2.56127 
 H                    -2.33875   4.32789   2.53819 
 H                    -2.3299    2.81479   3.4417 
 
 The following ModRedundant input section has been read:
 D       2       1       5       8 S  10 36.000                                
 
 ITRead=  0  0  0  0  0  0  0  0  0  0  0  0  0  0
 MicOpt= -1 -1 -1 -1 -1 -1 -1 -1 -1 -1 -1 -1 -1 -1
 DXMax1 from symmetrization= 1.89D-06
 NAtoms=     14 NQM=       14 NQMF=       0 NMMI=      0 NMMIF=      0
                NMic=       0 NMicF=      0.
                    Isotopes and Nuclear Properties:
 (Nuclear quadrupole moments (NQMom) in fm**2, nuclear magnetic moments (NMagM)
  in nuclear magnetons)

  Atom         1           2           3           4           5           6           7           8           9          10
 IAtWgt=          12           1           1           1          12           1           1          12           1           1
 AtmWgt=  12.0000000   1.0078250   1.0078250   1.0078250  12.0000000   1.0078250   1.0078250  12.0000000   1.0078250   1.0078250
 NucSpn=           0           1           1           1           0           1           1           0           1           1
 AtZEff=  -0.0000000  -0.0000000  -0.0000000  -0.0000000  -0.0000000  -0.0000000  -0.0000000  -0.0000000  -0.0000000  -0.0000000
 NQMom=    0.0000000   0.0000000   0.0000000   0.0000000   0.0000000   0.0000000   0.0000000   0.0000000   0.0000000   0.0000000
 NMagM=    0.0000000   2.7928460   2.7928460   2.7928460   0.0000000   2.7928460   2.7928460   0.0000000   2.7928460   2.7928460
 AtZNuc=   6.0000000   1.0000000   1.0000000   1.0000000   6.0000000   1.0000000   1.0000000   6.0000000   1.0000000   1.0000000

  Atom        11          12          13          14
 IAtWgt=          12           1           1           1
 AtmWgt=  12.0000000   1.0078250   1.0078250   1.0078250
 NucSpn=           0           1           1           1
 AtZEff=  -0.0000000  -0.0000000  -0.0000000  -0.0000000
 NQMom=    0.0000000   0.0000000   0.0000000   0.0000000
 NMagM=    0.0000000   2.7928460   2.7928460   2.7928460
 AtZNuc=   6.0000000   1.0000000   1.0000000   1.0000000
 Leave Link  101 at Fri Mar 29 17:14:22 2024, MaxMem=   134217728 cpu:               0.8 elap:               0.3
 (Enter /home/emanuele/chem_software/gaussian//gdv/l103.exe)

 GradGradGradGradGradGradGradGradGradGradGradGradGradGradGradGradGradGrad
 Berny optimization.
 Initialization pass.
                           ----------------------------
                           !    Initial Parameters    !
                           ! (Angstroms and Degrees)  !
 --------------------------                            --------------------------
 ! Name  Definition              Value          Derivative Info.                !
 --------------------------------------------------------------------------------
 ! R1    R(1,2)                  1.0911         estimate D2E/DX2                !
 ! R2    R(1,3)                  1.0922         estimate D2E/DX2                !
 ! R3    R(1,4)                  1.0922         estimate D2E/DX2                !
 ! R4    R(1,5)                  1.5274         estimate D2E/DX2                !
 ! R5    R(5,6)                  1.0946         estimate D2E/DX2                !
 ! R6    R(5,7)                  1.0946         estimate D2E/DX2                !
 ! R7    R(5,8)                  1.5291         estimate D2E/DX2                !
 ! R8    R(8,9)                  1.0946         estimate D2E/DX2                !
 ! R9    R(8,10)                 1.0946         estimate D2E/DX2                !
 ! R10   R(8,11)                 1.5274         estimate D2E/DX2                !
 ! R11   R(11,12)                1.0922         estimate D2E/DX2                !
 ! R12   R(11,13)                1.0911         estimate D2E/DX2                !
 ! R13   R(11,14)                1.0922         estimate D2E/DX2                !
 ! A1    A(2,1,3)              107.6467         estimate D2E/DX2                !
 ! A2    A(2,1,4)              107.6468         estimate D2E/DX2                !
 ! A3    A(2,1,5)              111.5239         estimate D2E/DX2                !
 ! A4    A(3,1,4)              107.4912         estimate D2E/DX2                !
 ! A5    A(3,1,5)              111.1696         estimate D2E/DX2                !
 ! A6    A(4,1,5)              111.1697         estimate D2E/DX2                !
 ! A7    A(1,5,6)              109.5036         estimate D2E/DX2                !
 ! A8    A(1,5,7)              109.5036         estimate D2E/DX2                !
 ! A9    A(1,5,8)              113.3693         estimate D2E/DX2                !
 ! A10   A(6,5,7)              105.9736         estimate D2E/DX2                !
 ! A11   A(6,5,8)              109.1119         estimate D2E/DX2                !
 ! A12   A(7,5,8)              109.1118         estimate D2E/DX2                !
 ! A13   A(5,8,9)              109.1118         estimate D2E/DX2                !
 ! A14   A(5,8,10)             109.1119         estimate D2E/DX2                !
 ! A15   A(5,8,11)             113.3693         estimate D2E/DX2                !
 ! A16   A(9,8,10)             105.9736         estimate D2E/DX2                !
 ! A17   A(9,8,11)             109.5036         estimate D2E/DX2                !
 ! A18   A(10,8,11)            109.5036         estimate D2E/DX2                !
 ! A19   A(8,11,12)            111.1697         estimate D2E/DX2                !
 ! A20   A(8,11,13)            111.5239         estimate D2E/DX2                !
 ! A21   A(8,11,14)            111.1696         estimate D2E/DX2                !
 ! A22   A(12,11,13)           107.6468         estimate D2E/DX2                !
 ! A23   A(12,11,14)           107.4912         estimate D2E/DX2                !
 ! A24   A(13,11,14)           107.6467         estimate D2E/DX2                !
 ! D1    D(2,1,5,6)             57.8979         estimate D2E/DX2                !
 ! D2    D(2,1,5,7)            -57.898          estimate D2E/DX2                !
 ! D3    D(2,1,5,8)            180.0            Scan                            !
 ! D4    D(3,1,5,6)            -62.2471         estimate D2E/DX2                !
 ! D5    D(3,1,5,7)           -178.043          estimate D2E/DX2                !
 ! D6    D(3,1,5,8)             59.855          estimate D2E/DX2                !
 ! D7    D(4,1,5,6)            178.043          estimate D2E/DX2                !
 ! D8    D(4,1,5,7)             62.247          estimate D2E/DX2                !
 ! D9    D(4,1,5,8)            -59.8549         estimate D2E/DX2                !
 ! D10   D(1,5,8,9)            -57.6801         estimate D2E/DX2                !
 ! D11   D(1,5,8,10)            57.6801         estimate D2E/DX2                !
 ! D12   D(1,5,8,11)           180.0            estimate D2E/DX2                !
 ! D13   D(6,5,8,9)             64.6398         estimate D2E/DX2                !
 ! D14   D(6,5,8,10)           180.0            estimate D2E/DX2                !
 ! D15   D(6,5,8,11)           -57.6801         estimate D2E/DX2                !
 ! D16   D(7,5,8,9)            180.0            estimate D2E/DX2                !
 ! D17   D(7,5,8,10)           -64.6398         estimate D2E/DX2                !
 ! D18   D(7,5,8,11)            57.6801         estimate D2E/DX2                !
 ! D19   D(5,8,11,12)           59.8549         estimate D2E/DX2                !
 ! D20   D(5,8,11,13)         -180.0            estimate D2E/DX2                !
 ! D21   D(5,8,11,14)          -59.855          estimate D2E/DX2                !
 ! D22   D(9,8,11,12)          -62.247          estimate D2E/DX2                !
 ! D23   D(9,8,11,13)           57.898          estimate D2E/DX2                !
 ! D24   D(9,8,11,14)          178.043          estimate D2E/DX2                !
 ! D25   D(10,8,11,12)        -178.043          estimate D2E/DX2                !
 ! D26   D(10,8,11,13)         -57.8979         estimate D2E/DX2                !
 ! D27   D(10,8,11,14)          62.2471         estimate D2E/DX2                !
 --------------------------------------------------------------------------------
 Trust Radius=3.00D-01 FncErr=1.00D-07 GrdErr=1.00D-07 EigMax=2.50D+02 EigMin=1.00D-04
 Number of optimizations in scan=  11
 Number of steps in this run=    100 maximum allowed number of steps=    100.
 GradGradGradGradGradGradGradGradGradGradGradGradGradGradGradGradGradGrad

 Leave Link  103 at Fri Mar 29 17:14:23 2024, MaxMem=   134217728 cpu:               0.1 elap:               0.0
 (Enter /home/emanuele/chem_software/gaussian//gdv/l202.exe)
                          Input orientation:                          
 ---------------------------------------------------------------------
 Center     Atomic      Atomic             Coordinates (Angstroms)
 Number     Number       Type             X           Y           Z
 ---------------------------------------------------------------------
      1          6           0       -2.493413    0.349454   -0.010333
      2          1           0       -2.137221   -0.681753   -0.023381
      3          1           0       -2.146079    0.831347   -0.926886
      4          1           0       -3.584715    0.323285   -0.046458
      5          6           0       -2.000239    1.097073    1.226945
      6          1           0       -0.906178    1.076799    1.254250
      7          1           0       -2.333815    0.572622    2.127947
      8          6           0       -2.475736    2.549065    1.287865
      9          1           0       -2.142160    3.073516    0.386863
     10          1           0       -3.569797    2.569339    1.260560
     11          6           0       -1.982562    3.296684    2.525143
     12          1           0       -0.891260    3.322853    2.561268
     13          1           0       -2.338754    4.327891    2.538191
     14          1           0       -2.329896    2.814791    3.441696
 ---------------------------------------------------------------------
                    Distance matrix (angstroms):
                    1          2          3          4          5
     1  C    0.000000
     2  H    1.091069   0.000000
     3  H    1.092214   1.762348   0.000000
     4  H    1.092213   1.762349   1.761520   0.000000
     5  C    1.527420   2.178601   2.175056   2.175056   0.000000
     6  H    2.155810   2.498062   2.520904   3.071512   1.094589
     7  H    2.155810   2.498063   3.071512   2.520904   1.094590
     8  C    2.554196   3.503162   2.822118   2.822118   1.529081
     9  H    2.775186   3.777614   2.598706   3.135682   2.152256
    10  H    2.775187   3.777616   3.135683   2.598707   2.152257
    11  C    3.921195   4.727246   4.245130   4.245130   2.554196
    12  H    4.245130   4.926429   4.466474   4.801285   2.822118
    13  H    4.727246   5.630169   4.926429   4.926429   3.503162
    14  H    4.245130   4.926429   4.801286   4.466474   2.822118
                    6          7          8          9         10
     6  H    0.000000
     7  H    1.748053   0.000000
     8  C    2.152257   2.152256   0.000000
     9  H    2.503376   3.053289   1.094590   0.000000
    10  H    3.053291   2.503376   1.094589   1.748053   0.000000
    11  C    2.775187   2.775186   1.527420   2.155810   2.155810
    12  H    2.598707   3.135682   2.175056   2.520904   3.071512
    13  H    3.777616   3.777614   2.178601   2.498063   2.498062
    14  H    3.135683   2.598706   2.175056   3.071512   2.520904
                   11         12         13         14
    11  C    0.000000
    12  H    1.092213   0.000000
    13  H    1.091069   1.762349   0.000000
    14  H    1.092214   1.761520   1.762348   0.000000
 Symmetry turned off by external request.
 Stoichiometry    C4H10
 Framework group  CI[X(C4H10)]
 Deg. of freedom    18
 Full point group                 CI      NOp   2
 Rotational constants (GHZ):          23.6116342           3.6179161           3.3991508
 Leave Link  202 at Fri Mar 29 17:14:23 2024, MaxMem=   134217728 cpu:               0.1 elap:               0.0
 (Enter /home/emanuele/chem_software/gaussian//gdv/l301.exe)
 Standard basis: VSTO-6G (5D, 7F)
 Ernie: Thresh=  0.10000D-02 Tol=  0.10000D-05 Strict=F.
  NNHCO=     0 NNPyr=     0 NCTC=     0               EPep=         0.000000000
    EC=        65.745193473  ECS=         2.271612005   EG=         0.199102294
   EHC=         0.000352266  EAt=       -21.067501684  AtH=         1.919620419
 EPDDG=         0.000000000  ECC=        68.216260039 EAtT=        22.987122103
    26 basis functions,   156 primitive gaussians,    26 cartesian basis functions
    13 alpha electrons       13 beta electrons
       nuclear repulsion energy        91.2033821419 Hartrees.
 IExCor=       0 DFT=F Ex=HF Corr=None N6=None ScaHFX=  1.000000
 ScaDFX=  1.000000  1.000000  1.000000  1.000000  1.000000  0.000000
 ScaDFX=  0.000000  0.000000  0.000000  0.000000  0.000000  0.000000
 IRadAn=      5 IRanWt=     -1 IRanGd=            0 ICorTp=0 IEmpDi=  4
 Integral buffers will be    131072 words long.
 Regular integral format.
 Two-electron integral symmetry is turned off.
 Leave Link  301 at Fri Mar 29 17:14:23 2024, MaxMem=   134217728 cpu:               0.2 elap:               0.1
 (Enter /home/emanuele/chem_software/gaussian//gdv/l302.exe)
 Do NDO integrals.
 NPDir=0 NMtPBC=     1 NCelOv=     1 NCel=       1 NClECP=     1 NCelD=      1
         NCelK=      1 NCelE2=     1 NClLst=     1 CellRange=     0.0.
 One-electron integrals computed using PRISM.
 NBasis=    26 RedAO= F EigKep=  0.00D+00  NBF=    26
 NBsUse=    26 1.00D-04 EigRej=  0.00D+00 NBFU=    26
 Leave Link  302 at Fri Mar 29 17:14:23 2024, MaxMem=   134217728 cpu:               0.3 elap:               0.1
 (Enter /home/emanuele/chem_software/gaussian//gdv/l303.exe)
 DipDrv:  MaxL=1.
 Leave Link  303 at Fri Mar 29 17:14:23 2024, MaxMem=   134217728 cpu:               0.1 elap:               0.0
 (Enter /home/emanuele/chem_software/gaussian//gdv/l401.exe)
 Simple Huckel Guess.
 JPrj=0 DoOrth=F DoCkMO=F.
 Leave Link  401 at Fri Mar 29 17:14:23 2024, MaxMem=   134217728 cpu:               0.2 elap:               0.0
 (Enter /home/emanuele/chem_software/gaussian//gdv/l502.exe)
 Keep J ints in memory in canonical form, NReq=861102.
 FoFCou: FMM=F IPFlag=           0 FMFlag=           0 FMFlg1=           0
         NFxFlg=           0 DoJE=F BraDBF=F KetDBF=F FulRan=T
         wScrn=  0.000000 ICntrl=       600 IOpCl=  2 I1Cent=           0 NGrid=           0
         NMat0=    1 NMatS0=     50 NMatT0=    0 NMatD0=    1 NMtDS0=    0 NMtDT0=    0
 Symmetry not used in FoFCou.
 Two-electron integral symmetry not used.
 Closed shell SCF:
 Using DIIS extrapolation, IDIIS=  1040.
 Overlap will be assumed to be unity.
 NGot=   134217728 LenX=   134154919 LenY=   134153802
 Requested convergence on RMS density matrix=1.00D-08 within 128 cycles.
 Requested convergence on MAX density matrix=1.00D-06.
 Requested convergence on             energy=1.00D-06.
 No special actions if energy rises.

 Cycle   1  Pass 1  IDiag  1:
 E= 0.428709966982694E-01
 DIIS: error= 2.18D-02 at cycle   1 NSaved=   1.
 NSaved= 1 IEnMin= 1 EnMin= 0.428709966982694E-01 IErMin= 1 ErrMin= 2.18D-02
 ErrMax= 2.18D-02  0.00D+00 EMaxC= 1.00D-01 BMatC= 2.95D-02 BMatP= 2.95D-02
 IDIUse=3 WtCom= 7.82D-01 WtEn= 2.18D-01
 Coeff-Com:  0.100D+01
 Coeff-En:   0.100D+01
 Coeff:      0.100D+01
 GapD=    2.000 DampG=2.000 DampE=0.500 DampFc=1.0000 IDamp=-1.
 RMSDP=9.73D-03 MaxDP=6.76D-02              OVMax= 0.00D+00

 Cycle   2  Pass 1  IDiag  1:
 E=-0.333821878197114E-01 Delta-E=       -0.076253184518 Rises=F Damp=F
 DIIS: error= 5.34D-03 at cycle   2 NSaved=   2.
 NSaved= 2 IEnMin= 2 EnMin=-0.333821878197114E-01 IErMin= 2 ErrMin= 5.34D-03
 ErrMax= 5.34D-03  0.00D+00 EMaxC= 1.00D-01 BMatC= 2.11D-03 BMatP= 2.95D-02
 IDIUse=3 WtCom= 9.47D-01 WtEn= 5.34D-02
 Coeff-Com: -0.334D+00 0.133D+01
 Coeff-En:   0.000D+00 0.100D+01
 Coeff:     -0.316D+00 0.132D+01
 RMSDP=3.71D-03 MaxDP=2.10D-02 DE=-7.63D-02 OVMax= 0.00D+00

 Cycle   3  Pass 1  IDiag  3:
 E=-0.402139256419218E-01 Delta-E=       -0.006831737822 Rises=F Damp=F
 DIIS: error= 1.47D-03 at cycle   3 NSaved=   3.
 NSaved= 3 IEnMin= 3 EnMin=-0.402139256419218E-01 IErMin= 3 ErrMin= 1.47D-03
 ErrMax= 1.47D-03  0.00D+00 EMaxC= 1.00D-01 BMatC= 7.64D-05 BMatP= 2.11D-03
 IDIUse=3 WtCom= 9.85D-01 WtEn= 1.47D-02
 Coeff-Com:  0.293D+00-0.122D+01 0.193D+01
 Coeff-En:   0.000D+00 0.000D+00 0.100D+01
 Coeff:      0.289D+00-0.121D+01 0.192D+01
 Gap=     0.564 Goal=   None    Shift=    0.000
 RMSDP=1.30D-03 MaxDP=9.86D-03 DE=-6.83D-03 OVMax= 7.77D-03

 Cycle   4  Pass 1  IDiag  3:
 E=-0.406906053183747E-01 Delta-E=       -0.000476679676 Rises=F Damp=F
 DIIS: error= 2.98D-04 at cycle   4 NSaved=   4.
 NSaved= 4 IEnMin= 4 EnMin=-0.406906053183747E-01 IErMin= 4 ErrMin= 2.98D-04
 ErrMax= 2.98D-04  0.00D+00 EMaxC= 1.00D-01 BMatC= 3.25D-06 BMatP= 7.64D-05
 IDIUse=3 WtCom= 9.97D-01 WtEn= 2.98D-03
 Coeff-Com: -0.139D+00 0.586D+00-0.106D+01 0.162D+01
 Coeff-En:   0.000D+00 0.000D+00 0.000D+00 0.100D+01
 Coeff:     -0.139D+00 0.584D+00-0.106D+01 0.161D+01
 Gap=     0.565 Goal=   None    Shift=    0.000
 RMSDP=2.89D-04 MaxDP=2.11D-03 DE=-4.77D-04 OVMax= 2.06D-03

 Cycle   5  Pass 1  IDiag  3:
 E=-0.407122150718635E-01 Delta-E=       -0.000021609753 Rises=F Damp=F
 DIIS: error= 8.28D-05 at cycle   5 NSaved=   5.
 NSaved= 5 IEnMin= 5 EnMin=-0.407122150718635E-01 IErMin= 5 ErrMin= 8.28D-05
 ErrMax= 8.28D-05  0.00D+00 EMaxC= 1.00D-01 BMatC= 2.33D-07 BMatP= 3.25D-06
 IDIUse=1 WtCom= 1.00D+00 WtEn= 0.00D+00
 Coeff-Com:  0.746D-01-0.316D+00 0.604D+00-0.113D+01 0.177D+01
 Coeff:      0.746D-01-0.316D+00 0.604D+00-0.113D+01 0.177D+01
 Gap=     0.564 Goal=   None    Shift=    0.000
 RMSDP=7.85D-05 MaxDP=4.82D-04 DE=-2.16D-05 OVMax= 5.28D-04

 Cycle   6  Pass 1  IDiag  3:
 E=-0.407137616649891E-01 Delta-E=       -0.000001546593 Rises=F Damp=F
 DIIS: error= 1.53D-05 at cycle   6 NSaved=   6.
 NSaved= 6 IEnMin= 6 EnMin=-0.407137616649891E-01 IErMin= 6 ErrMin= 1.53D-05
 ErrMax= 1.53D-05  0.00D+00 EMaxC= 1.00D-01 BMatC= 7.93D-09 BMatP= 2.33D-07
 IDIUse=1 WtCom= 1.00D+00 WtEn= 0.00D+00
 Coeff-Com:  0.250D-02-0.102D-01 0.106D-01 0.236D-01-0.237D+00 0.121D+01
 Coeff:      0.250D-02-0.102D-01 0.106D-01 0.236D-01-0.237D+00 0.121D+01
 Gap=     0.564 Goal=   None    Shift=    0.000
 RMSDP=1.31D-05 MaxDP=9.81D-05 DE=-1.55D-06 OVMax= 1.02D-04

 Cycle   7  Pass 1  IDiag  3:
 E=-0.407138062769405E-01 Delta-E=       -0.000000044612 Rises=F Damp=F
 DIIS: error= 1.76D-06 at cycle   7 NSaved=   7.
 NSaved= 7 IEnMin= 7 EnMin=-0.407138062769405E-01 IErMin= 7 ErrMin= 1.76D-06
 ErrMax= 1.76D-06  0.00D+00 EMaxC= 1.00D-01 BMatC= 3.16D-10 BMatP= 7.93D-09
 IDIUse=1 WtCom= 1.00D+00 WtEn= 0.00D+00
 Coeff-Com:  0.638D-03-0.284D-02 0.830D-02-0.294D-01 0.121D+00-0.576D+00
 Coeff-Com:  0.148D+01
 Coeff:      0.638D-03-0.284D-02 0.830D-02-0.294D-01 0.121D+00-0.576D+00
 Coeff:      0.148D+01
 Gap=     0.564 Goal=   None    Shift=    0.000
 RMSDP=2.08D-06 MaxDP=1.19D-05 DE=-4.46D-08 OVMax= 1.35D-05

 Cycle   8  Pass 1  IDiag  3:
 E=-0.407138076177489E-01 Delta-E=       -0.000000001341 Rises=F Damp=F
 DIIS: error= 1.63D-07 at cycle   8 NSaved=   8.
 NSaved= 8 IEnMin= 8 EnMin=-0.407138076177489E-01 IErMin= 8 ErrMin= 1.63D-07
 ErrMax= 1.63D-07  0.00D+00 EMaxC= 1.00D-01 BMatC= 2.20D-12 BMatP= 3.16D-10
 IDIUse=1 WtCom= 1.00D+00 WtEn= 0.00D+00
 Coeff-Com:  0.875D-05 0.176D-04-0.113D-02 0.739D-02-0.385D-01 0.203D+00
 Coeff-Com: -0.560D+00 0.139D+01
 Coeff:      0.875D-05 0.176D-04-0.113D-02 0.739D-02-0.385D-01 0.203D+00
 Coeff:     -0.560D+00 0.139D+01
 Gap=     0.564 Goal=   None    Shift=    0.000
 RMSDP=1.55D-07 MaxDP=5.40D-07 DE=-1.34D-09 OVMax= 1.35D-06

 Cycle   9  Pass 1  IDiag  3:
 E=-0.407138076268865E-01 Delta-E=       -0.000000000009 Rises=F Damp=F
 DIIS: error= 1.65D-08 at cycle   9 NSaved=   9.
 NSaved= 9 IEnMin= 9 EnMin=-0.407138076268865E-01 IErMin= 9 ErrMin= 1.65D-08
 ErrMax= 1.65D-08  0.00D+00 EMaxC= 1.00D-01 BMatC= 4.83D-14 BMatP= 2.20D-12
 IDIUse=1 WtCom= 1.00D+00 WtEn= 0.00D+00
 Coeff-Com: -0.250D-05-0.718D-05 0.366D-03-0.238D-02 0.123D-01-0.654D-01
 Coeff-Com:  0.182D+00-0.520D+00 0.139D+01
 Coeff:     -0.250D-05-0.718D-05 0.366D-03-0.238D-02 0.123D-01-0.654D-01
 Coeff:      0.182D+00-0.520D+00 0.139D+01
 Gap=     0.564 Goal=   None    Shift=    0.000
 RMSDP=2.55D-08 MaxDP=8.56D-08 DE=-9.14D-12 OVMax= 2.18D-07

 Cycle  10  Pass 1  IDiag  3:
 E=-0.407138076272417E-01 Delta-E=       -0.000000000000 Rises=F Damp=F
 DIIS: error= 3.84D-09 at cycle  10 NSaved=  10.
 NSaved=10 IEnMin=10 EnMin=-0.407138076272417E-01 IErMin=10 ErrMin= 3.84D-09
 ErrMax= 3.84D-09  0.00D+00 EMaxC= 1.00D-01 BMatC= 1.94D-15 BMatP= 4.83D-14
 IDIUse=1 WtCom= 1.00D+00 WtEn= 0.00D+00
 Coeff-Com: -0.253D-05 0.176D-04-0.169D-03 0.965D-03-0.482D-02 0.252D-01
 Coeff-Com: -0.700D-01 0.205D+00-0.665D+00 0.151D+01
 Coeff:     -0.253D-05 0.176D-04-0.169D-03 0.965D-03-0.482D-02 0.252D-01
 Coeff:     -0.700D-01 0.205D+00-0.665D+00 0.151D+01
 Gap=     0.564 Goal=   None    Shift=    0.000
 RMSDP=5.72D-09 MaxDP=1.94D-08 DE=-3.55D-13 OVMax= 5.34D-08

 Cycle  11  Pass 2  IDiag  1:
 SCF Done:  E(RPM6) = -0.407138076272E-01 A.U. after   11 cycles
            NFock= 10  Conv=0.57D-08     -V/T= 0.9989
 KE=-3.631236529323D+01 PE=-1.303410059149D+02 EE= 7.540927525857D+01
 Leave Link  502 at Fri Mar 29 17:14:23 2024, MaxMem=   134217728 cpu:               0.2 elap:               0.1
 (Enter /home/emanuele/chem_software/gaussian//gdv/l601.exe)
 Copying SCF densities to generalized density rwf, IOpCl= 0 IROHF=0.

 **********************************************************************

            Population analysis using the SCF Density.

 **********************************************************************

 Alpha  occ. eigenvalues --       -1.04693      -0.94762      -0.80934      -0.74278      -0.59173
 Alpha  occ. eigenvalues --       -0.53895      -0.52945      -0.51765      -0.47264      -0.44791
 Alpha  occ. eigenvalues --       -0.44014      -0.42220      -0.41006
 Alpha virt. eigenvalues --        0.15432       0.16616       0.17993       0.20677       0.21657
 Alpha virt. eigenvalues --        0.21959       0.22334       0.22781       0.23653       0.24682
 Alpha virt. eigenvalues --        0.25084       0.25594       0.25761
          Condensed to atoms (all electrons):
               1          2          3          4          5          6
     1  C    4.463483   0.000000   0.000000   0.000000   0.000000   0.000000
     2  H    0.000000   0.855092   0.000000   0.000000   0.000000   0.000000
     3  H    0.000000   0.000000   0.853657   0.000000   0.000000   0.000000
     4  H    0.000000   0.000000   0.000000   0.853657   0.000000   0.000000
     5  C    0.000000   0.000000   0.000000   0.000000   4.227183   0.000000
     6  H    0.000000   0.000000   0.000000   0.000000   0.000000   0.873464
     7  H    0.000000   0.000000   0.000000   0.000000   0.000000   0.000000
     8  C    0.000000   0.000000   0.000000   0.000000   0.000000   0.000000
     9  H    0.000000   0.000000   0.000000   0.000000   0.000000   0.000000
    10  H    0.000000   0.000000   0.000000   0.000000   0.000000   0.000000
    11  C    0.000000   0.000000   0.000000   0.000000   0.000000   0.000000
    12  H    0.000000   0.000000   0.000000   0.000000   0.000000   0.000000
    13  H    0.000000   0.000000   0.000000   0.000000   0.000000   0.000000
    14  H    0.000000   0.000000   0.000000   0.000000   0.000000   0.000000
               7          8          9         10         11         12
     1  C    0.000000   0.000000   0.000000   0.000000   0.000000   0.000000
     2  H    0.000000   0.000000   0.000000   0.000000   0.000000   0.000000
     3  H    0.000000   0.000000   0.000000   0.000000   0.000000   0.000000
     4  H    0.000000   0.000000   0.000000   0.000000   0.000000   0.000000
     5  C    0.000000   0.000000   0.000000   0.000000   0.000000   0.000000
     6  H    0.000000   0.000000   0.000000   0.000000   0.000000   0.000000
     7  H    0.873464   0.000000   0.000000   0.000000   0.000000   0.000000
     8  C    0.000000   4.227183   0.000000   0.000000   0.000000   0.000000
     9  H    0.000000   0.000000   0.873464   0.000000   0.000000   0.000000
    10  H    0.000000   0.000000   0.000000   0.873464   0.000000   0.000000
    11  C    0.000000   0.000000   0.000000   0.000000   4.463483   0.000000
    12  H    0.000000   0.000000   0.000000   0.000000   0.000000   0.853657
    13  H    0.000000   0.000000   0.000000   0.000000   0.000000   0.000000
    14  H    0.000000   0.000000   0.000000   0.000000   0.000000   0.000000
              13         14
     1  C    0.000000   0.000000
     2  H    0.000000   0.000000
     3  H    0.000000   0.000000
     4  H    0.000000   0.000000
     5  C    0.000000   0.000000
     6  H    0.000000   0.000000
     7  H    0.000000   0.000000
     8  C    0.000000   0.000000
     9  H    0.000000   0.000000
    10  H    0.000000   0.000000
    11  C    0.000000   0.000000
    12  H    0.000000   0.000000
    13  H    0.855092   0.000000
    14  H    0.000000   0.853657
 Mulliken charges:
               1
     1  C   -0.463483
     2  H    0.144908
     3  H    0.146343
     4  H    0.146343
     5  C   -0.227183
     6  H    0.126536
     7  H    0.126536
     8  C   -0.227183
     9  H    0.126536
    10  H    0.126536
    11  C   -0.463483
    12  H    0.146343
    13  H    0.144908
    14  H    0.146343
 Sum of Mulliken charges =  -0.00000
 Mulliken charges with hydrogens summed into heavy atoms:
               1
     1  C   -0.025889
     5  C    0.025889
     8  C    0.025889
    11  C   -0.025889
 Charge=              0.0000 electrons
 Dipole moment (field-independent basis, Debye):
    X=             -0.0000    Y=             -0.0000    Z=              0.0000  Tot=              0.0000
 N-N= 9.120338214195D+01 E-N=-1.303410059626D+02  KE=-3.631236529323D+01
 Leave Link  601 at Fri Mar 29 17:14:23 2024, MaxMem=   134217728 cpu:               0.1 elap:               0.0
 (Enter /home/emanuele/chem_software/gaussian//gdv/l701.exe)
 ... and contract with generalized density number  0.
 Compute integral first derivatives.
 Leave Link  701 at Fri Mar 29 17:14:23 2024, MaxMem=   134217728 cpu:               0.2 elap:               0.1
 (Enter /home/emanuele/chem_software/gaussian//gdv/l702.exe)
 L702 exits ... SP integral derivatives will be done elsewhere.
 Leave Link  702 at Fri Mar 29 17:14:23 2024, MaxMem=   134217728 cpu:               0.1 elap:               0.0
 (Enter /home/emanuele/chem_software/gaussian//gdv/l703.exe)
 Integral derivatives from FoFJK, PRISM(SPDF).
 Compute integral first derivatives, UseDBF=F ICtDFT=           0.
 Calling FoFJK, ICntrl=      2127 FMM=F ISym2X=0 I1Cent= 0 IOpClX= 0 NMat=1 NMatS=1 NMatT=0.
 FoFJK:  IHMeth=40 ICntrl=    2127 DoSepK=F KAlg= 0 I1Cent=           0 FoldK=F
 IRaf=         0 NMat=       1 IRICut=       1 DoRegI=T DoRafI=F ISym2E= 0 IDoP0=3 IntGTp=3.
 FoFCou: FMM=F IPFlag=           0 FMFlag=      100000 FMFlg1=         800
         NFxFlg=           0 DoJE=F BraDBF=F KetDBF=F FulRan=T
         wScrn=  0.000000 ICntrl=      2127 IOpCl=  0 I1Cent=           0 NGrid=           0
         NMat0=    1 NMatS0=      1 NMatT0=    0 NMatD0=    1 NMtDS0=    0 NMtDT0=    0
 Symmetry not used in FoFCou.
 Leave Link  703 at Fri Mar 29 17:14:23 2024, MaxMem=   134217728 cpu:               0.1 elap:               0.0
 (Enter /home/emanuele/chem_software/gaussian//gdv/l716.exe)
 Dipole        =-1.42108547D-14-3.64153152D-14-3.55271368D-15
 -------------------------------------------------------------------
 Center     Atomic                   Forces (Hartrees/Bohr)
 Number     Number              X              Y              Z
 -------------------------------------------------------------------
      1        6          -0.001029910    0.004081518    0.000671838
      2        1           0.000873344   -0.001847053    0.000361294
      3        1           0.000487931    0.000448950   -0.002203871
      4        1          -0.002173936   -0.000491070   -0.000574970
      5        6           0.000833928   -0.001856655    0.000291651
      6        1           0.007581629   -0.001026422    0.000317373
      7        1          -0.001789565   -0.004336015    0.006052413
      8        6          -0.000833928    0.001856655   -0.000291651
      9        1           0.001789565    0.004336015   -0.006052413
     10        1          -0.007581629    0.001026422   -0.000317373
     11        6           0.001029910   -0.004081518   -0.000671838
     12        1           0.002173936    0.000491070    0.000574970
     13        1          -0.000873344    0.001847053   -0.000361294
     14        1          -0.000487931   -0.000448950    0.002203871
 -------------------------------------------------------------------
 Cartesian Forces:  Max     0.007581629 RMS     0.002713006
 Leave Link  716 at Fri Mar 29 17:14:23 2024, MaxMem=   134217728 cpu:               0.1 elap:               0.0
 (Enter /home/emanuele/chem_software/gaussian//gdv/l103.exe)

 GradGradGradGradGradGradGradGradGradGradGradGradGradGradGradGradGradGrad
 Berny optimization.
 FormGI is forming the generalized inverse of G from B-inverse, IUseBI=4.
 Internal  Forces:  Max     0.007604897 RMS     0.002481844
 Search for a local minimum.
 Step number   1 out of a maximum of  100 on scan point     1 out of    11
 All quantities printed in internal units (Hartrees-Bohrs-Radians)
 RMS Force = .25015D-02 SwitMx=.10000D-02 MixMth= 1
 Mixed Optimization -- RFO/linear search
 Second derivative matrix not updated -- first step.
 ITU=  0
     Eigenvalues ---    0.00381   0.00403   0.01634   0.03467   0.04318
     Eigenvalues ---    0.04824   0.04824   0.05471   0.05520   0.05520
     Eigenvalues ---    0.08489   0.08489   0.11726   0.12313   0.16000
     Eigenvalues ---    0.16000   0.16000   0.16000   0.16000   0.16000
     Eigenvalues ---    0.21901   0.21901   0.29508   0.29663   0.29663
     Eigenvalues ---    0.34288   0.34288   0.34288   0.34288   0.34558
     Eigenvalues ---    0.34558   0.34558   0.34558   0.34689   0.34689
     Eigenvalues --- 1000.000001000.000001000.000001000.000001000.00000
     Eigenvalues --- 1000.000001000.000001000.000001000.000001000.00000
     Eigenvalues --- 1000.000001000.000001000.000001000.000001000.00000
     Eigenvalues --- 1000.000001000.000001000.000001000.000001000.00000
     Eigenvalues --- 1000.000001000.000001000.000001000.000001000.00000
     Eigenvalues --- 1000.000001000.000001000.000001000.00000
 RFO step:  Lambda=-1.36945783D-03 EMin= 3.81256157D-03
 Linear search not attempted -- first point.
 Iteration  1 RMS(Cart)=  0.01264815 RMS(Int)=  0.00007858
 Iteration  2 RMS(Cart)=  0.00015090 RMS(Int)=  0.00004427
 Iteration  3 RMS(Cart)=  0.00000001 RMS(Int)=  0.00004427
 Fixing frozen coordinates.
 Iteration  1 RMS(Cart)=  0.00000000 RMS(Int)=  0.00000000
 ITry= 1 IFail=0 DXMaxC= 3.63D-02 DCOld= 1.00D+10 DXMaxT= 3.00D-01 DXLimC= 3.00D+00 Rises=F
 Variable       Old X    -DE/DX   Delta X   Delta X   Delta X     New X
                                 (Linear)    (Quad)   (Total)
    R1        2.06182   0.00203   0.00000   0.00582   0.00582   2.06764
    R2        2.06399   0.00220   0.00000   0.00635   0.00635   2.07033
    R3        2.06398   0.00220   0.00000   0.00635   0.00635   2.07033
    R4        2.88641   0.00094   0.00000   0.00314   0.00314   2.88955
    R5        2.06847   0.00760   0.00000   0.02209   0.02209   2.09057
    R6        2.06847   0.00760   0.00000   0.02209   0.02209   2.09057
    R7        2.88955   0.00606   0.00000   0.02046   0.02046   2.91000
    R8        2.06847   0.00760   0.00000   0.02209   0.02209   2.09057
    R9        2.06847   0.00760   0.00000   0.02209   0.02209   2.09057
   R10        2.88641   0.00094   0.00000   0.00314   0.00314   2.88955
   R11        2.06398   0.00220   0.00000   0.00635   0.00635   2.07033
   R12        2.06182   0.00203   0.00000   0.00582   0.00582   2.06764
   R13        2.06399   0.00220   0.00000   0.00635   0.00635   2.07033
    A1        1.87879  -0.00012   0.00000  -0.00227  -0.00225   1.87654
    A2        1.87879  -0.00012   0.00000  -0.00227  -0.00225   1.87654
    A3        1.94646  -0.00105   0.00000  -0.00810  -0.00809   1.93837
    A4        1.87608  -0.00066   0.00000  -0.00099  -0.00103   1.87504
    A5        1.94028   0.00095   0.00000   0.00667   0.00665   1.94692
    A6        1.94028   0.00095   0.00000   0.00667   0.00665   1.94692
    A7        1.91120   0.00127   0.00000   0.00224   0.00230   1.91350
    A8        1.91120   0.00127   0.00000   0.00224   0.00230   1.91350
    A9        1.97867  -0.00543   0.00000  -0.02577  -0.02574   1.95292
   A10        1.84959  -0.00112   0.00000  -0.00114  -0.00124   1.84834
   A11        1.90436   0.00214   0.00000   0.01206   0.01198   1.91634
   A12        1.90436   0.00214   0.00000   0.01206   0.01198   1.91634
   A13        1.90436   0.00214   0.00000   0.01206   0.01198   1.91634
   A14        1.90436   0.00214   0.00000   0.01206   0.01198   1.91634
   A15        1.97867  -0.00543   0.00000  -0.02577  -0.02574   1.95292
   A16        1.84959  -0.00112   0.00000  -0.00114  -0.00124   1.84834
   A17        1.91120   0.00127   0.00000   0.00224   0.00230   1.91350
   A18        1.91120   0.00127   0.00000   0.00224   0.00230   1.91350
   A19        1.94028   0.00095   0.00000   0.00667   0.00665   1.94692
   A20        1.94646  -0.00105   0.00000  -0.00810  -0.00809   1.93837
   A21        1.94028   0.00095   0.00000   0.00667   0.00665   1.94692
   A22        1.87879  -0.00012   0.00000  -0.00227  -0.00225   1.87654
   A23        1.87608  -0.00066   0.00000  -0.00099  -0.00103   1.87504
   A24        1.87879  -0.00012   0.00000  -0.00227  -0.00225   1.87654
    D1        1.01051   0.00005   0.00000   0.00058   0.00056   1.01107
    D2       -1.01051  -0.00005   0.00000  -0.00058  -0.00056  -1.01107
    D3        3.14159  -0.00000   0.00000   0.00000   0.00000   3.14159
    D4       -1.08642   0.00026   0.00000   0.00440   0.00440  -1.08202
    D5       -3.10744   0.00017   0.00000   0.00324   0.00328  -3.10415
    D6        1.04467   0.00022   0.00000   0.00382   0.00384   1.04851
    D7        3.10744  -0.00017   0.00000  -0.00324  -0.00328   3.10415
    D8        1.08642  -0.00026   0.00000  -0.00440  -0.00440   1.08202
    D9       -1.04467  -0.00022   0.00000  -0.00382  -0.00384  -1.04851
   D10       -1.00671  -0.00051   0.00000  -0.00593  -0.00598  -1.01269
   D11        1.00671   0.00051   0.00000   0.00593   0.00599   1.01269
   D12        3.14159   0.00000   0.00000  -0.00000  -0.00000   3.14159
   D13        1.12818  -0.00101   0.00000  -0.01185  -0.01197   1.11621
   D14        3.14159   0.00000   0.00000   0.00000   0.00000  -3.14159
   D15       -1.00671  -0.00051   0.00000  -0.00593  -0.00599  -1.01269
   D16        3.14159  -0.00000   0.00000   0.00000   0.00000   3.14159
   D17       -1.12818   0.00101   0.00000   0.01185   0.01197  -1.11621
   D18        1.00671   0.00051   0.00000   0.00593   0.00598   1.01269
   D19        1.04467   0.00022   0.00000   0.00382   0.00384   1.04851
   D20       -3.14159   0.00000   0.00000   0.00000   0.00000  -3.14159
   D21       -1.04467  -0.00022   0.00000  -0.00382  -0.00384  -1.04851
   D22       -1.08642   0.00026   0.00000   0.00440   0.00440  -1.08202
   D23        1.01051   0.00005   0.00000   0.00058   0.00056   1.01107
   D24        3.10744  -0.00017   0.00000  -0.00324  -0.00328   3.10415
   D25       -3.10744   0.00017   0.00000   0.00324   0.00328  -3.10415
   D26       -1.01051  -0.00005   0.00000  -0.00058  -0.00056  -1.01107
   D27        1.08642  -0.00026   0.00000  -0.00440  -0.00440   1.08202
         Item               Value     Threshold  Converged?
 Maximum Force            0.007605     0.000450     NO 
 RMS     Force            0.002501     0.000300     NO 
 Maximum Displacement     0.036285     0.001800     NO 
 RMS     Displacement     0.012712     0.001200     NO 
 Predicted change in Energy=-6.893516D-04
 Lowest energy point so far.  Saving SCF results.
 GradGradGradGradGradGradGradGradGradGradGradGradGradGradGradGradGradGrad

 Leave Link  103 at Fri Mar 29 17:14:23 2024, MaxMem=   134217728 cpu:               0.1 elap:               0.0
 (Enter /home/emanuele/chem_software/gaussian//gdv/l202.exe)
                          Input orientation:                          
 ---------------------------------------------------------------------
 Center     Atomic      Atomic             Coordinates (Angstroms)
 Number     Number       Type             X           Y           Z
 ---------------------------------------------------------------------
      1          6           0       -2.493651    0.357658   -0.005988
      2          1           0       -2.137431   -0.676773   -0.020849
      3          1           0       -2.145719    0.839501   -0.926342
      4          1           0       -3.588233    0.330069   -0.043542
      5          6           0       -1.992680    1.093517    1.237246
      6          1           0       -0.886977    1.069127    1.263351
      7          1           0       -2.329184    0.559804    2.145965
      8          6           0       -2.483296    2.552621    1.277564
      9          1           0       -2.146792    3.086334    0.368845
     10          1           0       -3.588999    2.577011    1.251459
     11          6           0       -1.982324    3.288480    2.520798
     12          1           0       -0.887743    3.316069    2.558352
     13          1           0       -2.338545    4.322911    2.535660
     14          1           0       -2.330256    2.806637    3.441152
 ---------------------------------------------------------------------
                    Distance matrix (angstroms):
                    1          2          3          4          5
     1  C    0.000000
     2  H    1.094148   0.000000
     3  H    1.095573   1.766089   0.000000
     4  H    1.095573   1.766089   1.766268   0.000000
     5  C    1.529082   2.176621   2.183817   2.183817   0.000000
     6  H    2.167675   2.502194   2.536123   3.090463   1.106280
     7  H    2.167675   2.502194   3.090463   2.536123   1.106280
     8  C    2.542731   3.497783   2.811751   2.811751   1.539908
     9  H    2.776056   3.783242   2.593410   3.137644   2.179264
    10  H    2.776056   3.783242   3.137645   2.593410   2.179264
    11  C    3.903310   4.712458   4.231664   4.231664   2.542731
    12  H    4.231664   4.914955   4.456342   4.793609   2.811751
    13  H    4.712458   5.618987   4.914955   4.914955   3.497783
    14  H    4.231664   4.914955   4.793609   4.456342   2.811751
                    6          7          8          9         10
     6  H    0.000000
     7  H    1.765893   0.000000
     8  C    2.179264   2.179264   0.000000
     9  H    2.540944   3.094314   1.106280   0.000000
    10  H    3.094313   2.540944   1.106280   1.765893   0.000000
    11  C    2.776056   2.776056   1.529082   2.167675   2.167675
    12  H    2.593410   3.137645   2.183817   2.536123   3.090463
    13  H    3.783242   3.783242   2.176621   2.502194   2.502193
    14  H    3.137645   2.593409   2.183817   3.090463   2.536123
                   11         12         13         14
    11  C    0.000000
    12  H    1.095573   0.000000
    13  H    1.094148   1.766089   0.000000
    14  H    1.095573   1.766268   1.766089   0.000000
 Symmetry turned off by external request.
 Stoichiometry    C4H10
 Framework group  C1[X(C4H10)]
 Deg. of freedom    36
 Full point group                 C1      NOp   1
 Rotational constants (GHZ):          22.9464172           3.6456906           3.4130121
 Leave Link  202 at Fri Mar 29 17:14:23 2024, MaxMem=   134217728 cpu:               0.1 elap:               0.0
 (Enter /home/emanuele/chem_software/gaussian//gdv/l301.exe)
 Standard basis: VSTO-6G (5D, 7F)
 Ernie: Thresh=  0.10000D-02 Tol=  0.10000D-05 Strict=F.
  NNHCO=     0 NNPyr=     0 NCTC=     0               EPep=         0.000000000
    EC=        65.639203986  ECS=         2.230601588   EG=         0.197541392
   EHC=         0.000329371  EAt=       -21.067501684  AtH=         1.919620419
 EPDDG=         0.000000000  ECC=        68.067676337 EAtT=        22.987122103
    26 basis functions,   156 primitive gaussians,    26 cartesian basis functions
    13 alpha electrons       13 beta electrons
       nuclear repulsion energy        91.0547984404 Hartrees.
 IExCor=       0 DFT=F Ex=HF Corr=None N6=None ScaHFX=  1.000000
 ScaDFX=  1.000000  1.000000  1.000000  1.000000  1.000000  0.000000
 ScaDFX=  0.000000  0.000000  0.000000  0.000000  0.000000  0.000000
 IRadAn=      5 IRanWt=     -1 IRanGd=            0 ICorTp=0 IEmpDi=  4
 Integral buffers will be    131072 words long.
 Regular integral format.
 Two-electron integral symmetry is turned off.
 Leave Link  301 at Fri Mar 29 17:14:23 2024, MaxMem=   134217728 cpu:               0.2 elap:               0.1
 (Enter /home/emanuele/chem_software/gaussian//gdv/l302.exe)
 Do NDO integrals.
 NPDir=0 NMtPBC=     1 NCelOv=     1 NCel=       1 NClECP=     1 NCelD=      1
         NCelK=      1 NCelE2=     1 NClLst=     1 CellRange=     0.0.
 One-electron integrals computed using PRISM.
 NBasis=    26 RedAO= F EigKep=  0.00D+00  NBF=    26
 NBsUse=    26 1.00D-04 EigRej=  0.00D+00 NBFU=    26
 Leave Link  302 at Fri Mar 29 17:14:23 2024, MaxMem=   134217728 cpu:               0.3 elap:               0.1
 (Enter /home/emanuele/chem_software/gaussian//gdv/l303.exe)
 DipDrv:  MaxL=1.
 Leave Link  303 at Fri Mar 29 17:14:23 2024, MaxMem=   134217728 cpu:               0.1 elap:               0.0
 (Enter /home/emanuele/chem_software/gaussian//gdv/l401.exe)
 Initial guess from the checkpoint file:  "3_qm.chk"
 B after Tr=     0.000000    0.000000    0.000000
         Rot=    1.000000    0.000000    0.000000    0.000000 Ang=   0.00 deg.
 AO Guess basis will be translated and rotated to current coordinates.
 JPrj=0 DoOrth=T DoCkMO=T.
 Leave Link  401 at Fri Mar 29 17:14:24 2024, MaxMem=   134217728 cpu:               0.8 elap:               0.2
 (Enter /home/emanuele/chem_software/gaussian//gdv/l502.exe)
 Keep J ints in memory in canonical form, NReq=861102.
 FoFCou: FMM=F IPFlag=           0 FMFlag=           0 FMFlg1=           0
         NFxFlg=           0 DoJE=F BraDBF=F KetDBF=F FulRan=T
         wScrn=  0.000000 ICntrl=       600 IOpCl=  2 I1Cent=           0 NGrid=           0
         NMat0=    1 NMatS0=     50 NMatT0=    0 NMatD0=    1 NMtDS0=    0 NMtDT0=    0
 Symmetry not used in FoFCou.
 Two-electron integral symmetry not used.
 Closed shell SCF:
 Using DIIS extrapolation, IDIIS=  1040.
 Overlap will be assumed to be unity.
 NGot=   134217728 LenX=   134154919 LenY=   134153802
 Requested convergence on RMS density matrix=1.00D-08 within 128 cycles.
 Requested convergence on MAX density matrix=1.00D-06.
 Requested convergence on             energy=1.00D-06.
 No special actions if energy rises.

 Cycle   1  Pass 1  IDiag  1:
 E=-0.413024875655736E-01
 DIIS: error= 6.65D-04 at cycle   1 NSaved=   1.
 NSaved= 1 IEnMin= 1 EnMin=-0.413024875655736E-01 IErMin= 1 ErrMin= 6.65D-04
 ErrMax= 6.65D-04  0.00D+00 EMaxC= 1.00D-01 BMatC= 2.50D-05 BMatP= 2.50D-05
 IDIUse=3 WtCom= 9.93D-01 WtEn= 6.65D-03
 Coeff-Com:  0.100D+01
 Coeff-En:   0.100D+01
 Coeff:      0.100D+01
 RMSDP=3.21D-04 MaxDP=1.98D-03              OVMax= 0.00D+00

 Cycle   2  Pass 1  IDiag  3:
 E=-0.413818566730271E-01 Delta-E=       -0.000079369107 Rises=F Damp=F
 DIIS: error= 1.99D-04 at cycle   2 NSaved=   2.
 NSaved= 2 IEnMin= 2 EnMin=-0.413818566730271E-01 IErMin= 2 ErrMin= 1.99D-04
 ErrMax= 1.99D-04  0.00D+00 EMaxC= 1.00D-01 BMatC= 3.51D-06 BMatP= 2.50D-05
 IDIUse=3 WtCom= 9.98D-01 WtEn= 1.99D-03
 Coeff-Com: -0.525D+00 0.153D+01
 Coeff-En:   0.000D+00 0.100D+01
 Coeff:     -0.524D+00 0.152D+01
 Gap=     0.564 Goal=   None    Shift=    0.000
 RMSDP=2.00D-04 MaxDP=8.86D-04 DE=-7.94D-05 OVMax= 1.70D-03

 Cycle   3  Pass 1  IDiag  3:
 E=-0.413972112767453E-01 Delta-E=       -0.000015354604 Rises=F Damp=F
 DIIS: error= 3.89D-05 at cycle   3 NSaved=   3.
 NSaved= 3 IEnMin= 3 EnMin=-0.413972112767453E-01 IErMin= 3 ErrMin= 3.89D-05
 ErrMax= 3.89D-05  0.00D+00 EMaxC= 1.00D-01 BMatC= 1.07D-07 BMatP= 3.51D-06
 IDIUse=1 WtCom= 1.00D+00 WtEn= 0.00D+00
 Coeff-Com:  0.262D+00-0.847D+00 0.158D+01
 Coeff:      0.262D+00-0.847D+00 0.158D+01
 Gap=     0.564 Goal=   None    Shift=    0.000
 RMSDP=4.59D-05 MaxDP=2.40D-04 DE=-1.54D-05 OVMax= 3.17D-04

 Cycle   4  Pass 1  IDiag  3:
 E=-0.413978071597256E-01 Delta-E=       -0.000000595883 Rises=F Damp=F
 DIIS: error= 5.76D-06 at cycle   4 NSaved=   4.
 NSaved= 4 IEnMin= 4 EnMin=-0.413978071597256E-01 IErMin= 4 ErrMin= 5.76D-06
 ErrMax= 5.76D-06  0.00D+00 EMaxC= 1.00D-01 BMatC= 3.36D-09 BMatP= 1.07D-07
 IDIUse=1 WtCom= 1.00D+00 WtEn= 0.00D+00
 Coeff-Com: -0.151D+00 0.492D+00-0.984D+00 0.164D+01
 Coeff:     -0.151D+00 0.492D+00-0.984D+00 0.164D+01
 Gap=     0.564 Goal=   None    Shift=    0.000
 RMSDP=8.30D-06 MaxDP=4.14D-05 DE=-5.96D-07 OVMax= 7.01D-05

 Cycle   5  Pass 1  IDiag  3:
 E=-0.413978277765494E-01 Delta-E=       -0.000000020617 Rises=F Damp=F
 DIIS: error= 2.43D-06 at cycle   5 NSaved=   5.
 NSaved= 5 IEnMin= 5 EnMin=-0.413978277765494E-01 IErMin= 5 ErrMin= 2.43D-06
 ErrMax= 2.43D-06  0.00D+00 EMaxC= 1.00D-01 BMatC= 2.63D-10 BMatP= 3.36D-09
 IDIUse=1 WtCom= 1.00D+00 WtEn= 0.00D+00
 Coeff-Com:  0.117D+00-0.381D+00 0.768D+00-0.144D+01 0.193D+01
 Coeff:      0.117D+00-0.381D+00 0.768D+00-0.144D+01 0.193D+01
 Gap=     0.564 Goal=   None    Shift=    0.000
 RMSDP=2.80D-06 MaxDP=1.78D-05 DE=-2.06D-08 OVMax= 1.71D-05

 Cycle   6  Pass 1  IDiag  3:
 E=-0.413978296101192E-01 Delta-E=       -0.000000001834 Rises=F Damp=F
 DIIS: error= 4.34D-07 at cycle   6 NSaved=   6.
 NSaved= 6 IEnMin= 6 EnMin=-0.413978296101192E-01 IErMin= 6 ErrMin= 4.34D-07
 ErrMax= 4.34D-07  0.00D+00 EMaxC= 1.00D-01 BMatC= 9.80D-12 BMatP= 2.63D-10
 IDIUse=1 WtCom= 1.00D+00 WtEn= 0.00D+00
 Coeff-Com: -0.558D-01 0.181D+00-0.366D+00 0.697D+00-0.106D+01 0.160D+01
 Coeff:     -0.558D-01 0.181D+00-0.366D+00 0.697D+00-0.106D+01 0.160D+01
 Gap=     0.564 Goal=   None    Shift=    0.000
 RMSDP=4.95D-07 MaxDP=3.38D-06 DE=-1.83D-09 OVMax= 2.86D-06

 Cycle   7  Pass 1  IDiag  3:
 E=-0.413978296719648E-01 Delta-E=       -0.000000000062 Rises=F Damp=F
 DIIS: error= 5.96D-08 at cycle   7 NSaved=   7.
 NSaved= 7 IEnMin= 7 EnMin=-0.413978296719648E-01 IErMin= 7 ErrMin= 5.96D-08
 ErrMax= 5.96D-08  0.00D+00 EMaxC= 1.00D-01 BMatC= 2.94D-13 BMatP= 9.80D-12
 IDIUse=1 WtCom= 1.00D+00 WtEn= 0.00D+00
 Coeff-Com:  0.189D-01-0.612D-01 0.123D+00-0.235D+00 0.363D+00-0.667D+00
 Coeff-Com:  0.146D+01
 Coeff:      0.189D-01-0.612D-01 0.123D+00-0.235D+00 0.363D+00-0.667D+00
 Coeff:      0.146D+01
 Gap=     0.564 Goal=   None    Shift=    0.000
 RMSDP=8.13D-08 MaxDP=4.53D-07 DE=-6.18D-11 OVMax= 6.65D-07

 Cycle   8  Pass 1  IDiag  3:
 E=-0.413978296735849E-01 Delta-E=       -0.000000000002 Rises=F Damp=F
 DIIS: error= 1.17D-08 at cycle   8 NSaved=   8.
 NSaved= 8 IEnMin= 8 EnMin=-0.413978296735849E-01 IErMin= 8 ErrMin= 1.17D-08
 ErrMax= 1.17D-08  0.00D+00 EMaxC= 1.00D-01 BMatC= 6.36D-15 BMatP= 2.94D-13
 IDIUse=1 WtCom= 1.00D+00 WtEn= 0.00D+00
 Coeff-Com: -0.475D-02 0.154D-01-0.308D-01 0.588D-01-0.916D-01 0.184D+00
 Coeff-Com: -0.523D+00 0.139D+01
 Coeff:     -0.475D-02 0.154D-01-0.308D-01 0.588D-01-0.916D-01 0.184D+00
 Coeff:     -0.523D+00 0.139D+01
 Gap=     0.564 Goal=   None    Shift=    0.000
 RMSDP=9.60D-09 MaxDP=5.82D-08 DE=-1.62D-12 OVMax= 5.42D-08

 Cycle   9  Pass 2  IDiag  1:
 SCF Done:  E(RPM6) = -0.413978296736E-01 A.U. after    9 cycles
            NFock=  8  Conv=0.96D-08     -V/T= 0.9989
 KE=-3.627729248588D+01 PE=-1.301523097972D+02 EE= 7.533340601304D+01
 Leave Link  502 at Fri Mar 29 17:14:24 2024, MaxMem=   134217728 cpu:               0.2 elap:               0.0
 (Enter /home/emanuele/chem_software/gaussian//gdv/l701.exe)
 ... and contract with generalized density number  0.
 Compute integral first derivatives.
 Leave Link  701 at Fri Mar 29 17:14:24 2024, MaxMem=   134217728 cpu:               0.2 elap:               0.1
 (Enter /home/emanuele/chem_software/gaussian//gdv/l702.exe)
 L702 exits ... SP integral derivatives will be done elsewhere.
 Leave Link  702 at Fri Mar 29 17:14:24 2024, MaxMem=   134217728 cpu:               0.1 elap:               0.0
 (Enter /home/emanuele/chem_software/gaussian//gdv/l703.exe)
 Integral derivatives from FoFJK, PRISM(SPDF).
 Compute integral first derivatives, UseDBF=F ICtDFT=           0.
 Calling FoFJK, ICntrl=      2127 FMM=F ISym2X=0 I1Cent= 0 IOpClX= 0 NMat=1 NMatS=1 NMatT=0.
 FoFJK:  IHMeth=40 ICntrl=    2127 DoSepK=F KAlg= 0 I1Cent=           0 FoldK=F
 IRaf=         0 NMat=       1 IRICut=       1 DoRegI=T DoRafI=F ISym2E= 0 IDoP0=3 IntGTp=3.
 FoFCou: FMM=F IPFlag=           0 FMFlag=      100000 FMFlg1=         800
         NFxFlg=           0 DoJE=F BraDBF=F KetDBF=F FulRan=T
         wScrn=  0.000000 ICntrl=      2127 IOpCl=  0 I1Cent=           0 NGrid=           0
         NMat0=    1 NMatS0=      1 NMatT0=    0 NMatD0=    1 NMtDS0=    0 NMtDT0=    0
 Symmetry not used in FoFCou.
 Leave Link  703 at Fri Mar 29 17:14:24 2024, MaxMem=   134217728 cpu:               0.2 elap:               0.0
 (Enter /home/emanuele/chem_software/gaussian//gdv/l716.exe)
 Dipole        =-2.47870791D-08-8.50407833D-09 1.68659868D-08
 -------------------------------------------------------------------
 Center     Atomic                   Forces (Hartrees/Bohr)
 Number     Number              X              Y              Z
 -------------------------------------------------------------------
      1        6           0.000110687    0.001595925    0.001101603
      2        1           0.000154900   -0.000644723   -0.000118896
      3        1          -0.000006482    0.000011390   -0.000091902
      4        1          -0.000078322   -0.000013976   -0.000047990
      5        6          -0.001254576    0.001816084   -0.001001909
      6        1           0.000352171    0.000251170    0.000192795
      7        1          -0.000078542    0.000099075    0.000456344
      8        6           0.001254575   -0.001816084    0.001001911
      9        1           0.000078543   -0.000099077   -0.000456343
     10        1          -0.000352172   -0.000251169   -0.000192797
     11        6          -0.000110687   -0.001595925   -0.001101602
     12        1           0.000078321    0.000013974    0.000047990
     13        1          -0.000154896    0.000644724    0.000118894
     14        1           0.000006481   -0.000011388    0.000091903
 -------------------------------------------------------------------
 Cartesian Forces:  Max     0.001816084 RMS     0.000709402
 Leave Link  716 at Fri Mar 29 17:14:24 2024, MaxMem=   134217728 cpu:               0.1 elap:               0.0
 (Enter /home/emanuele/chem_software/gaussian//gdv/l103.exe)

 GradGradGradGradGradGradGradGradGradGradGradGradGradGradGradGradGradGrad
 Berny optimization.
 Using GEDIIS/GDIIS optimizer.
 FormGI is forming the generalized inverse of G from B-inverse, IUseBI=4.
 Internal  Forces:  Max     0.003219259 RMS     0.000514445
 Search for a local minimum.
 Step number   2 out of a maximum of  100 on scan point     1 out of    11
 All quantities printed in internal units (Hartrees-Bohrs-Radians)
 RMS Force = .51851D-03 SwitMx=.10000D-02 MixMth= 2
 Mixed Optimization -- En-DIIS/RFO-DIIS
 Update second derivatives using D2CorX and points    1    2
 DE= -6.84D-04 DEPred=-6.89D-04 R= 9.92D-01
 TightC=F SS=  1.41D+00  RLast= 7.41D-02 DXNew= 5.0454D-01 2.2215D-01
 Trust test= 9.92D-01 RLast= 7.41D-02 DXMaxT set to 3.00D-01
 ITU=  1  0
 Use linear search instead of GDIIS.
     Eigenvalues ---    0.00381   0.00403   0.01672   0.03592   0.04392
     Eigenvalues ---    0.04829   0.04849   0.05452   0.05462   0.05503
     Eigenvalues ---    0.08255   0.08428   0.11541   0.12142   0.15922
     Eigenvalues ---    0.16000   0.16000   0.16000   0.16000   0.16051
     Eigenvalues ---    0.19736   0.21862   0.29472   0.29663   0.30110
     Eigenvalues ---    0.34288   0.34288   0.34288   0.34382   0.34537
     Eigenvalues ---    0.34558   0.34558   0.34558   0.34689   0.37321
     Eigenvalues --- 1000.000001000.000001000.000001000.000001000.00000
     Eigenvalues --- 1000.000001000.000001000.000001000.000001000.00000
     Eigenvalues --- 1000.000001000.000001000.000001000.000001000.00000
     Eigenvalues --- 1000.000001000.000001000.000001000.000001000.00000
     Eigenvalues --- 1000.000001000.000001000.000001000.000001000.00000
     Eigenvalues --- 1000.000001000.000001000.000001000.00000
 RFO step:  Lambda=-6.49771805D-05 EMin= 3.81256157D-03
 Quartic linear search produced a step of  0.00492.
 Iteration  1 RMS(Cart)=  0.00565985 RMS(Int)=  0.00000614
 Iteration  2 RMS(Cart)=  0.00000767 RMS(Int)=  0.00000350
 Iteration  3 RMS(Cart)=  0.00000000 RMS(Int)=  0.00000350
 Fixing frozen coordinates.
 Iteration  1 RMS(Cart)=  0.00000000 RMS(Int)=  0.00000000
 ITry= 1 IFail=0 DXMaxC= 1.17D-02 DCOld= 1.00D+10 DXMaxT= 3.00D-01 DXLimC= 3.00D+00 Rises=F
 Variable       Old X    -DE/DX   Delta X   Delta X   Delta X     New X
                                 (Linear)    (Quad)   (Total)
    R1        2.06764   0.00066   0.00003   0.00217   0.00219   2.06983
    R2        2.07033   0.00008   0.00003   0.00051   0.00054   2.07087
    R3        2.07033   0.00008   0.00003   0.00051   0.00054   2.07087
    R4        2.88955  -0.00120   0.00002  -0.00393  -0.00392   2.88563
    R5        2.09057   0.00035   0.00011   0.00197   0.00208   2.09265
    R6        2.09057   0.00035   0.00011   0.00197   0.00208   2.09265
    R7        2.91000  -0.00322   0.00010  -0.01008  -0.00998   2.90002
    R8        2.09057   0.00035   0.00011   0.00197   0.00208   2.09265
    R9        2.09057   0.00035   0.00011   0.00197   0.00208   2.09265
   R10        2.88955  -0.00120   0.00002  -0.00393  -0.00392   2.88563
   R11        2.07033   0.00008   0.00003   0.00051   0.00054   2.07087
   R12        2.06764   0.00066   0.00003   0.00217   0.00219   2.06983
   R13        2.07033   0.00008   0.00003   0.00051   0.00054   2.07087
    A1        1.87654  -0.00009  -0.00001  -0.00051  -0.00052   1.87602
    A2        1.87654  -0.00009  -0.00001  -0.00051  -0.00052   1.87602
    A3        1.93837   0.00017  -0.00004   0.00086   0.00082   1.93919
    A4        1.87504  -0.00005  -0.00001  -0.00062  -0.00063   1.87441
    A5        1.94692   0.00002   0.00003   0.00034   0.00037   1.94730
    A6        1.94692   0.00002   0.00003   0.00034   0.00037   1.94730
    A7        1.91350   0.00042   0.00001   0.00330   0.00330   1.91680
    A8        1.91350   0.00042   0.00001   0.00330   0.00330   1.91680
    A9        1.95292  -0.00074  -0.00013  -0.00481  -0.00494   1.94798
   A10        1.84834  -0.00013  -0.00001   0.00032   0.00031   1.84865
   A11        1.91634   0.00004   0.00006  -0.00089  -0.00083   1.91551
   A12        1.91634   0.00004   0.00006  -0.00089  -0.00083   1.91551
   A13        1.91634   0.00004   0.00006  -0.00089  -0.00083   1.91551
   A14        1.91634   0.00004   0.00006  -0.00089  -0.00083   1.91551
   A15        1.95292  -0.00074  -0.00013  -0.00481  -0.00494   1.94798
   A16        1.84834  -0.00013  -0.00001   0.00032   0.00031   1.84865
   A17        1.91350   0.00042   0.00001   0.00330   0.00330   1.91680
   A18        1.91350   0.00042   0.00001   0.00330   0.00330   1.91680
   A19        1.94692   0.00002   0.00003   0.00034   0.00037   1.94730
   A20        1.93837   0.00017  -0.00004   0.00086   0.00082   1.93919
   A21        1.94692   0.00002   0.00003   0.00034   0.00037   1.94730
   A22        1.87654  -0.00009  -0.00001  -0.00051  -0.00052   1.87602
   A23        1.87504  -0.00005  -0.00001  -0.00062  -0.00063   1.87441
   A24        1.87654  -0.00009  -0.00001  -0.00051  -0.00052   1.87602
    D1        1.01107   0.00016   0.00000   0.00207   0.00208   1.01315
    D2       -1.01107  -0.00016  -0.00000  -0.00207  -0.00208  -1.01315
    D3        3.14159   0.00000   0.00000   0.00000   0.00000   3.14159
    D4       -1.08202   0.00014   0.00002   0.00191   0.00194  -1.08008
    D5       -3.10415  -0.00018   0.00002  -0.00224  -0.00223  -3.10638
    D6        1.04851  -0.00002   0.00002  -0.00016  -0.00015   1.04836
    D7        3.10415   0.00018  -0.00002   0.00224   0.00223   3.10638
    D8        1.08202  -0.00014  -0.00002  -0.00191  -0.00194   1.08008
    D9       -1.04851   0.00002  -0.00002   0.00016   0.00014  -1.04836
   D10       -1.01269   0.00006  -0.00003   0.00032   0.00029  -1.01240
   D11        1.01269  -0.00006   0.00003  -0.00032  -0.00029   1.01240
   D12        3.14159   0.00000  -0.00000   0.00000   0.00000  -3.14159
   D13        1.11621   0.00011  -0.00006   0.00064   0.00059   1.11679
   D14       -3.14159  -0.00000   0.00000  -0.00000  -0.00000   3.14159
   D15       -1.01269   0.00006  -0.00003   0.00032   0.00029  -1.01240
   D16        3.14159  -0.00000   0.00000  -0.00000   0.00000   3.14159
   D17       -1.11621  -0.00011   0.00006  -0.00064  -0.00059  -1.11679
   D18        1.01269  -0.00006   0.00003  -0.00032  -0.00029   1.01240
   D19        1.04851  -0.00002   0.00002  -0.00016  -0.00015   1.04836
   D20       -3.14159  -0.00000   0.00000  -0.00000  -0.00000  -3.14159
   D21       -1.04851   0.00002  -0.00002   0.00016   0.00014  -1.04836
   D22       -1.08202   0.00014   0.00002   0.00191   0.00194  -1.08008
   D23        1.01107   0.00016   0.00000   0.00207   0.00208   1.01315
   D24        3.10415   0.00018  -0.00002   0.00224   0.00223   3.10638
   D25       -3.10415  -0.00018   0.00002  -0.00224  -0.00223  -3.10638
   D26       -1.01107  -0.00016  -0.00000  -0.00207  -0.00208  -1.01315
   D27        1.08202  -0.00014  -0.00002  -0.00191  -0.00194   1.08008
         Item               Value     Threshold  Converged?
 Maximum Force            0.003219     0.000450     NO 
 RMS     Force            0.000519     0.000300     NO 
 Maximum Displacement     0.011735     0.001800     NO 
 RMS     Displacement     0.005658     0.001200     NO 
 Predicted change in Energy=-3.253165D-05
 Lowest energy point so far.  Saving SCF results.
 GradGradGradGradGradGradGradGradGradGradGradGradGradGradGradGradGradGrad

 Leave Link  103 at Fri Mar 29 17:14:24 2024, MaxMem=   134217728 cpu:               0.0 elap:               0.0
 (Enter /home/emanuele/chem_software/gaussian//gdv/l202.exe)
                          Input orientation:                          
 ---------------------------------------------------------------------
 Center     Atomic      Atomic             Coordinates (Angstroms)
 Number     Number       Type             X           Y           Z
 ---------------------------------------------------------------------
      1          6           0       -2.493412    0.363190   -0.002406
      2          1           0       -2.137920   -0.672687   -0.019291
      3          1           0       -2.145739    0.845711   -0.922841
      4          1           0       -3.588293    0.336264   -0.040015
      5          6           0       -1.992179    1.096409    1.239733
      6          1           0       -0.885350    1.074998    1.267432
      7          1           0       -2.329162    0.565108    2.151027
      8          6           0       -2.483797    2.549729    1.275077
      9          1           0       -2.146814    3.081030    0.363783
     10          1           0       -3.590626    2.571140    1.247378
     11          6           0       -1.982563    3.282948    2.517216
     12          1           0       -0.887682    3.309874    2.554825
     13          1           0       -2.338055    4.318826    2.534101
     14          1           0       -2.330237    2.800428    3.437651
 ---------------------------------------------------------------------
                    Distance matrix (angstroms):
                    1          2          3          4          5
     1  C    0.000000
     2  H    1.095309   0.000000
     3  H    1.095857   1.766917   0.000000
     4  H    1.095857   1.766917   1.766318   0.000000
     5  C    1.527009   2.176255   2.182466   2.182466   0.000000
     6  H    2.169107   2.505792   2.537409   3.092094   1.107382
     7  H    2.169107   2.505792   3.092094   2.537409   1.107382
     8  C    2.532392   3.489840   2.801571   2.801571   1.534625
     9  H    2.764214   3.773224   2.579158   3.126444   2.174838
    10  H    2.764214   3.773224   3.126444   2.579158   2.174838
    11  C    3.890303   4.701602   4.219093   4.219093   2.532392
    12  H    4.219093   4.904076   4.443980   4.782138   2.801571
    13  H    4.701602   5.610265   4.904076   4.904076   3.489840
    14  H    4.219093   4.904076   4.782138   4.443980   2.801571
                    6          7          8          9         10
     6  H    0.000000
     7  H    1.767858   0.000000
     8  C    2.174838   2.174838   0.000000
     9  H    2.536146   3.091498   1.107382   0.000000
    10  H    3.091498   2.536146   1.107382   1.767858   0.000000
    11  C    2.764214   2.764214   1.527009   2.169107   2.169107
    12  H    2.579158   3.126444   2.182466   2.537409   3.092094
    13  H    3.773224   3.773224   2.176255   2.505792   2.505792
    14  H    3.126444   2.579158   2.182466   3.092094   2.537409
                   11         12         13         14
    11  C    0.000000
    12  H    1.095857   0.000000
    13  H    1.095309   1.766917   0.000000
    14  H    1.095857   1.766318   1.766917   0.000000
 Symmetry turned off by external request.
 Stoichiometry    C4H10
 Framework group  C1[X(C4H10)]
 Deg. of freedom    36
 Full point group                 C1      NOp   1
 Rotational constants (GHZ):          22.9214336           3.6695179           3.4336611
 Leave Link  202 at Fri Mar 29 17:14:24 2024, MaxMem=   134217728 cpu:               0.1 elap:               0.0
 (Enter /home/emanuele/chem_software/gaussian//gdv/l301.exe)
 Standard basis: VSTO-6G (5D, 7F)
 Ernie: Thresh=  0.10000D-02 Tol=  0.10000D-05 Strict=F.
  NNHCO=     0 NNPyr=     0 NCTC=     0               EPep=         0.000000000
    EC=        65.723354113  ECS=         2.231597759   EG=         0.198311304
   EHC=         0.000327760  EAt=       -21.067501684  AtH=         1.919620419
 EPDDG=         0.000000000  ECC=        68.153590937 EAtT=        22.987122103
    26 basis functions,   156 primitive gaussians,    26 cartesian basis functions
    13 alpha electrons       13 beta electrons
       nuclear repulsion energy        91.1407130403 Hartrees.
 IExCor=       0 DFT=F Ex=HF Corr=None N6=None ScaHFX=  1.000000
 ScaDFX=  1.000000  1.000000  1.000000  1.000000  1.000000  0.000000
 ScaDFX=  0.000000  0.000000  0.000000  0.000000  0.000000  0.000000
 IRadAn=      5 IRanWt=     -1 IRanGd=            0 ICorTp=0 IEmpDi=  4
 Integral buffers will be    131072 words long.
 Regular integral format.
 Two-electron integral symmetry is turned off.
 Leave Link  301 at Fri Mar 29 17:14:24 2024, MaxMem=   134217728 cpu:               0.2 elap:               0.1
 (Enter /home/emanuele/chem_software/gaussian//gdv/l302.exe)
 Do NDO integrals.
 NPDir=0 NMtPBC=     1 NCelOv=     1 NCel=       1 NClECP=     1 NCelD=      1
         NCelK=      1 NCelE2=     1 NClLst=     1 CellRange=     0.0.
 One-electron integrals computed using PRISM.
 NBasis=    26 RedAO= F EigKep=  0.00D+00  NBF=    26
 NBsUse=    26 1.00D-04 EigRej=  0.00D+00 NBFU=    26
 Leave Link  302 at Fri Mar 29 17:14:24 2024, MaxMem=   134217728 cpu:               0.3 elap:               0.1
 (Enter /home/emanuele/chem_software/gaussian//gdv/l303.exe)
 DipDrv:  MaxL=1.
 Leave Link  303 at Fri Mar 29 17:14:24 2024, MaxMem=   134217728 cpu:               0.1 elap:               0.0
 (Enter /home/emanuele/chem_software/gaussian//gdv/l401.exe)
 Initial guess from the checkpoint file:  "3_qm.chk"
 B after Tr=     0.000000    0.000000    0.000000
         Rot=    1.000000    0.000000    0.000000    0.000000 Ang=   0.00 deg.
 AO Guess basis will be translated and rotated to current coordinates.
 JPrj=0 DoOrth=T DoCkMO=T.
 Leave Link  401 at Fri Mar 29 17:14:24 2024, MaxMem=   134217728 cpu:               0.8 elap:               0.2
 (Enter /home/emanuele/chem_software/gaussian//gdv/l502.exe)
 Keep J ints in memory in canonical form, NReq=861102.
 FoFCou: FMM=F IPFlag=           0 FMFlag=           0 FMFlg1=           0
         NFxFlg=           0 DoJE=F BraDBF=F KetDBF=F FulRan=T
         wScrn=  0.000000 ICntrl=       600 IOpCl=  2 I1Cent=           0 NGrid=           0
         NMat0=    1 NMatS0=     50 NMatT0=    0 NMatD0=    1 NMtDS0=    0 NMtDT0=    0
 Symmetry not used in FoFCou.
 Two-electron integral symmetry not used.
 Closed shell SCF:
 Using DIIS extrapolation, IDIIS=  1040.
 Overlap will be assumed to be unity.
 NGot=   134217728 LenX=   134154919 LenY=   134153802
 Requested convergence on RMS density matrix=1.00D-08 within 128 cycles.
 Requested convergence on MAX density matrix=1.00D-06.
 Requested convergence on             energy=1.00D-06.
 No special actions if energy rises.

 Cycle   1  Pass 1  IDiag  1:
 E=-0.414054858107278E-01
 DIIS: error= 1.92D-04 at cycle   1 NSaved=   1.
 NSaved= 1 IEnMin= 1 EnMin=-0.414054858107278E-01 IErMin= 1 ErrMin= 1.92D-04
 ErrMax= 1.92D-04  0.00D+00 EMaxC= 1.00D-01 BMatC= 3.41D-06 BMatP= 3.41D-06
 IDIUse=3 WtCom= 9.98D-01 WtEn= 1.92D-03
 Coeff-Com:  0.100D+01
 Coeff-En:   0.100D+01
 Coeff:      0.100D+01
 RMSDP=1.23D-04 MaxDP=4.99D-04              OVMax= 0.00D+00

 Cycle   2  Pass 1  IDiag  3:
 E=-0.414166475582647E-01 Delta-E=       -0.000011161748 Rises=F Damp=F
 DIIS: error= 8.33D-05 at cycle   2 NSaved=   2.
 NSaved= 2 IEnMin= 2 EnMin=-0.414166475582647E-01 IErMin= 2 ErrMin= 8.33D-05
 ErrMax= 8.33D-05  0.00D+00 EMaxC= 1.00D-01 BMatC= 4.64D-07 BMatP= 3.41D-06
 IDIUse=1 WtCom= 1.00D+00 WtEn= 0.00D+00
 Coeff-Com: -0.508D+00 0.151D+01
 Coeff:     -0.508D+00 0.151D+01
 Gap=     0.564 Goal=   None    Shift=    0.000
 RMSDP=7.52D-05 MaxDP=3.39D-04 DE=-1.12D-05 OVMax= 6.64D-04

 Cycle   3  Pass 1  IDiag  3:
 E=-0.414187392708669E-01 Delta-E=       -0.000002091713 Rises=F Damp=F
 DIIS: error= 1.50D-05 at cycle   3 NSaved=   3.
 NSaved= 3 IEnMin= 3 EnMin=-0.414187392708669E-01 IErMin= 3 ErrMin= 1.50D-05
 ErrMax= 1.50D-05  0.00D+00 EMaxC= 1.00D-01 BMatC= 1.37D-08 BMatP= 4.64D-07
 IDIUse=1 WtCom= 1.00D+00 WtEn= 0.00D+00
 Coeff-Com:  0.223D+00-0.750D+00 0.153D+01
 Coeff:      0.223D+00-0.750D+00 0.153D+01
 Gap=     0.564 Goal=   None    Shift=    0.000
 RMSDP=1.68D-05 MaxDP=7.37D-05 DE=-2.09D-06 OVMax= 1.76D-04

 Cycle   4  Pass 1  IDiag  3:
 E=-0.414188177922767E-01 Delta-E=       -0.000000078521 Rises=F Damp=F
 DIIS: error= 1.99D-06 at cycle   4 NSaved=   4.
 NSaved= 4 IEnMin= 4 EnMin=-0.414188177922767E-01 IErMin= 4 ErrMin= 1.99D-06
 ErrMax= 1.99D-06  0.00D+00 EMaxC= 1.00D-01 BMatC= 3.17D-10 BMatP= 1.37D-08
 IDIUse=1 WtCom= 1.00D+00 WtEn= 0.00D+00
 Coeff-Com: -0.834D-01 0.284D+00-0.661D+00 0.146D+01
 Coeff:     -0.834D-01 0.284D+00-0.661D+00 0.146D+01
 Gap=     0.564 Goal=   None    Shift=    0.000
 RMSDP=2.40D-06 MaxDP=9.05D-06 DE=-7.85D-08 OVMax= 2.46D-05

 Cycle   5  Pass 1  IDiag  3:
 E=-0.414188194376663E-01 Delta-E=       -0.000000001645 Rises=F Damp=F
 DIIS: error= 6.14D-07 at cycle   5 NSaved=   5.
 NSaved= 5 IEnMin= 5 EnMin=-0.414188194376663E-01 IErMin= 5 ErrMin= 6.14D-07
 ErrMax= 6.14D-07  0.00D+00 EMaxC= 1.00D-01 BMatC= 1.11D-11 BMatP= 3.17D-10
 IDIUse=1 WtCom= 1.00D+00 WtEn= 0.00D+00
 Coeff-Com:  0.426D-01-0.145D+00 0.343D+00-0.819D+00 0.158D+01
 Coeff:      0.426D-01-0.145D+00 0.343D+00-0.819D+00 0.158D+01
 Gap=     0.564 Goal=   None    Shift=    0.000
 RMSDP=4.32D-07 MaxDP=3.07D-06 DE=-1.65D-09 OVMax= 2.79D-06

 Cycle   6  Pass 1  IDiag  3:
 E=-0.414188195041021E-01 Delta-E=       -0.000000000066 Rises=F Damp=F
 DIIS: error= 1.70D-07 at cycle   6 NSaved=   6.
 NSaved= 6 IEnMin= 6 EnMin=-0.414188195041021E-01 IErMin= 6 ErrMin= 1.70D-07
 ErrMax= 1.70D-07  0.00D+00 EMaxC= 1.00D-01 BMatC= 1.19D-12 BMatP= 1.11D-11
 IDIUse=1 WtCom= 1.00D+00 WtEn= 0.00D+00
 Coeff-Com: -0.234D-01 0.798D-01-0.189D+00 0.462D+00-0.114D+01 0.181D+01
 Coeff:     -0.234D-01 0.798D-01-0.189D+00 0.462D+00-0.114D+01 0.181D+01
 Gap=     0.564 Goal=   None    Shift=    0.000
 RMSDP=1.90D-07 MaxDP=1.36D-06 DE=-6.64D-11 OVMax= 1.44D-06

 Cycle   7  Pass 1  IDiag  3:
 E=-0.414188195127849E-01 Delta-E=       -0.000000000009 Rises=F Damp=F
 DIIS: error= 3.27D-08 at cycle   7 NSaved=   7.
 NSaved= 7 IEnMin= 7 EnMin=-0.414188195127849E-01 IErMin= 7 ErrMin= 3.27D-08
 ErrMax= 3.27D-08  0.00D+00 EMaxC= 1.00D-01 BMatC= 5.19D-14 BMatP= 1.19D-12
 IDIUse=1 WtCom= 1.00D+00 WtEn= 0.00D+00
 Coeff-Com:  0.126D-01-0.431D-01 0.102D+00-0.250D+00 0.634D+00-0.114D+01
 Coeff-Com:  0.168D+01
 Coeff:      0.126D-01-0.431D-01 0.102D+00-0.250D+00 0.634D+00-0.114D+01
 Coeff:      0.168D+01
 Gap=     0.564 Goal=   None    Shift=    0.000
 RMSDP=3.81D-08 MaxDP=2.67D-07 DE=-8.68D-12 OVMax= 2.75D-07

 Cycle   8  Pass 1  IDiag  3:
 E=-0.414188195130123E-01 Delta-E=       -0.000000000000 Rises=F Damp=F
 DIIS: error= 3.68D-09 at cycle   8 NSaved=   8.
 NSaved= 8 IEnMin= 8 EnMin=-0.414188195130123E-01 IErMin= 8 ErrMin= 3.68D-09
 ErrMax= 3.68D-09  0.00D+00 EMaxC= 1.00D-01 BMatC= 1.02D-15 BMatP= 5.19D-14
 IDIUse=1 WtCom= 1.00D+00 WtEn= 0.00D+00
 Coeff-Com: -0.355D-02 0.121D-01-0.287D-01 0.702D-01-0.179D+00 0.329D+00
 Coeff-Com: -0.571D+00 0.137D+01
 Coeff:     -0.355D-02 0.121D-01-0.287D-01 0.702D-01-0.179D+00 0.329D+00
 Coeff:     -0.571D+00 0.137D+01
 Gap=     0.564 Goal=   None    Shift=    0.000
 RMSDP=4.07D-09 MaxDP=2.05D-08 DE=-2.27D-13 OVMax= 2.12D-08

 Cycle   9  Pass 2  IDiag  1:
 SCF Done:  E(RPM6) = -0.414188195130E-01 A.U. after    9 cycles
            NFock=  8  Conv=0.41D-08     -V/T= 0.9989
 KE=-3.627900200759D+01 PE=-1.303215097482D+02 EE= 7.541837989597D+01
 Leave Link  502 at Fri Mar 29 17:14:24 2024, MaxMem=   134217728 cpu:               0.2 elap:               0.0
 (Enter /home/emanuele/chem_software/gaussian//gdv/l701.exe)
 ... and contract with generalized density number  0.
 Compute integral first derivatives.
 Leave Link  701 at Fri Mar 29 17:14:24 2024, MaxMem=   134217728 cpu:               0.2 elap:               0.1
 (Enter /home/emanuele/chem_software/gaussian//gdv/l702.exe)
 L702 exits ... SP integral derivatives will be done elsewhere.
 Leave Link  702 at Fri Mar 29 17:14:24 2024, MaxMem=   134217728 cpu:               0.1 elap:               0.0
 (Enter /home/emanuele/chem_software/gaussian//gdv/l703.exe)
 Integral derivatives from FoFJK, PRISM(SPDF).
 Compute integral first derivatives, UseDBF=F ICtDFT=           0.
 Calling FoFJK, ICntrl=      2127 FMM=F ISym2X=0 I1Cent= 0 IOpClX= 0 NMat=1 NMatS=1 NMatT=0.
 FoFJK:  IHMeth=40 ICntrl=    2127 DoSepK=F KAlg= 0 I1Cent=           0 FoldK=F
 IRaf=         0 NMat=       1 IRICut=       1 DoRegI=T DoRafI=F ISym2E= 0 IDoP0=3 IntGTp=3.
 FoFCou: FMM=F IPFlag=           0 FMFlag=      100000 FMFlg1=         800
         NFxFlg=           0 DoJE=F BraDBF=F KetDBF=F FulRan=T
         wScrn=  0.000000 ICntrl=      2127 IOpCl=  0 I1Cent=           0 NGrid=           0
         NMat0=    1 NMatS0=      1 NMatT0=    0 NMatD0=    1 NMtDS0=    0 NMtDT0=    0
 Symmetry not used in FoFCou.
 Leave Link  703 at Fri Mar 29 17:14:25 2024, MaxMem=   134217728 cpu:               0.1 elap:               0.0
 (Enter /home/emanuele/chem_software/gaussian//gdv/l716.exe)
 Dipole        = 1.45848746D-08 5.49980061D-09-8.70994743D-09
 -------------------------------------------------------------------
 Center     Atomic                   Forces (Hartrees/Bohr)
 Number     Number              X              Y              Z
 -------------------------------------------------------------------
      1        6           0.000093145   -0.000114704    0.000085936
      2        1          -0.000031124   -0.000177181   -0.000153083
      3        1          -0.000012828   -0.000087497   -0.000050596
      4        1           0.000004171   -0.000081492   -0.000061015
      5        6          -0.000034418   -0.000422194   -0.000299842
      6        1          -0.000003850   -0.000193396    0.000096919
      7        1           0.000171525   -0.000131451   -0.000010419
      8        6           0.000034419    0.000422195    0.000299842
      9        1          -0.000171527    0.000131454    0.000010417
     10        1           0.000003853    0.000193394   -0.000096918
     11        6          -0.000093148    0.000114703   -0.000085934
     12        1          -0.000004170    0.000081494    0.000061016
     13        1           0.000031123    0.000177181    0.000153083
     14        1           0.000012829    0.000087495    0.000050595
 -------------------------------------------------------------------
 Cartesian Forces:  Max     0.000422195 RMS     0.000149401
 Leave Link  716 at Fri Mar 29 17:14:25 2024, MaxMem=   134217728 cpu:               0.1 elap:               0.0
 (Enter /home/emanuele/chem_software/gaussian//gdv/l103.exe)

 GradGradGradGradGradGradGradGradGradGradGradGradGradGradGradGradGradGrad
 Berny optimization.
 Using GEDIIS/GDIIS optimizer.
 FormGI is forming the generalized inverse of G from B-inverse, IUseBI=4.
 Internal  Forces:  Max     0.001212735 RMS     0.000208791
 Search for a local minimum.
 Step number   3 out of a maximum of  100 on scan point     1 out of    11
 All quantities printed in internal units (Hartrees-Bohrs-Radians)
 RMS Force = .21044D-03 SwitMx=.10000D-02 MixMth= 2
 Mixed Optimization -- En-DIIS/RFO-DIIS
 Swapping is turned off.
 Update second derivatives using D2CorX and points    1    2    3
 DE= -2.10D-05 DEPred=-3.25D-05 R= 6.45D-01
 TightC=F SS=  1.41D+00  RLast= 1.76D-02 DXNew= 5.0454D-01 5.2893D-02
 Trust test= 6.45D-01 RLast= 1.76D-02 DXMaxT set to 3.00D-01
 ITU=  1  1  0
     Eigenvalues ---    0.00381   0.00403   0.01677   0.03617   0.04401
     Eigenvalues ---    0.04854   0.05022   0.05448   0.05457   0.05496
     Eigenvalues ---    0.08209   0.08578   0.11506   0.12108   0.15234
     Eigenvalues ---    0.16000   0.16000   0.16000   0.16000   0.16065
[...]
           A9         111.73174 112.20172 112.35594 111.81227 112.00327
           A10        105.82271 105.54786 105.49135 105.73304 105.66983
           A11        109.76920 109.91981 109.33439 109.55564 109.99084
           A12        109.76920 109.31304 109.75165 109.94948 109.37213
           A13        109.76920 109.72798 109.76936 109.78625 109.74518
           A14        109.76920 109.81308 109.73061 109.74728 109.79507
           A15        111.73174 111.76357 111.76369 111.77107 111.75976
           A16        105.82271 105.86090 105.91049 105.77477 105.80516
           A17        109.78851 109.78077 109.73645 109.77820 109.80156
           A18        109.78851 109.72353 109.76162 109.80753 109.76058
           A19        111.58993 111.61315 111.61136 111.60585 111.61042
           A20        111.16491 111.17611 111.17315 111.18025 111.17566
           A21        111.58993 111.59997 111.61632 111.60825 111.59612
           A22        107.44650 107.41039 107.41847 107.42105 107.40640
           A23        107.37841 107.38757 107.38422 107.38078 107.38488
           A24        107.44650 107.42571 107.40853 107.41640 107.43996
           D1          57.96940  93.39902 130.09744 166.20166-158.55048
           D2         -57.96943 -22.24480  14.50147  50.35252  85.67785
           D3         179.99999-144.00022-107.99998 -72.00000 -35.99983
           D4         -61.96266 -27.46745  10.69911  46.77188  80.67626
           D5        -177.90149-143.11126-104.89686 -69.07726 -35.09541
           D6          60.06793  95.13332 132.60169 168.57023-156.77309
           D7         177.90148-147.64432-109.22388 -73.09696 -39.27744
           D8          61.96265  96.71187 135.18015 171.05390-155.04911
           D9         -60.06794 -25.04355  12.67870  48.70139  83.27321
           D10        -57.95832 -56.46270 -58.93187 -59.10023 -56.20561
           D11         57.95831  59.50157  57.06871  56.75572  59.69088
           D12        180.00000-178.48732 179.07093 178.83281-178.26603
           D13         64.08337  66.10996  63.23131  62.81936  66.27284
           D14        180.00000-177.92577 179.23189 178.67531-177.83066
           D15        -57.95831 -55.91466 -58.76589 -59.24761 -55.78757
           D16        180.00000-178.47961 178.49198 178.60818-178.09633
           D17        -64.08337 -62.51534 -65.50744 -65.53587 -62.19984
           D18         57.95831  59.49577  56.49478  56.54121  59.84325
           D19         60.06793  60.13276  60.07625  59.97864  60.31048
           D20       -179.99999-179.95774 179.99280 179.89956-179.78723
           D21        -60.06793 -60.03767 -60.09992 -60.18380 -59.85199
           D22        -61.96265 -61.86153 -61.93986 -62.09295 -61.71756
           D23         57.96942  58.04797  57.97669  57.82797  58.18473
           D24        177.90149 177.96804 177.88397 177.74461 178.11998
           D25       -177.90148-177.80470-177.93935-177.97887-177.62663
           D26        -57.96941 -57.89519 -58.02280 -58.05794 -57.72434
           D27         61.96266  62.02487  61.88447  61.85870  62.21091
                           6         7         8         9        10
     Eigenvalues --    -0.03957  -0.04080  -0.04126  -0.03975  -0.04023
           R1           1.09587   1.09591   1.09573   1.09516   1.09547
           R2           1.09520   1.09630   1.09548   1.09525   1.09650
           R3           1.09514   1.09475   1.09602   1.09574   1.09463
           R4           1.53007   1.52810   1.52731   1.52995   1.52905
           R5           1.10709   1.10784   1.10707   1.10682   1.10788
           R6           1.10713   1.10681   1.10768   1.10745   1.10678
           R7           1.53605   1.53579   1.53578   1.53592   1.53576
           R8           1.10749   1.10740   1.10746   1.10752   1.10739
           R9           1.10739   1.10752   1.10737   1.10738   1.10757
           R10          1.52723   1.52707   1.52702   1.52717   1.52723
           R11          1.09578   1.09587   1.09587   1.09589   1.09582
           R12          1.09560   1.09562   1.09563   1.09565   1.09556
           R13          1.09592   1.09586   1.09586   1.09585   1.09586
           A1         106.84765 106.62281 107.70005 107.35929 106.35510
           A2         106.84882 107.75878 107.10834 106.99038 108.05341
           A3         112.45676 111.97344 111.53968 111.53083 111.33092
           A4         107.39848 107.47303 107.30950 106.89367 107.09953
           A5         111.48211 111.33832 111.84926 112.47398 112.00789
           A6         111.50088 111.41945 111.09482 111.29094 111.71472
           A7         109.84572 109.73490 109.84003 109.88266 109.74177
           A8         109.83741 109.86947 109.76477 109.78668 109.88022
           A9         112.44424 111.99762 111.81319 112.35041 112.20692
           A10        105.48034 105.65619 105.73954 105.50525 105.55296
           A11        109.49235 109.36633 109.94581 109.74598 109.29035
           A12        109.50406 110.01867 109.55687 109.34067 109.95132
           A13        109.74421 109.79161 109.74603 109.72787 109.79771
           A14        109.75535 109.73731 109.78690 109.77263 109.72640
           A15        111.75292 111.76638 111.76997 111.76035 111.76728
           A16        105.94473 105.81932 105.77132 105.91313 105.86544
           A17        109.73828 109.75554 109.81084 109.76048 109.73558
           A18        109.73903 109.79745 109.77995 109.73809 109.77740
           A19        111.61788 111.60767 111.61135 111.61552 111.60462
           A20        111.16858 111.18123 111.18278 111.17687 111.16593
           A21        111.60469 111.61123 111.60685 111.61739 111.59901
           A22        107.42198 107.41627 107.41045 107.40728 107.42792
           A23        107.38653 107.38080 107.37935 107.38246 107.38537
           A24        107.41310 107.41495 107.42132 107.41189 107.43149
           D1        -122.20216 -85.66022 -50.34631 -14.48925  22.29101
           D2         122.21169 158.58646-166.20060-130.09755 -93.34776
           D3           0.00024  36.00015  72.00009 108.00022 144.00029
           D4         117.81852 155.07766-171.03840-135.17415 -96.64907
           D5           2.23237  39.32435  73.10730 109.21754 147.71217
           D6        -119.97909 -83.26196 -48.69201 -12.68468  25.06021
           D7          -2.20810  35.10941  69.07634 104.90993 143.19654
           D8        -117.79425 -80.64390 -46.77795 -10.69838  27.55778
           D9         119.99429 156.76979-168.57726-132.60060 -95.09418
           D10        -58.03811 -59.71565 -56.73755 -57.05580 -59.57458
           D11         58.00361  56.19144  59.11388  58.94828  56.38544
           D12        179.98709 178.24561-178.81722-179.05242 178.40719
           D13         64.36406  62.15610  65.54833  65.51089  62.39236
           D14       -179.59421 178.06319-178.60024-178.48503 178.35239
           D15        -57.61073 -59.88263 -56.53134 -56.48573 -59.62587
           D16        179.56197 177.78287-178.65639-179.21139 177.81369
           D17        -64.39631 -66.31003 -62.80495 -63.20731 -66.22629
           D18         57.58717  55.74414  59.26394  58.79199  55.79546
           D19         60.05174  59.83303  60.25088  60.22306  59.85624
           D20        179.97402 179.74978-179.83622-179.86927 179.77531
           D21        -60.12386 -60.33274 -59.91255 -59.95448 -60.30486
           D22        -61.92646 -62.22641 -61.79159 -61.75481 -62.19768
           D23         57.99582  57.69033  58.12132  58.15285  57.72140
           D24        177.89794 177.60782 178.04499 178.06764 177.64123
           D25       -177.95539-178.14733-177.67624-177.75779-178.15132
           D26        -58.03311 -58.23058 -57.76333 -57.85012 -58.23224
           D27         61.86900  61.68690  62.16033  62.06467  61.68759
                          11
     Eigenvalues --    -0.04142
           R1           1.09564
           R2           1.09582
           R3           1.09589
           R4           1.52707
           R5           1.10743
           R6           1.10742
           R7           1.53569
           R8           1.10740
           R9           1.10737
           R10          1.52709
           R11          1.09586
           R12          1.09561
           R13          1.09585
           A1         107.41266
           A2         107.42192
           A3         111.18322
           A4         107.38018
           A5         111.61123
           A6         111.60313
           A7         109.78586
           A8         109.78907
           A9         111.76646
           A10        105.75828
           A11        109.78034
           A12        109.78458
           A13        109.77745
           A14        109.77921
           A15        111.76603
           A16        105.76667
           A17        109.78570
           A18        109.78996
           A19        111.60452
           A20        111.18074
           A21        111.60731
           A22        107.42240
           A23        107.37789
           A24        107.41985
           D1          57.93389
           D2         -57.92590
           D3        -179.99981
           D4         -61.98204
           D5        -177.84183
           D6          60.08425
           D7         177.85611
           D8          61.99632
           D9         -60.07759
           D10        -57.97324
           D11         57.88620
           D12        179.95980
           D13         64.09622
           D14        179.95566
           D15        -57.97074
           D16        179.95027
           D17        -64.19030
           D18         57.88330
           D19         60.07664
           D20        179.99872
           D21        -60.08055
           D22        -61.98559
           D23         57.93649
           D24        177.85722
           D25       -177.85594
           D26        -57.93386
           D27         61.98687
 Largest change from initial coordinates is atom    7       1.089 Angstoms.
 GradGradGradGradGradGradGradGradGradGradGradGradGradGradGradGradGradGrad

 Leave Link  103 at Fri Mar 29 17:15:08 2024, MaxMem=   134217728 cpu:               0.1 elap:               0.0
 (Enter /home/emanuele/chem_software/gaussian//gdv/l202.exe)
                          Input orientation:                          
 ---------------------------------------------------------------------
 Center     Atomic      Atomic             Coordinates (Angstroms)
 Number     Number       Type             X           Y           Z
 ---------------------------------------------------------------------
      1          6           0       -2.427829    0.487255   -0.146398
      2          1           0       -1.711840    0.030867   -0.838849
      3          1           0       -3.213777    0.956046   -0.749175
      4          1           0       -2.893511   -0.323327    0.425502
      5          6           0       -1.742049    1.499151    0.768865
      6          1           0       -1.249870    2.282224    0.159796
      7          1           0       -0.929420    1.002825    1.334256
      8          6           0       -2.734068    2.147392    1.745604
      9          1           0       -3.546146    2.644437    1.180083
     10          1           0       -3.226790    1.364288    2.354074
     11          6           0       -2.048089    3.158577    2.661536
     12          1           0       -1.581867    3.969186    2.090176
     13          1           0       -2.764092    3.614951    3.353934
     14          1           0       -1.262480    2.689095    3.264265
 ---------------------------------------------------------------------
                    Distance matrix (angstroms):
                    1          2          3          4          5
     1  C    0.000000
     2  H    1.095636   0.000000
     3  H    1.095818   1.766299   0.000000
     4  H    1.095890   1.766461   1.766135   0.000000
     5  C    1.527067   2.177502   2.182978   2.182931   0.000000
     6  H    2.168699   2.505856   2.538092   3.092095   1.107434
     7  H    2.168727   2.505847   3.092112   2.538142   1.107417
     8  C    2.535647   3.493425   2.805949   2.805805   1.535687
     9  H    2.768324   3.777766   2.585183   3.130967   2.176131
    10  H    2.767650   3.777280   3.130014   2.584282   2.176128
    11  C    3.894182   4.706200   4.224088   4.223534   2.535657
    12  H    4.223950   4.909830   4.450175   4.787193   2.805814
    13  H    4.706153   5.615364   4.909938   4.909429   3.493388
    14  H    4.223595   4.909546   4.787350   4.448991   2.805882
                    6          7          8          9         10
     6  H    0.000000
     7  H    1.766043   0.000000
     8  C    2.176192   2.176233   0.000000
     9  H    2.538714   3.092881   1.107402   0.000000
    10  H    3.092843   2.539408   1.107367   1.766076   0.000000
    11  C    2.768366   2.767735   1.527087   2.168690   2.168719
    12  H    2.585039   3.129920   2.182941   2.538035   3.092072
    13  H    3.777770   3.777343   2.177465   2.505819   2.505851
    14  H    3.131043   2.584448   2.182967   3.092077   2.538124
                   11         12         13         14
    11  C    0.000000
    12  H    1.095857   0.000000
    13  H    1.095606   1.766415   0.000000
    14  H    1.095845   1.766104   1.766377   0.000000
 Symmetry turned off by external request.
 Stoichiometry    C4H10
 Framework group  C1[X(C4H10)]
 Deg. of freedom    36
 Full point group                 C1      NOp   1
 Rotational constants (GHZ):          22.9459274           3.6614344           3.4267988
 Leave Link  202 at Fri Mar 29 17:15:08 2024, MaxMem=   134217728 cpu:               0.1 elap:               0.0
 (Enter /home/emanuele/chem_software/gaussian//gdv/l601.exe)
 Copying SCF densities to generalized density rwf, IOpCl= 0 IROHF=0.

 **********************************************************************

            Population analysis using the SCF Density.

 **********************************************************************

 Alpha  occ. eigenvalues --       -1.04023      -0.94333      -0.80334      -0.73962      -0.58825
 Alpha  occ. eigenvalues --       -0.53784      -0.52729      -0.51551      -0.47147      -0.44537
 Alpha  occ. eigenvalues --       -0.43918      -0.42045      -0.40894
 Alpha virt. eigenvalues --        0.15505       0.16811       0.18075       0.20453       0.21570
 Alpha virt. eigenvalues --        0.21892       0.22265       0.22701       0.23508       0.24290
 Alpha virt. eigenvalues --        0.24784       0.25517       0.25690
          Condensed to atoms (all electrons):
               1          2          3          4          5          6
     1  C    4.465168   0.000000   0.000000   0.000000   0.000000   0.000000
     2  H    0.000000   0.855981   0.000000   0.000000   0.000000   0.000000
     3  H    0.000000   0.000000   0.853780   0.000000   0.000000   0.000000
     4  H    0.000000   0.000000   0.000000   0.853768   0.000000   0.000000
     5  C    0.000000   0.000000   0.000000   0.000000   4.224274   0.000000
     6  H    0.000000   0.000000   0.000000   0.000000   0.000000   0.873525
     7  H    0.000000   0.000000   0.000000   0.000000   0.000000   0.000000
     8  C    0.000000   0.000000   0.000000   0.000000   0.000000   0.000000
     9  H    0.000000   0.000000   0.000000   0.000000   0.000000   0.000000
    10  H    0.000000   0.000000   0.000000   0.000000   0.000000   0.000000
    11  C    0.000000   0.000000   0.000000   0.000000   0.000000   0.000000
    12  H    0.000000   0.000000   0.000000   0.000000   0.000000   0.000000
    13  H    0.000000   0.000000   0.000000   0.000000   0.000000   0.000000
    14  H    0.000000   0.000000   0.000000   0.000000   0.000000   0.000000
               7          8          9         10         11         12
     1  C    0.000000   0.000000   0.000000   0.000000   0.000000   0.000000
     2  H    0.000000   0.000000   0.000000   0.000000   0.000000   0.000000
     3  H    0.000000   0.000000   0.000000   0.000000   0.000000   0.000000
     4  H    0.000000   0.000000   0.000000   0.000000   0.000000   0.000000
     5  C    0.000000   0.000000   0.000000   0.000000   0.000000   0.000000
     6  H    0.000000   0.000000   0.000000   0.000000   0.000000   0.000000
     7  H    0.873514   0.000000   0.000000   0.000000   0.000000   0.000000
     8  C    0.000000   4.224262   0.000000   0.000000   0.000000   0.000000
     9  H    0.000000   0.000000   0.873520   0.000000   0.000000   0.000000
    10  H    0.000000   0.000000   0.000000   0.873514   0.000000   0.000000
    11  C    0.000000   0.000000   0.000000   0.000000   4.465168   0.000000
    12  H    0.000000   0.000000   0.000000   0.000000   0.000000   0.853774
    13  H    0.000000   0.000000   0.000000   0.000000   0.000000   0.000000
    14  H    0.000000   0.000000   0.000000   0.000000   0.000000   0.000000
              13         14
     1  C    0.000000   0.000000
     2  H    0.000000   0.000000
     3  H    0.000000   0.000000
     4  H    0.000000   0.000000
     5  C    0.000000   0.000000
     6  H    0.000000   0.000000
     7  H    0.000000   0.000000
     8  C    0.000000   0.000000
     9  H    0.000000   0.000000
    10  H    0.000000   0.000000
    11  C    0.000000   0.000000
    12  H    0.000000   0.000000
    13  H    0.855979   0.000000
    14  H    0.000000   0.853774
 Mulliken charges:
               1
     1  C   -0.465168
     2  H    0.144019
     3  H    0.146220
     4  H    0.146232
     5  C   -0.224274
     6  H    0.126475
     7  H    0.126486
     8  C   -0.224262
     9  H    0.126480
    10  H    0.126486
    11  C   -0.465168
    12  H    0.146226
    13  H    0.144021
    14  H    0.146226
 Sum of Mulliken charges =  -0.00000
 Mulliken charges with hydrogens summed into heavy atoms:
               1
     1  C   -0.028696
     5  C    0.028687
     8  C    0.028704
    11  C   -0.028694
 Charge=             -0.0000 electrons
 Dipole moment (field-independent basis, Debye):
    X=              0.0001    Y=             -0.0000    Z=             -0.0002  Tot=              0.0002
 N-N= 9.111027169438D+01 E-N=-1.302642889665D+02  KE=-3.627744641842D+01
 Leave Link  601 at Fri Mar 29 17:15:08 2024, MaxMem=   134217728 cpu:               0.1 elap:               0.0
 (Enter /home/emanuele/chem_software/gaussian//gdv/l9999.exe)
 Unable to Open any file for archive entry.
 1\1\GINC-EMANUELE-XPS-13-9343\Scan\RPM6\ZDO\C4H10\EMANUELE\29-Mar-2024
 \0\\#p nosymm geom=nocrowd opt=(modredundant,maxcycle=100) PM6\\Title\
 \0,1\C,-2.4278289941,0.4872553981,-0.1463981295\H,-1.7118397424,0.0308
 673373,-0.8388486558\H,-3.2137767034,0.9560455437,-0.7491751572\H,-2.8
 935105649,-0.3233274443,0.4255024834\C,-1.7420491692,1.499150924,0.768
 8654915\H,-1.2498695917,2.282224097,0.1597958992\H,-0.9294204569,1.002
 8248915,1.3342563851\C,-2.7340677558,2.147391715,1.7456040511\H,-3.546
 1460993,2.6444371267,1.1800831228\H,-3.2267904563,1.3642883844,2.35407
 41704\C,-2.0480890587,3.1585768348,2.6615359028\H,-1.5818666684,3.9691
 857587,2.0901759716\H,-2.7640924534,3.6149506677,3.3539335574\H,-1.262
 4801679,2.6890951772,3.2642649072\\Version=ES64L-GDVRevJ.14\HF=-0.0414
 24,-0.0402294,-0.0397525,-0.0412564,-0.0407976,-0.0395664,-0.0407977,-
 0.0412564,-0.0397525,-0.0402298,-0.0414243\RMSD=1.123e-09,5.924e-09,7.
 737e-09,5.717e-09,3.768e-09,7.512e-09,8.216e-09,1.517e-09,7.676e-09,7.
 624e-09,4.700e-09\PG=C01 [X(C4H10)]\\@
 The archive entry for this job was punched.


 ONE THORN OF EXPERIENCE IS WORTH A WHOLE WILDERNESS OF
 WARNING....  LOWELL - AMONG MY BOOKS
 Job cpu time:       0 days  0 hours  2 minutes 40.0 seconds.
 Elapsed time:       0 days  0 hours  0 minutes 40.8 seconds.
 File lengths (MBytes):  RWF=      6 Int=      0 D2E=      0 Chk=      3 Scr=      1
 Normal termination of Gaussian DV at Fri Mar 29 17:15:08 2024.
