 Entering Gaussian System, Link 0=g09
 Input=test.com
 Output=test.log
 Initial command:
 /home/emanuele/chem_software/gaussian//gdv/l1.exe "/home/emanuele/chem_software/gaussian/scratch/Gau-23056.inp" -scrdir="/home/emanuele/chem_software/gaussian/scratch/"
 Entering Link 1 = /home/emanuele/chem_software/gaussian//gdv/l1.exe PID=     23058.
  
 Copyright (c) 1988-2020, Gaussian, Inc.  All Rights Reserved.
  
 This is the private, development version of
 the Gaussian(R) DV system of programs. It is based on
 the Gaussian(R) 16 system (copyright 2016, Gaussian, Inc.),
 the Gaussian(R) 09 system (copyright 2009, Gaussian, Inc.),
 the Gaussian(R) 03 system (copyright 2003, Gaussian, Inc.),
 the Gaussian(R) 98 system (copyright 1998, Gaussian, Inc.),
 the Gaussian(R) 94 system (copyright 1995, Gaussian, Inc.),
 the Gaussian 92(TM) system (copyright 1992, Gaussian, Inc.),
 the Gaussian 90(TM) system (copyright 1990, Gaussian, Inc.),
 the Gaussian 88(TM) system (copyright 1988, Gaussian, Inc.),
 the Gaussian 86(TM) system (copyright 1986, Carnegie Mellon
 University), and the Gaussian 82(TM) system (copyright 1983,
 Carnegie Mellon University). Gaussian is a federally registered
 trademark of Gaussian, Inc.
  
 This software contains proprietary and confidential information,
 including trade secrets, belonging to Gaussian, Inc.
  
 This software is provided under written license and may be
 used, copied, transmitted, or stored only in accord with that
 written license.
  
 The following legend is applicable only to US Government
 contracts under FAR:
  
                    RESTRICTED RIGHTS LEGEND
  
 Use, reproduction and disclosure by the US Government is
 subject to restrictions as set forth in subparagraphs (a)
 and (c) of the Commercial Computer Software - Restricted
 Rights clause in FAR 52.227-19.
  
 Gaussian, Inc.
 340 Quinnipiac St., Bldg. 40, Wallingford CT 06492
  
  
 ---------------------------------------------------------------
 Warning -- This program may not be used in any manner that
 competes with the business of Gaussian, Inc. or will provide
 assistance to any competitor of Gaussian, Inc.  The licensee
 of this program is prohibited from giving any competitor of
 Gaussian, Inc. access to this program.  By using this program,
 the user acknowledges that Gaussian, Inc. is engaged in the
 business of creating and licensing software in the field of
 computational chemistry and represents and warrants to the
 licensee that it is not a competitor of Gaussian, Inc. and that
 it will not use this program in any manner prohibited above.
 ---------------------------------------------------------------
  

 Cite this work as:
 Gaussian Development Version, Revision J.14,
 M. J. Frisch, G. W. Trucks, H. B. Schlegel, G. E. Scuseria, 
 M. A. Robb, J. R. Cheeseman, G. Scalmani, V. Barone, 
 G. A. Petersson, H. Nakatsuji, X. Li, A. V. Marenich, M. Caricato, 
 J. Bloino, B. G. Janesko, J. Zheng, R. Gomperts, B. Mennucci, 
 H. P. Hratchian, J. V. Ortiz, A. F. Izmaylov, J. L. Sonnenberg, 
 D. Williams-Young, F. Ding, F. Lipparini, F. Egidi, J. Goings, 
 B. Peng, A. Petrone, T. Henderson, D. Ranasinghe, V. G. Zakrzewski, 
 J. Gao, N. Rega, G. Zheng, W. Liang, M. Hada, M. Ehara, K. Toyota, 
 R. Fukuda, J. Hasegawa, M. Ishida, T. Nakajima, Y. Honda, O. Kitao, 
 H. Nakai, T. Vreven, K. Throssell, J. A. Montgomery, Jr., 
 J. E. Peralta, F. Ogliaro, M. J. Bearpark, J. J. Heyd, 
 E. N. Brothers, K. N. Kudin, V. N. Staroverov, T. A. Keith, 
 R. Kobayashi, J. Normand, K. Raghavachari, A. P. Rendell, 
 J. C. Burant, S. S. Iyengar, J. Tomasi, M. Cossi, J. M. Millam, 
 M. Klene, C. Adamo, R. Cammi, J. W. Ochterski, R. L. Martin, 
 K. Morokuma, O. Farkas, J. B. Foresman, and D. J. Fox, 
 Gaussian, Inc., Wallingford CT, 2020.
 
 ******************************************
 Gaussian DV:  ES64L-GDVRevJ.14 29-Dec-2020
                19-Jan-2026 
 ******************************************
 %mem=1GB
 %nprocshared=1
 Will use up to    1 processors via shared memory.
 %chk=test.chk
 ---------------------------------------------
 #p Amber=(SoftOnly,Print) geom=nocrowd nosymm
 ---------------------------------------------
 1/37=210000000,38=1,56=2,64=303,172=1/1;
 2/12=1,15=1,40=1/2;
 3/5=30,11=9,25=1,30=1,41=10030000,43=2/1;
 4/20=11,24=3,119=11/2;
 99/5=1,9=1/99;
 Leave Link    1 at Mon Jan 19 10:49:06 2026, MaxMem=   134217728 cpu:               0.0 elap:               0.0
 (Enter /home/emanuele/chem_software/gaussian//gdv/l101.exe)
 -----
 Title
 -----
 Symbolic Z-matrix:
 Charge =  0 Multiplicity = 1
 C-C0--0.267532       -2.41709   0.42623  -0.04223 
 H-H1-+0.083821       -2.05476  -0.60599  -0.10392 
 H-H2-+0.077363       -1.9186    0.99719  -0.83591 
 H-H3-+0.077360       -3.4896    0.41115  -0.27287 
 C-C4--0.092257       -2.14554   1.02524   1.33834 
 H-H5-+0.060623       -1.04461   0.9137    1.2839 
 H-H6-+0.060622       -2.46443   0.56325   2.29317 
 C-C7--0.092258       -2.51695   2.51571   1.35966 
 H-H8-+0.060627       -2.48756   2.79826   0.28279 
 H-H9-+0.060618       -3.624     2.52259   1.39071 
 C-C10--0.267532      -1.91088   3.32791   2.50278 
 H-H11-+0.077330      -0.81706   3.36148   2.43871 
 H-H12-+0.083821      -2.27187   4.3623    2.48817 
 H-H13-+0.077394      -2.1689    2.90397   3.48036 
 
 ITRead=  0  0  0  0  0  0  0  0  0  0  0  0  0  0
 MicOpt= -1 -1 -1 -1 -1 -1 -1 -1 -1 -1 -1 -1 -1 -1
 NAtoms=     14 NQM=       14 NQMF=       0 NMMI=      0 NMMIF=      0
                NMic=       0 NMicF=      0.
                    Isotopes and Nuclear Properties:
 (Nuclear quadrupole moments (NQMom) in fm**2, nuclear magnetic moments (NMagM)
  in nuclear magnetons)

  Atom         1           2           3           4           5           6           7           8           9          10
 IAtWgt=          12           1           1           1          12           1           1          12           1           1
 AtmWgt=  12.0000000   1.0078250   1.0078250   1.0078250  12.0000000   1.0078250   1.0078250  12.0000000   1.0078250   1.0078250
 NucSpn=           0           1           1           1           0           1           1           0           1           1
 AtZEff=  -0.0000000  -0.0000000  -0.0000000  -0.0000000  -0.0000000  -0.0000000  -0.0000000  -0.0000000  -0.0000000  -0.0000000
 NQMom=    0.0000000   0.0000000   0.0000000   0.0000000   0.0000000   0.0000000   0.0000000   0.0000000   0.0000000   0.0000000
 NMagM=    0.0000000   2.7928460   2.7928460   2.7928460   0.0000000   2.7928460   2.7928460   0.0000000   2.7928460   2.7928460
 AtZNuc=   6.0000000   1.0000000   1.0000000   1.0000000   6.0000000   1.0000000   1.0000000   6.0000000   1.0000000   1.0000000

  Atom        11          12          13          14
 IAtWgt=          12           1           1           1
 AtmWgt=  12.0000000   1.0078250   1.0078250   1.0078250
 NucSpn=           0           1           1           1
 AtZEff=  -0.0000000  -0.0000000  -0.0000000  -0.0000000
 NQMom=    0.0000000   0.0000000   0.0000000   0.0000000
 NMagM=    0.0000000   2.7928460   2.7928460   2.7928460
 AtZNuc=   6.0000000   1.0000000   1.0000000   1.0000000
 Generating MM parameters.
 Read MM parameter file:
 Define C0         1
 Define C4         2
 Define H6         3
 Define C7         4
 Define H8         5
 Define H9         6
 Define C10        7
 Define H11        8
 Define H12        9
 Define H13       10
 Include all MM classes
 Bondstretch undefined between atoms      1      2 C0-H1
 Bondstretch undefined between atoms      1      3 C0-H2
 Bondstretch undefined between atoms      1      4 C0-H3
 Bondstretch undefined between atoms      1      5 C0-C4
 Bondstretch undefined between atoms      5      6 C4-H5
 Bondstretch undefined between atoms      5      7 C4-H6
 Bondstretch undefined between atoms      5      8 C4-C7
 Bondstretch undefined between atoms      8      9 C7-H8
 Bondstretch undefined between atoms      8     10 C7-H9
 Bondstretch undefined between atoms      8     11 C7-C10
 Bondstretch undefined between atoms     11     12 C10-H11
 Bondstretch undefined between atoms     11     13 C10-H12
 Bondstretch undefined between atoms     11     14 C10-H13
 Angle bend  undefined between atoms      1      5      6 C0-C4-H5
 Angle bend  undefined between atoms      1      5      7 C0-C4-H6
 Angle bend  undefined between atoms      1      5      8 C0-C4-C7
 Angle bend  undefined between atoms      2      1      3 H1-C0-H2
 Angle bend  undefined between atoms      2      1      4 H1-C0-H3
 Angle bend  undefined between atoms      2      1      5 H1-C0-C4
 Angle bend  undefined between atoms      3      1      4 H2-C0-H3
 Angle bend  undefined between atoms      3      1      5 H2-C0-C4
 Angle bend  undefined between atoms      4      1      5 H3-C0-C4
 Angle bend  undefined between atoms      5      8      9 C4-C7-H8
 Angle bend  undefined between atoms      5      8     10 C4-C7-H9
 Angle bend  undefined between atoms      5      8     11 C4-C7-C10
 Angle bend  undefined between atoms      6      5      7 H5-C4-H6
 Angle bend  undefined between atoms      6      5      8 H5-C4-C7
 Angle bend  undefined between atoms      7      5      8 H6-C4-C7
 Angle bend  undefined between atoms      8     11     12 C7-C10-H11
 Angle bend  undefined between atoms      8     11     13 C7-C10-H12
 Angle bend  undefined between atoms      8     11     14 C7-C10-H13
 Angle bend  undefined between atoms      9      8     10 H8-C7-H9
 Angle bend  undefined between atoms      9      8     11 H8-C7-C10
 Angle bend  undefined between atoms     10      8     11 H9-C7-C10
 Angle bend  undefined between atoms     12     11     13 H11-C10-H12
 Angle bend  undefined between atoms     12     11     14 H11-C10-H13
 Angle bend  undefined between atoms     13     11     14 H12-C10-H13
 MM function not complete
 Error termination via Lnk1e in /home/emanuele/chem_software/gaussian//gdv/l101.exe at Mon Jan 19 10:49:06 2026.
 Job cpu time:       0 days  0 hours  0 minutes  0.3 seconds.
 Elapsed time:       0 days  0 hours  0 minutes  0.3 seconds.
 File lengths (MBytes):  RWF=      6 Int=      0 D2E=      0 Chk=      1 Scr=      1
