 Entering Gaussian System, Link 0=/home/emanuele/chem_software/gaussian//g09/g09
 Input=0_mm_100.gjf
 Output=0_mm_100.log
 Initial command:
 /home/emanuele/chem_software/gaussian//gdv/l1.exe "/home/emanuele/chem_software/gaussian/scratch/Gau-13815.inp" -scrdir="/home/emanuele/chem_software/gaussian/scratch/"
 Entering Link 1 = /home/emanuele/chem_software/gaussian//gdv/l1.exe PID=     13817.
  
 Copyright (c) 1988-2020, Gaussian, Inc.  All Rights Reserved.
  
 This is the private, development version of
 the Gaussian(R) DV system of programs. It is based on
 the Gaussian(R) 16 system (copyright 2016, Gaussian, Inc.),
 the Gaussian(R) 09 system (copyright 2009, Gaussian, Inc.),
 the Gaussian(R) 03 system (copyright 2003, Gaussian, Inc.),
 the Gaussian(R) 98 system (copyright 1998, Gaussian, Inc.),
 the Gaussian(R) 94 system (copyright 1995, Gaussian, Inc.),
 the Gaussian 92(TM) system (copyright 1992, Gaussian, Inc.),
 the Gaussian 90(TM) system (copyright 1990, Gaussian, Inc.),
 the Gaussian 88(TM) system (copyright 1988, Gaussian, Inc.),
 the Gaussian 86(TM) system (copyright 1986, Carnegie Mellon
 University), and the Gaussian 82(TM) system (copyright 1983,
 Carnegie Mellon University). Gaussian is a federally registered
 trademark of Gaussian, Inc.
  
 This software contains proprietary and confidential information,
 including trade secrets, belonging to Gaussian, Inc.
  
 This software is provided under written license and may be
 used, copied, transmitted, or stored only in accord with that
 written license.
  
 The following legend is applicable only to US Government
 contracts under FAR:
  
                    RESTRICTED RIGHTS LEGEND
  
 Use, reproduction and disclosure by the US Government is
 subject to restrictions as set forth in subparagraphs (a)
 and (c) of the Commercial Computer Software - Restricted
 Rights clause in FAR 52.227-19.
  
 Gaussian, Inc.
 340 Quinnipiac St., Bldg. 40, Wallingford CT 06492
  
  
 ---------------------------------------------------------------
 Warning -- This program may not be used in any manner that
 competes with the business of Gaussian, Inc. or will provide
 assistance to any competitor of Gaussian, Inc.  The licensee
 of this program is prohibited from giving any competitor of
 Gaussian, Inc. access to this program.  By using this program,
 the user acknowledges that Gaussian, Inc. is engaged in the
 business of creating and licensing software in the field of
 computational chemistry and represents and warrants to the
 licensee that it is not a competitor of Gaussian, Inc. and that
 it will not use this program in any manner prohibited above.
 ---------------------------------------------------------------
  

 Cite this work as:
 Gaussian Development Version, Revision J.14,
 M. J. Frisch, G. W. Trucks, H. B. Schlegel, G. E. Scuseria, 
 M. A. Robb, J. R. Cheeseman, G. Scalmani, V. Barone, 
 G. A. Petersson, H. Nakatsuji, X. Li, A. V. Marenich, M. Caricato, 
 J. Bloino, B. G. Janesko, J. Zheng, R. Gomperts, B. Mennucci, 
 H. P. Hratchian, J. V. Ortiz, A. F. Izmaylov, J. L. Sonnenberg, 
 D. Williams-Young, F. Ding, F. Lipparini, F. Egidi, J. Goings, 
 B. Peng, A. Petrone, T. Henderson, D. Ranasinghe, V. G. Zakrzewski, 
 J. Gao, N. Rega, G. Zheng, W. Liang, M. Hada, M. Ehara, K. Toyota, 
 R. Fukuda, J. Hasegawa, M. Ishida, T. Nakajima, Y. Honda, O. Kitao, 
 H. Nakai, T. Vreven, K. Throssell, J. A. Montgomery, Jr., 
 J. E. Peralta, F. Ogliaro, M. J. Bearpark, J. J. Heyd, 
 E. N. Brothers, K. N. Kudin, V. N. Staroverov, T. A. Keith, 
 R. Kobayashi, J. Normand, K. Raghavachari, A. P. Rendell, 
 J. C. Burant, S. S. Iyengar, J. Tomasi, M. Cossi, J. M. Millam, 
 M. Klene, C. Adamo, R. Cammi, J. W. Ochterski, R. L. Martin, 
 K. Morokuma, O. Farkas, J. B. Foresman, and D. J. Fox, 
 Gaussian, Inc., Wallingford CT, 2020.
 
 ******************************************
 Gaussian DV:  ES64L-GDVRevJ.14 29-Dec-2020
                29-Nov-2023 
 ******************************************
 %mem=1GB
 %nprocshared=1
 Will use up to    1 processors via shared memory.
 %chk=0_mm_100.chk
 -----------------------------------------------------------------
 #p Amber=(SoftFirst,Print) geom=nocrowd nosymm opt=(maxcycle=300)
 -----------------------------------------------------------------
 1/6=300,10=10,18=4000020,19=15,37=210000000,38=1,56=2,64=203/1,3;
 2/9=110,12=1,15=1,40=1/2;
 3/5=30,11=9,25=1,30=1,41=10030000,43=2,71=1/1;
 4/20=11,22=1001,24=3,119=11/2;
 7/30=1,44=-1/16;
 1/6=300,10=10,18=4000020,19=15,64=203/3(2);
 2/9=110,12=1,15=1/2;
 99//99;
 2/9=110,12=1,15=1/2;
 3/5=30,11=9,25=1,30=1,41=10030000,43=2,71=1/1;
 4/16=2,20=11,22=1001,24=3,119=11/2;
 7/30=1,44=-1/16;
 1/6=300,10=10,18=4000020,19=15,64=203/3(-4);
 2/9=110,12=1,15=1/2;
 99/9=10/99;
 Leave Link    1 at Wed Nov 29 12:05:20 2023, MaxMem=   134217728 cpu:               0.0 elap:               0.0
 (Enter /home/emanuele/chem_software/gaussian//gdv/l101.exe)
 -----
 Title
 -----
 Symbolic Z-matrix:
 Charge =  0 Multiplicity = 1
 C-C-+0.299289        -0.51998  -0.03949   0.1705 
 O-OH--0.289770       -1.31128   0.55582  -0.78048 
 C-CT--0.035454        0.85722  -0.31808  -0.40015 
 H-HC-+0.090426        0.78048  -1.1607   -1.13364 
 H-HC-+0.095387        1.20545   0.55989  -0.99885 
 N-N3--0.336253        1.86942  -0.65712   0.61619 
 H-H-+0.142619         2.00728   0.1134    1.26594 
 H-H-+0.128282         1.57769  -1.46399   1.16521 
 O-O2--0.308037       -0.9523   -0.26256   1.27551 
 H-HO-+0.213510       -2.23196   0.74925  -0.45528 
 
 ITRead=  3  3  3  3  3  3  3  3  3  3
 MicOpt=  0  0  0  0  0  0  0  0  0  0
 NAtoms=     10 NQM=        0 NQMF=       0 NMMI=      0 NMMIF=      0
                NMic=      10 NMicF=      0.
                    Isotopes and Nuclear Properties:
 (Nuclear quadrupole moments (NQMom) in fm**2, nuclear magnetic moments (NMagM)
  in nuclear magnetons)

  Atom         1           2           3           4           5           6           7           8           9          10
 IAtWgt=          12          16          12           1           1          14           1           1          16           1
 AtmWgt=  12.0000000  15.9949146  12.0000000   1.0078250   1.0078250  14.0030740   1.0078250   1.0078250  15.9949146   1.0078250
 NucSpn=           0           0           0           1           1           2           1           1           0           1
 AtZEff=  -0.0000000  -0.0000000  -0.0000000  -0.0000000  -0.0000000  -0.0000000  -0.0000000  -0.0000000  -0.0000000  -0.0000000
 NQMom=    0.0000000   0.0000000   0.0000000   0.0000000   0.0000000   2.0440000   0.0000000   0.0000000   0.0000000   0.0000000
 NMagM=    0.0000000   0.0000000   0.0000000   2.7928460   2.7928460   0.4037610   2.7928460   2.7928460   0.0000000   2.7928460
 AtZNuc=   6.0000000   8.0000000   6.0000000   1.0000000   1.0000000   7.0000000   1.0000000   1.0000000   8.0000000   1.0000000
 Generating MM parameters.
 I=    1 IAn=  6 Valence= 5.
          JB=  1 J=    2 IAn=  8 IBT=12 Dist= 1.37D+00
          JB=  2 J=    3 IAn=  6 IBT= 1 Dist= 1.52D+00
          JB=  3 J=    9 IAn=  8 IBT= 2 Dist= 1.21D+00
 I=    2 IAn=  8 Valence= 3.
          JB=  1 J=    1 IAn=  6 IBT=12 Dist= 1.37D+00
          JB=  2 J=   10 IAn=  1 IBT= 1 Dist= 9.95D-01
 Read MM parameter file:
 Include all MM classes

 MM sanity checks:
 All charges sum to:               -0.00000100
 Charges of atoms sum to:          -0.00000100
 WARNING -- The following centers have non-zero partial charges, but zero Vanderwaals
 parameters.  These centers can collapse onto other centers with non-zero charge.
   Center  Layer   Charge
     10 H    R    0.213510
 MMInit generated parameter data with length LenPar=        2069.
 MM Charge=             -0.0000 electrons
 MM Dipole moment (Debye):
    X=              0.2708    Y=              0.3700    Z=             -1.3146  Tot=              1.3923
 MM Quadrupole moment (Debye-Ang):
   XX=              1.2172   YY=              1.3895   ZZ=             -0.6914
   XY=             -0.3620   XZ=              1.4229   YZ=              0.7346
 MM Traceless Quadrupole moment (Debye-Ang):
   XX=              0.5788   YY=              0.7511   ZZ=             -1.3298
   XY=             -0.3620   XZ=              1.4229   YZ=              0.7346
 MM Octapole moment (Debye-Ang**2):
  XXX=             -8.8788  YYY=             -1.8483  ZZZ=             -1.5900  XYY=              0.7873
  XXY=              4.7167  XXZ=             -1.2150  XZZ=              6.2483  YZZ=             -0.7622
  YYZ=              0.2641  XYZ=             -0.5975
 MM Hexadecapole moment (Debye-Ang**3):
 XXXX=             16.4732 YYYY=              3.5443 ZZZZ=             -0.5560 XXXY=             -2.8635
 XXXZ=              6.6761 YYYX=             -3.2948 YYYZ=             -1.2574 ZZZX=              4.8548
 ZZZY=              0.5553 XXYY=              3.4746 XXZZ=              2.7763 YYZZ=              2.1264
 XXYZ=             -0.2326 YYXZ=              1.2307 ZZXY=             -1.4573
 Leave Link  101 at Wed Nov 29 12:05:20 2023, MaxMem=   134217728 cpu:               0.2 elap:               0.2
 (Enter /home/emanuele/chem_software/gaussian//gdv/l103.exe)

 GradGradGradGradGradGradGradGradGradGradGradGradGradGradGradGradGradGrad
 Berny optimization.
 Initialization pass.
 No Z-matrix variables, so optimization will use Cartesian coordinates.
 Trust Radius=1.00D-01 FncErr=1.00D-07 GrdErr=1.00D-07 EigMax=2.50D+02 EigMin=1.00D-04
 Number of steps in this run=      2 maximum allowed number of steps=      2.
 GradGradGradGradGradGradGradGradGradGradGradGradGradGradGradGradGradGrad

 Leave Link  103 at Wed Nov 29 12:05:20 2023, MaxMem=   134217728 cpu:               0.0 elap:               0.0
 (Enter /home/emanuele/chem_software/gaussian//gdv/l202.exe)
                          Input orientation:                          
 ---------------------------------------------------------------------
 Center     Atomic      Atomic             Coordinates (Angstroms)
 Number     Number       Type             X           Y           Z
 ---------------------------------------------------------------------
      1          6    20001002       -0.519982   -0.039489    0.170503
      2          8    20001022       -1.311279    0.555815   -0.780477
      3          6    20001001        0.857223   -0.318082   -0.400150
      4          1    20001034        0.780481   -1.160704   -1.133636
      5          1    20001034        1.205451    0.559891   -0.998852
      6          7    20001020        1.869423   -0.657122    0.616188
      7          1    20001029        2.007278    0.113397    1.265940
      8          1    20001029        1.577692   -1.463993    1.165208
      9          8    20001025       -0.952304   -0.262555    1.275506
     10          1    20001031       -2.231957    0.749254   -0.455281
 ---------------------------------------------------------------------
                    Distance matrix (angstroms):
                    1          2          3          4          5
     1  C    0.000000
     2  O    1.372917   0.000000
     3  C    1.516559   2.368701   0.000000
     4  H    2.156178   2.728849   1.119778   0.000000
     5  H    2.168817   2.526190   1.118277   1.777418   0.000000
     6  N    2.507860   3.679505   1.473920   2.121620   2.128458
     7  H    2.758695   3.923822   2.069941   2.980995   2.443679
     8  H    2.723763   4.026347   2.069428   2.451982   2.986273
     9  O    1.207349   2.241798   2.466839   3.100513   3.241146
    10  H    1.986097   0.995399   3.268834   3.630825   3.485269
                    6          7          8          9         10
     6  N    0.000000
     7  H    1.017291   0.000000
     8  H    1.018612   1.637941   0.000000
     9  O    2.924470   2.983380   2.802945   0.000000
    10  H    4.466235   4.619310   4.694451   2.378422   0.000000
 Symmetry turned off by external request.
 Stoichiometry    C2H5NO2
 Framework group  C1[X(C2H5NO2)]
 Deg. of freedom    24
 Full point group                 C1      NOp   1
 Rotational constants (GHZ):          10.0547537           3.8130845           2.8730171
 Leave Link  202 at Wed Nov 29 12:05:20 2023, MaxMem=   134217728 cpu:               0.0 elap:               0.0
 (Enter /home/emanuele/chem_software/gaussian//gdv/l301.exe)
 Standard basis: Dummy (5D, 7F)
    10 basis functions,    10 primitive gaussians,    10 cartesian basis functions
     7 alpha electrons        7 beta electrons
       nuclear repulsion energy        22.5349202041 Hartrees.
 IExCor=       0 DFT=F Ex=HF Corr=None N6=None ScaHFX=  1.000000
 ScaDFX=  1.000000  1.000000  1.000000  1.000000  1.000000  0.000000
 ScaDFX=  0.000000  0.000000  0.000000  0.000000  0.000000  0.000000
 IRadAn=      5 IRanWt=     -1 IRanGd=            0 ICorTp=0 IEmpDi=  4
 NAtoms=   10 NActive=   10 NUniq=   10 SFac= 1.00D+00 NAtFMM=   60 NAOKFM=F Big=F
 Integral buffers will be    131072 words long.
 Raffenetti 1 integral format.
 Two-electron integral symmetry is turned off.
 Leave Link  301 at Wed Nov 29 12:05:20 2023, MaxMem=   134217728 cpu:               0.0 elap:               0.0
 (Enter /home/emanuele/chem_software/gaussian//gdv/l402.exe)
 AMBER calculation of energy and first derivatives.
 NRF= 0 NRA=   0 NVA=  10 HaveQM=F NVQ=       0
 Convergence limit is  0.750E-04 MaxStp= 10000 StMxLn= 3.00D-04 StpMin= 1.00D-06.
 Convergence criteria             0.00011250 0.00007500 0.00045000 0.00030000
  Step  NS  ND Rises OKQ   Scale  Max. Force  RMS Force Max. Disp.  RMS Disp.     Energy   Flag
     1   0   0   F    T  1.00D+00 0.02863902 0.01113218 0.02863902 0.01113218    0.0701341 ----
     2   0   0   F    F  3.38D-01 0.02863902 0.01113218 0.00968059 0.00376291    0.0678112 ----
     3   0   0   F    T  2.78D+00 0.01181851 0.00490831 0.03651269 0.01489509    0.0676535 ----
     4   0   0   F    F -1.61D-01 0.01181851 0.00490831 0.00586059 0.00239078    0.0668419 ----
     5   0   0   F    T  1.00D+00 0.02464432 0.00723370 0.03109501 0.01372261    0.0668112 ----
     6   0   0   F    F  5.84D-01 0.02464432 0.00723370 0.01816703 0.00801733    0.0657325 ----
     7   0   0   F    T  4.30D+00 0.00824467 0.00368001 0.04253536 0.02173995    0.0655617 ----
     8   0   0   T    F  4.32D-01 0.00824467 0.00368001 0.01838319 0.00939570    0.0658360 ----
     9   0   0   F    T  2.39D+00 0.00921679 0.00274450 0.01821794 0.00939570    0.0651840 ----
    10   0   0   F    F  3.47D-01 0.00921679 0.00274450 0.00632062 0.00325979    0.0648450 ----
    11   0   0   F    T  2.82D+00 0.00799579 0.00263067 0.02793274 0.01265549    0.0648209 ----
    12   0   0   F    F -4.59D-01 0.00799579 0.00263067 0.01282543 0.00581082    0.0647764 ----
    13   0   0   F    T  1.26D+00 0.00889784 0.00268992 0.01471606 0.00684467    0.0646625 ----
    14   0   0   F    F  2.98D-01 0.00889784 0.00268992 0.00438546 0.00203975    0.0644931 ----
    15   0   0   F    T  1.94D+00 0.00575836 0.00231780 0.02061575 0.00888442    0.0644835 ----
    16   0   0   F    F  2.32D+00 0.00575836 0.00231780 0.04782124 0.02060871    0.0642175 ----
    17   0   0   F    F -2.13D-02 0.00575836 0.00231780 0.00101670 0.00043815    0.0639642 ----
    18   0   0   F    T  2.19D+00 0.00923101 0.00396967 0.06101512 0.02905498    0.0639641 ----
    19   0   0   F    F  9.74D-01 0.00923101 0.00396967 0.05943937 0.02830462    0.0630613 ----
    20   0   0   F    F -3.43D-02 0.00923101 0.00396967 0.00203872 0.00097082    0.0626856 ----
    21   0   0   F    T  1.21D+00 0.01954041 0.00816411 0.11867753 0.05638878    0.0626850 ----
    22   0   0   F    F -4.32D-01 0.01954041 0.00816411 0.05127131 0.02436120    0.0625753 ----
    23   0   0   F    T  2.55D+00 0.02448008 0.00843178 0.06910281 0.03202758    0.0618967 ----
    24   0   0   F    F -1.04D-01 0.02448008 0.00843178 0.00719181 0.00333324    0.0595498 ----
    25   0   0   F    T  2.37D+00 0.01884187 0.00749493 0.08023671 0.02869434    0.0595195 ----
    26   0   0   F    F -1.81D-01 0.01884187 0.00749493 0.01449488 0.00518367    0.0579341 ----
    27   0   0   F    T  2.12D+00 0.01950537 0.00637543 0.06422680 0.02351067    0.0578491 ----
    28   0   0   F    F -4.33D-01 0.01950537 0.00637543 0.02781523 0.01018196    0.0575592 ----
    29   0   0   F    T  1.36D+00 0.01572244 0.00567756 0.03407281 0.01332871    0.0571061 ----
    30   0   0   F    F  1.60D+00 0.01572244 0.00567756 0.05450389 0.02132100    0.0560529 ----
    31   0   0   F    F -1.18D-02 0.01572244 0.00567756 0.00064542 0.00025248    0.0554289 ---+
    32   0   0   F    T  4.05D+00 0.01693205 0.00512136 0.09189640 0.03439723    0.0554289 ----
    33   0   0   F    F -4.96D-01 0.01693205 0.00512136 0.04555038 0.01704971    0.0554146 ----
    34   0   0   F    T  2.77D+00 0.00973119 0.00388154 0.04681751 0.01734752    0.0546226 ----
    35   0   0   F    F -4.36D-01 0.00973119 0.00388154 0.02040570 0.00756102    0.0544807 ----
    36   0   0   F    T  1.15D+00 0.01359699 0.00425125 0.02699609 0.00978650    0.0542692 ----
    37   0   0   F    F  6.87D-01 0.01359699 0.00425125 0.01853657 0.00671979    0.0538325 ----
    38   0   0   F    T  4.11D+00 0.00638588 0.00253847 0.03709054 0.01650629    0.0537459 ----
    39   0   0   T    F  4.72D-01 0.00638588 0.00253847 0.01751535 0.00779480    0.0537944 ----
    40   0   0   F    T  2.47D+00 0.00452558 0.00199590 0.01952305 0.00779480    0.0535579 ----
    41   0   0   F    F  1.27D+00 0.00452558 0.00199590 0.02481889 0.00990923    0.0533288 ----
    42   0   0   F    T  1.42D+00 0.01110481 0.00386039 0.04491287 0.01770403    0.0532251 ----
    43   0   0   F    F  3.19D-02 0.01110481 0.00386039 0.00143110 0.00056412    0.0528978 ----
    44   0   0   F    T  1.89D+00 0.00874207 0.00326389 0.04470619 0.01826815    0.0528975 ----
    45   0   0   F    F -1.18D-01 0.00874207 0.00326389 0.00525475 0.00214723    0.0526354 ----
    46   0   0   F    T  4.11D+00 0.00402306 0.00196549 0.04768785 0.01612092    0.0526306 ----
    47   0   0   F    F  5.01D-02 0.00402306 0.00196549 0.00238873 0.00080751    0.0523816 ----
    48   0   0   F    T  3.13D+00 0.00559004 0.00220039 0.05108772 0.01692843    0.0523810 ----
    49   0   0   F    F -4.50D-01 0.00559004 0.00220039 0.02299572 0.00761986    0.0523395 ----
    50   0   0   F    T  2.00D+00 0.00610185 0.00193218 0.03041680 0.00930856    0.0522562 ----
    51   0   0   F    F -4.13D-01 0.00610185 0.00193218 0.01256130 0.00384418    0.0522230 ----
    52   0   0   F    T  1.91D+00 0.00287701 0.00141810 0.02100180 0.00546438    0.0521902 ----
    53   0   0   F    F  8.62D-01 0.00287701 0.00141810 0.01809664 0.00470850    0.0521063 ----
    54   0   0   F    T  2.85D+00 0.00400235 0.00151497 0.03928431 0.01017288    0.0520836 ----
    55   0   0   F    F -1.62D-01 0.00400235 0.00151497 0.00637500 0.00165084    0.0520045 ----
    56   0   0   F    T  2.79D+00 0.00289105 0.00131692 0.03139202 0.00852204    0.0520015 ----
    57   0   0   F    F -3.67D-01 0.00289105 0.00131692 0.01152084 0.00312758    0.0519710 ----
    58   0   0   F    T  1.19D+00 0.00530257 0.00155764 0.01914265 0.00539446    0.0519554 ----
    59   0   0   F    F  4.87D-01 0.00530257 0.00155764 0.00932893 0.00262892    0.0518979 ----
    60   0   0   F    T  3.74D+00 0.00173490 0.00102290 0.02576872 0.00802338    0.0518909 ----
    61   0   0   F    F  8.35D-01 0.00173490 0.00102290 0.02150599 0.00669614    0.0518053 ----
    62   0   0   F    T  1.51D+00 0.00603506 0.00216126 0.04672471 0.01471952    0.0517828 ----
    63   0   0   F    F  6.02D-01 0.00603506 0.00216126 0.02814819 0.00886743    0.0516367 ----
    64   0   0   F    F -1.26D-02 0.00603506 0.00216126 0.00035410 0.00011155    0.0516125 --++
    65   0   0   F    T  1.48D+00 0.00859803 0.00279076 0.07423112 0.02347540    0.0516125 ----
    66   0   0   F    F  6.18D-02 0.00859803 0.00279076 0.00458477 0.00144992    0.0514313 ----
    67   0   0   F    T  2.12D+00 0.00442734 0.00240630 0.07835753 0.02492532    0.0514307 ----
    68   0   0   F    F  1.64D+00 0.00442734 0.00240630 0.12823960 0.04079267    0.0511393 ----
    69   0   0   F    F -1.96D-01 0.00442734 0.00240630 0.02512168 0.00799114    0.0509990 ----
    70   0   0   F    F -2.11D-02 0.00442734 0.00240630 0.00053065 0.00016880    0.0509891 ---+
    71   0   0   F    T  1.78D+00 0.00848411 0.00397863 0.18114822 0.05789564    0.0509891 ----
    72   0   0   F    F  2.08D-01 0.00848411 0.00397863 0.03762078 0.01202374    0.0503492 ----
    73   0   0   F    F -1.75D-02 0.00848411 0.00397863 0.00065693 0.00020996    0.0503205 ---+
    74   0   0   F    T  2.51D+00 0.01512332 0.00543032 0.21630853 0.06970943    0.0503204 ----
    75   0   0   F    F -9.85D-02 0.01512332 0.00543032 0.02131364 0.00686871    0.0493086 ----
    76   0   0   F    F -4.70D-02 0.01512332 0.00543032 0.00100215 0.00032296    0.0492964 ----
    77   0   0   F    T  2.17D+00 0.01498281 0.00648745 0.19217195 0.06316368    0.0492964 ----
    78   0   0   F    F  3.40D-01 0.01498281 0.00648745 0.06535544 0.02148123    0.0475571 ----
    79   0   0   F    F -1.13D-01 0.01498281 0.00648745 0.00736492 0.00242072    0.0474482 ----
    80   0   0   F    T  1.53D+00 0.02376443 0.00912036 0.24351472 0.08222418    0.0474463 ----
    81   0   0   F    F -1.62D-01 0.02376443 0.00912036 0.03956412 0.01335906    0.0457835 ----
    82   0   0   F    F -2.47D-02 0.02376443 0.00912036 0.00097636 0.00032967    0.0457060 ----
    83   0   0   F    T  3.20D+00 0.02593122 0.00778600 0.16660564 0.06919480    0.0457059 ----
    84   0   0   F    F  3.40D-02 0.02593122 0.00778600 0.00566281 0.00235188    0.0429253 ----
    85   0   0   F    T  2.69D+00 0.01822024 0.00813800 0.18021942 0.07154668    0.0429228 ----
    86   0   0   F    F -1.36D-02 0.01822024 0.00813800 0.00244413 0.00097032    0.0402550 ----
    87   0   0   F    T  3.17D+00 0.01422901 0.00639687 0.19858786 0.07057637    0.0402545 ----
    88   0   0   F    F -3.16D-01 0.01422901 0.00639687 0.06280293 0.02231961    0.0392147 ----
    89   0   0   F    F -6.72D-03 0.01422901 0.00639687 0.00042185 0.00014992    0.0389592 --++
    90   0   0   F    T  1.86D+00 0.01504811 0.00655989 0.13896946 0.04840668    0.0389592 ----
    91   0   0   F    F -3.80D-01 0.01504811 0.00655989 0.05277559 0.01838311    0.0384925 ----
    92   0   0   F    T  2.23D+00 0.01110039 0.00426389 0.08451759 0.03002357    0.0382187 ----
    93   0   0   F    F  1.89D-01 0.01110039 0.00426389 0.01598415 0.00567812    0.0375064 ----
    94   0   0   F    T  5.64D+00 0.00759237 0.00276646 0.11219456 0.03570169    0.0374878 ----
    95   0   0   T    F  2.64D-01 0.00759237 0.00276646 0.02965906 0.00943788    0.0386038 ----
    96   0   0   F    T  1.28D+00 0.00728339 0.00285290 0.02864910 0.00943788    0.0373176 ----
    97   0   0   F    F  2.01D-01 0.00728339 0.00285290 0.00577016 0.00190086    0.0371354 ----
    98   0   0   F    T  2.43D+00 0.00397804 0.00208993 0.02602480 0.01133874    0.0371302 ----
    99   0   0   F    T  2.57D+00 0.00516198 0.00191348 0.02682724 0.01133874    0.0369713 ----
   100   0   0   F    F -3.48D-01 0.00516198 0.00191348 0.00932710 0.00394217    0.0369058 ----
   101   0   0   F    T  1.57D+00 0.00483567 0.00190796 0.01700901 0.00739657    0.0368798 ----
   102   0   0   F    F -5.83D-02 0.00483567 0.00190796 0.00099095 0.00043093    0.0367994 ----
   103   0   0   F    T  1.60D+00 0.00439722 0.00174462 0.01332100 0.00696564    0.0367990 ----
   104   0   0   F    F  5.65D-01 0.00439722 0.00174462 0.00753098 0.00393800    0.0366994 ----
   105   0   0   F    T  4.91D+00 0.00246710 0.00114507 0.01895764 0.01090364    0.0366845 ----
   106   0   0   T    F  3.15D-01 0.00246710 0.00114507 0.00597679 0.00343760    0.0367976 ----
   107   0   0   F    T  1.31D+00 0.00314162 0.00117337 0.00631471 0.00343760    0.0366541 ----
   108   0   0   F    F  1.57D-01 0.00314162 0.00117337 0.00099007 0.00053897    0.0366232 ----
   109   0   0   F    T  1.98D+00 0.00178118 0.00096483 0.00915712 0.00397657    0.0366226 ----
   110   0   0   F    F  1.55D-01 0.00178118 0.00096483 0.00142030 0.00061678    0.0365913 ----
   111   0   0   F    T  2.50D+00 0.00182090 0.00086926 0.01122613 0.00459335    0.0365907 ----
   112   0   0   F    F -1.85D-01 0.00182090 0.00086926 0.00207819 0.00085032    0.0365689 ----
   113   0   0   F    T  1.66D+00 0.00257268 0.00091799 0.00935123 0.00374303    0.0365677 ----
   114   0   0   F    F -3.10D-01 0.00257268 0.00091799 0.00289574 0.00115908    0.0365562 ----
   115   0   0   F    T  1.95D+00 0.00135353 0.00065491 0.00699042 0.00258395    0.0365532 ----
   116   0   0   F    F  5.51D-01 0.00135353 0.00065491 0.00384884 0.00142269    0.0365362 ----
   117   0   0   F    T  2.71D+00 0.00180673 0.00065688 0.01097795 0.00400664    0.0365338 ----
   118   0   0   F    F -3.48D-01 0.00180673 0.00065688 0.00382316 0.00139534    0.0365256 ----
   119   0   0   F    T  1.55D+00 0.00165206 0.00067153 0.00736381 0.00261129    0.0365224 ----
   120   0   0   F    F -2.22D-01 0.00165206 0.00067153 0.00163351 0.00057926    0.0365149 ----
   121   0   0   F    T  1.99D+00 0.00087965 0.00049018 0.00609522 0.00203203    0.0365142 ----
   122   0   0   F    F  1.48D+00 0.00087965 0.00049018 0.00903299 0.00301143    0.0365028 ----
   123   0   0   F    T  2.72D+00 0.00129329 0.00064121 0.01345641 0.00504346    0.0364964 ----
   124   0   0   T    F  4.48D-01 0.00129329 0.00064121 0.00602698 0.00225891    0.0365003 ----
   125   0   0   F    T  1.42D+00 0.00111879 0.00057019 0.00501862 0.00225891    0.0364889 ----
   126   0   0   F    F  2.97D-01 0.00111879 0.00057019 0.00148923 0.00067031    0.0364804 ----
   127   0   0   F    T  2.65D+00 0.00124422 0.00045557 0.00589606 0.00292922    0.0364799 ----
   128   0   0   F    F -6.09D-02 0.00124422 0.00045557 0.00035911 0.00017841    0.0364722 --++
   129   0   0   F    T  2.30D+00 0.00116648 0.00045749 0.00646493 0.00275081    0.0364722 ----
   130   0   0   F    F -4.12D-01 0.00116648 0.00045749 0.00266608 0.00113441    0.0364700 ----
   131   0   0   F    T  1.47D+00 0.00087609 0.00042021 0.00365191 0.00161640    0.0364679 ----
   132   0   0   F    F  9.39D-02 0.00087609 0.00042021 0.00034279 0.00015173    0.0364637 --++
   133   0   0   F    T  2.74D+00 0.00095279 0.00030269 0.00407555 0.00176813    0.0364637 ----
   134   0   0   F    F  1.09D-01 0.00095279 0.00030269 0.00044523 0.00019316    0.0364595 --++
   135   0   0   F    T  1.98D+00 0.00092071 0.00036225 0.00529437 0.00196129    0.0364595 ----
   136   0   0   F    F -2.79D-01 0.00092071 0.00036225 0.00147461 0.00054627    0.0364571 ----
   137   0   0   F    T  1.26D+00 0.00113304 0.00037373 0.00333171 0.00141502    0.0364567 ----
   138   0   0   F    F  6.93D-01 0.00113304 0.00037373 0.00230753 0.00098004    0.0364529 ----
   139   0   0   F    T  3.24D+00 0.00052204 0.00029016 0.00526876 0.00239506    0.0364522 ----
   140   0   0   F    F  2.11D-01 0.00052204 0.00029016 0.00111270 0.00050581    0.0364474 ----
   141   0   0   F    T  1.27D+00 0.00121577 0.00050297 0.00711679 0.00290087    0.0364472 ----
   142   0   0   F    F  9.05D-02 0.00121577 0.00050297 0.00064373 0.00026239    0.0364420 ---+
   143   0   0   F    T  2.01D+00 0.00069592 0.00041009 0.00674650 0.00316325    0.0364420 ----
   144   0   0   F    T  2.50D+00 0.00074183 0.00036873 0.00651959 0.00316325    0.0364367 ----
   145   0   0   F    F  2.96D-01 0.00074183 0.00036873 0.00192937 0.00093612    0.0364303 ----
   146   0   0   F    T  1.40D+00 0.00158045 0.00054748 0.00877365 0.00409937    0.0364299 ----
   147   0   0   F    F  2.37D-01 0.00158045 0.00054748 0.00208263 0.00097308    0.0364225 ----
   148   0   0   F    T  1.37D+00 0.00131781 0.00061463 0.01058305 0.00507245    0.0364222 ----
   149   0   0   F    F  5.64D-01 0.00131781 0.00061463 0.00596996 0.00286140    0.0364116 ----
   150   0   0   F    T  3.93D+00 0.00086789 0.00044039 0.01780494 0.00793386    0.0364100 ----
   151   0   0   F    F -3.72D-01 0.00086789 0.00044039 0.00662055 0.00295011    0.0364053 ----
   152   0   0   F    T  1.59D+00 0.00126871 0.00054625 0.01152953 0.00498375    0.0364028 ----
   153   0   0   F    F -1.60D-01 0.00126871 0.00054625 0.00184580 0.00079786    0.0363970 ----
   154   0   0   F    T  1.70D+00 0.00108664 0.00048113 0.00988724 0.00418589    0.0363968 ----
   155   0   0   F    F  7.33D-01 0.00108664 0.00048113 0.00725101 0.00306981    0.0363884 ----
   156   0   0   F    T  2.01D+00 0.00144004 0.00057939 0.01728266 0.00725570    0.0363865 ----
   157   0   0   F    F  3.36D-01 0.00144004 0.00057939 0.00580843 0.00243853    0.0363738 ----
   158   0   0   F    T  1.86D+00 0.00137972 0.00069565 0.02259932 0.00969422    0.0363729 ----
   159   0   0   F    F -8.57D-02 0.00137972 0.00069565 0.00193742 0.00083108    0.0363607 ----
   160   0   0   F    T  1.21D+00 0.00172096 0.00082267 0.02004533 0.00886314    0.0363606 ----
   161   0   0   F    F  9.44D-01 0.00172096 0.00082267 0.01891642 0.00836399    0.0363424 ----
   162   0   0   F    T  5.38D+00 0.00131679 0.00051834 0.03558823 0.01722713    0.0363368 ----
   163   0   0   T    F  4.93D-01 0.00131679 0.00051834 0.01753735 0.00848928    0.0363376 ----
   164   0   0   F    T  1.47D+00 0.00149901 0.00069892 0.01843995 0.00848928    0.0363261 ----
   165   0   0   F    F  1.67D-01 0.00149901 0.00069892 0.00307096 0.00141379    0.0363138 ----
   166   0   0   F    T  1.69D+00 0.00157159 0.00069996 0.02095724 0.00990307    0.0363136 ----
   167   0   0   F    F -5.75D-02 0.00157159 0.00069996 0.00120587 0.00056982    0.0363019 ----
   168   0   0   F    T  3.34D+00 0.00137356 0.00047705 0.02100684 0.00933325    0.0363018 ----
   169   0   0   F    F  1.07D-01 0.00137356 0.00047705 0.00225192 0.00100052    0.0362892 ----
   170   0   0   F    T  1.96D+00 0.00168173 0.00066030 0.02541173 0.01033376    0.0362891 ----
   171   0   0   F    F  1.57D-01 0.00168173 0.00066030 0.00398417 0.00162018    0.0362746 ----
   172   0   0   F    T  1.00D+00 0.00214221 0.00099881 0.02911907 0.01198381    0.0362743 ----
   173   0   0   F    F  1.55D+00 0.00214221 0.00099881 0.04518478 0.01859557    0.0362495 ----
   174   0   0   F    F -3.48D-02 0.00214221 0.00099881 0.00157024 0.00064622    0.0362343 ----
   175   0   0   F    T  2.23D+00 0.00250526 0.00108843 0.07568065 0.02993316    0.0362342 ----
   176   0   0   F    F  4.33D-01 0.00250526 0.00108843 0.03277754 0.01296415    0.0361832 ----
   177   0   0   F    F -9.97D-02 0.00250526 0.00108843 0.00326810 0.00129260    0.0361787 ----
   178   0   0   F    T  4.69D+00 0.00208116 0.00108602 0.11415520 0.04160471    0.0361786 ----
   179   0   0   T    F  2.67D-01 0.00208116 0.00108602 0.03053200 0.01112762    0.0363029 ----
   180   0   0   F    T  1.30D+00 0.00297416 0.00101708 0.03081607 0.01112762    0.0361569 ----
   181   0   0   F    F  1.78D+00 0.00297416 0.00101708 0.05472928 0.01976262    0.0361234 ----
   182   0   0   F    F -3.74D-02 0.00297416 0.00101708 0.00204564 0.00073867    0.0360996 ----
   183   0   0   F    T  1.63D+00 0.00428703 0.00143884 0.08599443 0.03015156    0.0360996 ----
   184   0   0   F    F  3.69D-02 0.00428703 0.00143884 0.00317024 0.00111156    0.0360442 ----
   185   0   0   F    T  8.85D+00 0.00293006 0.00105415 0.09902047 0.03126312    0.0360441 ----
   186   0   0   T    F  1.27D-01 0.00293006 0.00105415 0.01257359 0.00396978    0.0368621 ----
   187   0   0   F    T  1.31D+00 0.00262887 0.00093634 0.01217773 0.00396978    0.0360255 ----
   188   0   0   F    F  1.00D+00 0.00262887 0.00093634 0.01221822 0.00398298    0.0359998 ----
   189   0   0   F    T  2.37D+00 0.00227479 0.00094469 0.02420462 0.00795276    0.0359913 ----
   190   0   0   F    F  1.54D+00 0.00227479 0.00094469 0.03717966 0.01221590    0.0359398 ----
   191   0   0   F    T  3.35D+00 0.00387156 0.00124195 0.06178959 0.02016866    0.0359096 ----
   192   0   0   T    F  4.18D-01 0.00387156 0.00124195 0.02585126 0.00843807    0.0359372 ----
   193   0   0   F    T  1.96D+00 0.00305947 0.00102887 0.02405123 0.00843807    0.0358775 ----
   194   0   0   F    F -3.59D-01 0.00305947 0.00102887 0.00863072 0.00302798    0.0358638 ----
   195   0   0   F    T  2.67D+00 0.00177844 0.00067779 0.01511620 0.00541009    0.0358575 ----
   196   0   0   F    F  3.48D-01 0.00177844 0.00067779 0.00526026 0.00188265    0.0358343 ----
   197   0   0   F    T  3.42D+00 0.00181890 0.00068267 0.02000263 0.00729274    0.0358326 ----
   198   0   0   F    F -3.99D-01 0.00181890 0.00068267 0.00798598 0.00291160    0.0358246 ----
   199   0   0   F    T  2.43D+00 0.00144988 0.00060994 0.01155116 0.00438114    0.0358183 ----
   200   0   0   F    F -3.55D-01 0.00144988 0.00060994 0.00409585 0.00155348    0.0358122 ----
   201   0   0   F    T  1.79D+00 0.00126212 0.00055313 0.00769841 0.00282766    0.0358095 ----
   202   0   0   F    F -3.61D-01 0.00126212 0.00055313 0.00278144 0.00102163    0.0358059 ----
   203   0   0   F    T  6.37D+00 0.00046038 0.00019708 0.00456508 0.00180602    0.0358043 ----
   204   0   0   T    F  4.56D-01 0.00046038 0.00019708 0.00208066 0.00082315    0.0358050 ----
   205   0   0   F    T  2.18D+00 0.00038081 0.00020771 0.00185469 0.00082315    0.0358026 ----
   206   0   0   F    F  5.63D-01 0.00038081 0.00020771 0.00104369 0.00046321    0.0358006 ----
   207   0   0   F    T  1.21D+00 0.00107589 0.00033885 0.00302631 0.00128636    0.0358004 ----
   208   0   0   F    F  2.17D-01 0.00107589 0.00033885 0.00065799 0.00027968    0.0357979 ---+
   209   0   0   F    T  2.59D+00 0.00048199 0.00024478 0.00332858 0.00156604    0.0357978 ----
   210   0   0   F    F -3.11D-01 0.00048199 0.00024478 0.00103363 0.00048631    0.0357965 ----
   211   0   0   F    T  3.50D+00 0.00037355 0.00016130 0.00236377 0.00107974    0.0357962 ----
   212   0   0   F    F -2.83D-01 0.00037355 0.00016130 0.00066977 0.00030594    0.0357954 ----
   213   0   0   F    T  1.86D+00 0.00041289 0.00017792 0.00215556 0.00077379    0.0357952 ----
   214   0   0   F    F  1.32D+00 0.00041289 0.00017792 0.00284870 0.00102261    0.0357938 ----
   215   0   0   F    T  1.34D+00 0.00099362 0.00031451 0.00499874 0.00179641    0.0357932 ----
   216   0   0   F    F -1.96D-01 0.00099362 0.00031451 0.00097823 0.00035155    0.0357917 ----
   217   0   0   F    T  5.08D+00 0.00029086 0.00013744 0.00381843 0.00144486    0.0357916 ----
   218   0   0   F    F -3.90D-01 0.00029086 0.00013744 0.00148995 0.00056378    0.0357911 ----
   219   0   0   F    T  2.61D+00 0.00030471 0.00014264 0.00240878 0.00088107    0.0357907 ----
   220   0   0   F    T  1.81D+00 0.00041994 0.00016029 0.00244848 0.00088107    0.0357900 ----
   221   0   0   F    F -3.23D-01 0.00041994 0.00016029 0.00079134 0.00028476    0.0357897 ---+
   222   0   0   F    T  2.60D+00 0.00023735 0.00012440 0.00145159 0.00059631    0.0357896 ----
   223   0   0   F    F -4.55D-01 0.00023735 0.00012440 0.00066045 0.00027131    0.0357895 ---+
   224   0   0   F    T  2.65D+00 0.00017737 0.00007655 0.00066918 0.00032500    0.0357892 ----
   225   0   0   F    T  5.89D+00 0.00011127 0.00004856 0.00067934 0.00032500    0.0357890 ++--
   226   0   0   T    T  1.00D+00 0.00044243 0.00014715 0.00044243 0.00014715    0.0357891 --++
   227   0   0   T    F  5.00D-01 0.00044243 0.00014715 0.00022121 0.00007357    0.0357895 --++
   228   0   0   T    F  5.00D-01 0.00044243 0.00014715 0.00011061 0.00003679    0.0357891 --++
   229   0   0   T    F  5.00D-01 0.00044243 0.00014715 0.00005530 0.00001839    0.0357890 --++
   230   0   0   T    F  5.00D-01 0.00044243 0.00014715 0.00002765 0.00000920    0.0357890 --++
   231   0   0   T    F  5.00D-01 0.00044243 0.00014715 0.00001383 0.00000460    0.0357890 --++
   232   0   0   T    F  5.00D-01 0.00044243 0.00014715 0.00000691 0.00000230    0.0357890 --++
   233   0   0   T    F  5.00D-01 0.00044243 0.00014715 0.00000346 0.00000115    0.0357890 --++
   234   0   0   T    F  5.00D-01 0.00044243 0.00014715 0.00000173 0.00000057    0.0357890 --++
   235   0   0   T    F  5.00D-01 0.00044243 0.00014715 0.00000086 0.00000029    0.0357890 --++
   236   0   0   T    T  1.00D+00 0.00011145 0.00004875 0.00007985 0.00003591    0.0357890 ++++
   237   0   0   F    T  1.00D+00 0.00011332 0.00004821 0.00010718 0.00004877    0.0357889 -+++
   238   0   0   F    T  1.24D+00 0.00007506 0.00003250 0.00009960 0.00004877    0.0357889 ====
 ****************************
 MOLECULAR MECHANICS FUNCTION
 ****************************
 Atomic parameters:
 Center  VDW
      1 1.9080 0.0860000
      2 1.7210 0.2104000
      3 1.9080 0.1094000
      4 1.4870 0.0157000
      5 1.4870 0.0157000
      6 1.8750 0.1700000
      7 0.6000 0.0157000
      8 0.6000 0.0157000
      9 1.6612 0.2100000
     10 0.0000 0.0000000
 Molecular mechanics terms:
 NBDir 3 1      0      0
 HrmStr1  1- 2  431.53 1.3510
 HrmStr1  1- 3  294.15 1.5090
 HrmStr1  1- 9  946.08 1.2030
 HrmStr1  2-10  566.76 0.9680
 HrmStr1  3- 4  358.05 1.0960
 HrmStr1  3- 5  358.05 1.0960
 HrmStr1  3- 6  380.82 1.4520
 HrmStr1  6- 7  506.01 1.0110
 HrmStr1  6- 8  506.01 1.0110
 HrmBnd1  1- 2-10  56.55 107.23
 HrmBnd1  1- 3- 4  46.41 106.89
 HrmBnd1  1- 3- 5  46.41 106.89
 HrmBnd1  1- 3- 6  59.93 110.61
 HrmBnd1  2- 1- 3  67.92 111.72
 HrmBnd1  2- 1- 9  91.40 123.02
 HrmBnd1  3- 1- 9  62.83 125.24
 HrmBnd1  3- 6- 7  52.60 110.71
 HrmBnd1  3- 6- 8  52.60 110.71
 HrmBnd1  4- 3- 5  44.68 106.22
 HrmBnd1  4- 3- 6  52.45 112.94
 HrmBnd1  5- 3- 6  52.45 112.94
 HrmBnd1  7- 6- 8  47.09 108.63
 AmbTrs  3- 1- 2-10   0 180   0   0  0.0000 14.5000  0.0000  0.0000  2.0
 AmbTrs  9- 1- 2-10   0   0   0   0  0.0000 14.5000  0.0000  0.0000  2.0
 AmbTrs  2- 1- 3- 4   0   0   0   0  0.0000 14.5000  0.0000  0.0000  6.0
 AmbTrs  2- 1- 3- 5   0   0   0   0  0.0000 14.5000  0.0000  0.0000  6.0
 AmbTrs  2- 1- 3- 6   0   0   0   0  0.0000 14.5000  0.0000  0.0000  6.0
 AmbTrs  9- 1- 3- 4   0   0   0   0  0.0000 14.5000  0.0000  0.0000  6.0
 AmbTrs  9- 1- 3- 5   0   0   0   0  0.0000 14.5000  0.0000  0.0000  6.0
 AmbTrs  9- 1- 3- 6   0   0   0   0  0.0000 14.5000  0.0000  0.0000  6.0
 AmbTrs  1- 3- 6- 7   0 180   0   0  0.0000 25.6300  0.0000  0.0000  6.0
 AmbTrs  1- 3- 6- 8   0 180   0   0  0.0000 25.6300  0.0000  0.0000  6.0
 AmbTrs  4- 3- 6- 7   0   0   0   0  0.0000  0.0000  0.0000  0.0000  6.0
 AmbTrs  4- 3- 6- 8   0   0   0   0  0.0000  0.0000  0.0000  0.0000  6.0
 AmbTrs  5- 3- 6- 7   0   0   0   0  0.0000  0.0000  0.0000  0.0000  6.0
 AmbTrs  5- 3- 6- 8   0   0   0   0  0.0000  0.0000  0.0000  0.0000  6.0
 NBPair  2- 1 3 1      0      0 -1.000 -1.000
 NBPair  3- 2 3 1      0      0 -1.000 -1.000
 NBPair 10- 3 3 1      0      0 -0.500 -0.167
 NBPair  9- 2 3 1      0      0 -1.000 -1.000
 NBPair 10- 9 3 1      0      0 -0.500 -0.167
 NBPair  3- 1 3 1      0      0 -1.000 -1.000
 NBPair  4- 2 3 1      0      0 -0.500 -0.167
 NBPair  5- 2 3 1      0      0 -0.500 -0.167
 NBPair  6- 2 3 1      0      0 -0.500 -0.167
 NBPair  9- 3 3 1      0      0 -1.000 -1.000
 NBPair  9- 4 3 1      0      0 -0.500 -0.167
 NBPair  9- 5 3 1      0      0 -0.500 -0.167
 NBPair  9- 6 3 1      0      0 -0.500 -0.167
 NBPair  9- 1 3 1      0      0 -1.000 -1.000
 NBPair 10- 1 3 1      0      0 -1.000 -1.000
 NBPair 10- 2 3 1      0      0 -1.000 -1.000
 NBPair  4- 1 3 1      0      0 -1.000 -1.000
 NBPair  5- 1 3 1      0      0 -1.000 -1.000
 NBPair  6- 1 3 1      0      0 -1.000 -1.000
 NBPair  4- 3 3 1      0      0 -1.000 -1.000
 NBPair  5- 4 3 1      0      0 -1.000 -1.000
 NBPair  6- 4 3 1      0      0 -1.000 -1.000
 NBPair  5- 3 3 1      0      0 -1.000 -1.000
 NBPair  6- 5 3 1      0      0 -1.000 -1.000
 NBPair  6- 3 3 1      0      0 -1.000 -1.000
 NBPair  7- 1 3 1      0      0 -0.500 -0.167
 NBPair  8- 1 3 1      0      0 -0.500 -0.167
 NBPair  7- 4 3 1      0      0 -0.500 -0.167
 NBPair  8- 4 3 1      0      0 -0.500 -0.167
 NBPair  7- 5 3 1      0      0 -0.500 -0.167
 NBPair  8- 5 3 1      0      0 -0.500 -0.167
 NBPair  7- 3 3 1      0      0 -1.000 -1.000
 NBPair  8- 3 3 1      0      0 -1.000 -1.000
 NBPair  7- 6 3 1      0      0 -1.000 -1.000
 NBPair  8- 7 3 1      0      0 -1.000 -1.000
 NBPair  8- 6 3 1      0      0 -1.000 -1.000
 Energy per function type:
 Direct Coulomb + vdW (small)                           0.003470850
 Direct Coulomb (large)                                -0.131641836
 Direct vdW (large)                                   269.059719818
 Non-direct Coulomb + vdW (small)                      -0.011908170
 Non-direct Coulomb (large)                             0.137952929
 Non-direct vdW (large)                              -269.059719818
 Harmonic stretch I                                     0.000106218
 Harmonic bend I                                        0.004568320
 Amber torsion                                          0.033240568
 Energy per function class:
        Coulomb              -0.003652846
    Vanderwaals               0.001526619
     Stretching               0.000106218
        Bending               0.004568320
        Torsion               0.033240568
 Energy=    3.578887835E-02 NIter=   0.
 Dipole moment=       0.498366       0.180564       0.028124
 Leave Link  402 at Wed Nov 29 12:05:21 2023, MaxMem=   134217728 cpu:               0.5 elap:               0.5
 (Enter /home/emanuele/chem_software/gaussian//gdv/l716.exe)
 Dipole        = 4.98365784D-01 1.80564063D-01 2.81235343D-02
 -------------------------------------------------------------------
 Center     Atomic                   Forces (Hartrees/Bohr)
 Number     Number              X              Y              Z
 -------------------------------------------------------------------
      1        6           0.000075062    0.000059614   -0.000033616
      2        8           0.000006982    0.000015035    0.000002251
      3        6           0.000038697   -0.000013279    0.000013599
      4        1          -0.000033464    0.000000019   -0.000003764
      5        1          -0.000015255   -0.000052877   -0.000035626
      6        7           0.000019283    0.000012376    0.000021538
      7        1          -0.000042611   -0.000046774   -0.000003371
      8        1           0.000024559    0.000057554    0.000000577
      9        8          -0.000056974   -0.000019582    0.000012112
     10        1          -0.000016281   -0.000012085    0.000026301
 -------------------------------------------------------------------
 Cartesian Forces:  Max     0.000075062 RMS     0.000032500
 Z-matrix is all fixed cartesians, so copy forces.
 Leave Link  716 at Wed Nov 29 12:05:21 2023, MaxMem=   134217728 cpu:               0.0 elap:               0.0
 (Enter /home/emanuele/chem_software/gaussian//gdv/l103.exe)

 GradGradGradGradGradGradGradGradGradGradGradGradGradGradGradGradGradGrad
 Berny optimization.
 Search for a local minimum.
 Step number   1 out of a maximum of    2
 All quantities printed in internal units (Hartrees-Bohrs-Radians)
 RMS Force = .32500D-04 SwitMx=.10000D-02 MixMth= 2
 Mixed Optimization -- En-DIIS/RFO-DIIS
 Second derivative matrix not updated -- unit matrix used.
 ITU=  0
 RFO step:  Lambda=-3.16873697D-08 EMin= 1.00000000D+00
 Linear search not attempted -- first point.
 Variable       Old X    -DE/DX   Delta X   Delta X   Delta X     New X
                                 (Linear)    (Quad)   (Total)
    X1       -1.24195   0.00008   0.00000   0.00008   0.00008  -1.24187
    Y1       -0.18647   0.00006   0.00000   0.00006   0.00006  -0.18641
    Z1        0.27293  -0.00003   0.00000  -0.00003  -0.00003   0.27289
    X2       -1.87649   0.00001   0.00000   0.00001   0.00001  -1.87649
    Y2        1.87113   0.00002   0.00000   0.00002   0.00002   1.87114
    Z2       -1.09492   0.00000   0.00000   0.00000   0.00000  -1.09492
    X3        1.36949   0.00004   0.00000   0.00004   0.00004   1.36953
    Y3       -1.07165  -0.00001   0.00000  -0.00001  -0.00001  -1.07166
    Z3       -0.54267   0.00001   0.00000   0.00001   0.00001  -0.54265
    X4        1.22276  -0.00003   0.00000  -0.00003  -0.00003   1.22273
    Y4       -3.12539   0.00000   0.00000   0.00000   0.00000  -3.12539
    Z4       -0.78532  -0.00000   0.00000  -0.00000  -0.00000  -0.78532
    X5        1.68483  -0.00002   0.00000  -0.00002  -0.00002   1.68481
    Y5       -0.44866  -0.00005   0.00000  -0.00005  -0.00005  -0.44871
    Z5       -2.49565  -0.00004   0.00000  -0.00004  -0.00004  -2.49569
    X6        3.34389   0.00002   0.00000   0.00002   0.00002   3.34390
    Y6       -0.33185   0.00001   0.00000   0.00001   0.00001  -0.33184
    Z6        1.23266   0.00002   0.00000   0.00002   0.00002   1.23268
    X7        2.72400  -0.00004   0.00000  -0.00004  -0.00004   2.72396
    Y7        0.03166  -0.00005   0.00000  -0.00005  -0.00005   0.03162
    Z7        3.00432  -0.00000   0.00000  -0.00000  -0.00000   3.00431
    X8        4.92347   0.00002   0.00000   0.00002   0.00002   4.92350
    Y8       -1.40562   0.00006   0.00000   0.00006   0.00006  -1.40556
    Z8        1.15865   0.00000   0.00000   0.00000   0.00000   1.15865
    X9       -2.83354  -0.00006   0.00000  -0.00006  -0.00006  -2.83360
    Y9       -1.74463  -0.00002   0.00000  -0.00002  -0.00002  -1.74465
    Z9        0.72093   0.00001   0.00000   0.00001   0.00001   0.72094
   X10       -3.11433  -0.00002   0.00000  -0.00002  -0.00002  -3.11435
   Y10        2.77642  -0.00001   0.00000  -0.00001  -0.00001   2.77640
   Z10       -0.10097   0.00003   0.00000   0.00003   0.00003  -0.10095
         Item               Value     Threshold  Converged?
 Maximum Force            0.000075     0.000450     YES
 RMS     Force            0.000032     0.000300     YES
 Maximum Displacement     0.000075     0.001800     YES
 RMS     Displacement     0.000032     0.001200     YES
 Predicted change in Energy=-1.584368D-08
 Optimization completed.
    -- Stationary point found.
 Largest change from initial coordinates is atom    8       1.010 Angstoms.
 GradGradGradGradGradGradGradGradGradGradGradGradGradGradGradGradGradGrad

 Leave Link  103 at Wed Nov 29 12:05:21 2023, MaxMem=   134217728 cpu:               0.0 elap:               0.0
 (Enter /home/emanuele/chem_software/gaussian//gdv/l202.exe)
                          Input orientation:                          
 ---------------------------------------------------------------------
 Center     Atomic      Atomic             Coordinates (Angstroms)
 Number     Number       Type             X           Y           Z
 ---------------------------------------------------------------------
      1          6    20001002       -0.657211   -0.098674    0.144427
      2          8    20001022       -0.992997    0.990159   -0.579406
      3          6    20001001        0.724702   -0.567092   -0.287166
      4          1    20001034        0.647058   -1.653888   -0.415574
      5          1    20001034        0.891573   -0.237419   -1.320641
      6          7    20001020        1.769508   -0.175607    0.652293
      7          1    20001029        1.441481    0.016756    1.589817
      8          1    20001029        2.605390   -0.743823    0.613133
      9          8    20001025       -1.499444   -0.923217    0.381499
     10          1    20001031       -1.648034    1.469216   -0.053433
 ---------------------------------------------------------------------
                    Distance matrix (angstroms):
                    1          2          3          4          5
     1  C    0.000000
     2  O    1.349905   0.000000
     3  C    1.521634   2.336862   0.000000
     4  H    2.105566   3.115703   1.097106   0.000000
     5  H    2.136448   2.368118   1.097543   1.698622   0.000000
     6  N    2.480486   3.241532   1.458583   2.141389   2.160338
     7  H    2.550879   3.402899   2.092299   2.728323   2.972839
     8  H    3.358641   4.168600   2.092549   2.391970   2.633077
     9  O    1.202261   2.200189   2.349630   2.403472   3.014061
    10  H    1.865250   0.967066   3.135451   3.892605   3.311801
                    6          7          8          9         10
     6  N    0.000000
     7  H    1.011709   0.000000
     8  H    1.011485   1.699139   0.000000
     9  O    3.364268   3.315512   4.115276   0.000000
    10  H    3.857860   3.788801   4.840812   2.436181   0.000000
 Symmetry turned off by external request.
 Stoichiometry    C2H5NO2
 Framework group  C1[X(C2H5NO2)]
 Deg. of freedom    24
 Full point group                 C1      NOp   1
 Rotational constants (GHZ):           9.4797106           3.7746014           3.0741262
 Leave Link  202 at Wed Nov 29 12:05:21 2023, MaxMem=   134217728 cpu:               0.0 elap:               0.0
 (Enter /home/emanuele/chem_software/gaussian//gdv/l9999.exe)
 Unable to Open any file for archive entry.
 1\1\GINC-EMANUELE-XPS-13-9343\FOpt\AMBER\ZDO\C2H5N1O2\EMANUELE\29-Nov-
 2023\0\\#p Amber=(SoftFirst,Print) geom=nocrowd nosymm opt=(maxcycle=3
 00)\\Title\\0,1\C,-0.6572110065,-0.0986738009,0.1444268564\O,-0.992997
 2327,0.9901586685,-0.5794057727\C,0.7247019016,-0.5670917021,-0.287166
 2798\H,0.6470583544,-1.6538877458,-0.4155735892\H,0.8915734516,-0.2374
 193938,-1.3206413099\N,1.7695080527,-0.1756066706,0.652293204\H,1.4414
 808031,0.0167562593,1.5898166329\H,2.6053897709,-0.743822536,0.6131334
 14\O,-1.4994439164,-0.9232167715,0.3814992717\H,-1.6480341786,1.469215
 6929,-0.0534334275\\Version=ES64L-GDVRevJ.14\HF=0.0357889\RMSD=0.000e+
 00\RMSF=3.250e-05\Dipole=0.4983658,0.1805641,0.0281235\PG=C01 [X(C2H5N
 1O2)]\\@
 The archive entry for this job was punched.


 IT IS A SIMPLE TASK TO MAKE THINGS COMPLEX,
 BUT A COMPLEX TASK TO MAKE THEM SIMPLE.
 Job cpu time:       0 days  0 hours  0 minutes  1.0 seconds.
 Elapsed time:       0 days  0 hours  0 minutes  0.9 seconds.
 File lengths (MBytes):  RWF=      6 Int=      0 D2E=      0 Chk=      1 Scr=      1
 Normal termination of Gaussian DV at Wed Nov 29 12:05:21 2023.
