 Entering Gaussian System, Link 0=/home/emanuele/chem_software/gaussian//g09/g09
 Input=0_mm_80.gjf
 Output=0_mm_80.log
 Initial command:
 /home/emanuele/chem_software/gaussian//gdv/l1.exe "/home/emanuele/chem_software/gaussian/scratch/Gau-10355.inp" -scrdir="/home/emanuele/chem_software/gaussian/scratch/"
 Entering Link 1 = /home/emanuele/chem_software/gaussian//gdv/l1.exe PID=     10357.
  
 Copyright (c) 1988-2020, Gaussian, Inc.  All Rights Reserved.
  
 This is the private, development version of
 the Gaussian(R) DV system of programs. It is based on
 the Gaussian(R) 16 system (copyright 2016, Gaussian, Inc.),
 the Gaussian(R) 09 system (copyright 2009, Gaussian, Inc.),
 the Gaussian(R) 03 system (copyright 2003, Gaussian, Inc.),
 the Gaussian(R) 98 system (copyright 1998, Gaussian, Inc.),
 the Gaussian(R) 94 system (copyright 1995, Gaussian, Inc.),
 the Gaussian 92(TM) system (copyright 1992, Gaussian, Inc.),
 the Gaussian 90(TM) system (copyright 1990, Gaussian, Inc.),
 the Gaussian 88(TM) system (copyright 1988, Gaussian, Inc.),
 the Gaussian 86(TM) system (copyright 1986, Carnegie Mellon
 University), and the Gaussian 82(TM) system (copyright 1983,
 Carnegie Mellon University). Gaussian is a federally registered
 trademark of Gaussian, Inc.
  
 This software contains proprietary and confidential information,
 including trade secrets, belonging to Gaussian, Inc.
  
 This software is provided under written license and may be
 used, copied, transmitted, or stored only in accord with that
 written license.
  
 The following legend is applicable only to US Government
 contracts under FAR:
  
                    RESTRICTED RIGHTS LEGEND
  
 Use, reproduction and disclosure by the US Government is
 subject to restrictions as set forth in subparagraphs (a)
 and (c) of the Commercial Computer Software - Restricted
 Rights clause in FAR 52.227-19.
  
 Gaussian, Inc.
 340 Quinnipiac St., Bldg. 40, Wallingford CT 06492
  
  
 ---------------------------------------------------------------
 Warning -- This program may not be used in any manner that
 competes with the business of Gaussian, Inc. or will provide
 assistance to any competitor of Gaussian, Inc.  The licensee
 of this program is prohibited from giving any competitor of
 Gaussian, Inc. access to this program.  By using this program,
 the user acknowledges that Gaussian, Inc. is engaged in the
 business of creating and licensing software in the field of
 computational chemistry and represents and warrants to the
 licensee that it is not a competitor of Gaussian, Inc. and that
 it will not use this program in any manner prohibited above.
 ---------------------------------------------------------------
  

 Cite this work as:
 Gaussian Development Version, Revision J.14,
 M. J. Frisch, G. W. Trucks, H. B. Schlegel, G. E. Scuseria, 
 M. A. Robb, J. R. Cheeseman, G. Scalmani, V. Barone, 
 G. A. Petersson, H. Nakatsuji, X. Li, A. V. Marenich, M. Caricato, 
 J. Bloino, B. G. Janesko, J. Zheng, R. Gomperts, B. Mennucci, 
 H. P. Hratchian, J. V. Ortiz, A. F. Izmaylov, J. L. Sonnenberg, 
 D. Williams-Young, F. Ding, F. Lipparini, F. Egidi, J. Goings, 
 B. Peng, A. Petrone, T. Henderson, D. Ranasinghe, V. G. Zakrzewski, 
 J. Gao, N. Rega, G. Zheng, W. Liang, M. Hada, M. Ehara, K. Toyota, 
 R. Fukuda, J. Hasegawa, M. Ishida, T. Nakajima, Y. Honda, O. Kitao, 
 H. Nakai, T. Vreven, K. Throssell, J. A. Montgomery, Jr., 
 J. E. Peralta, F. Ogliaro, M. J. Bearpark, J. J. Heyd, 
 E. N. Brothers, K. N. Kudin, V. N. Staroverov, T. A. Keith, 
 R. Kobayashi, J. Normand, K. Raghavachari, A. P. Rendell, 
 J. C. Burant, S. S. Iyengar, J. Tomasi, M. Cossi, J. M. Millam, 
 M. Klene, C. Adamo, R. Cammi, J. W. Ochterski, R. L. Martin, 
 K. Morokuma, O. Farkas, J. B. Foresman, and D. J. Fox, 
 Gaussian, Inc., Wallingford CT, 2020.
 
 ******************************************
 Gaussian DV:  ES64L-GDVRevJ.14 29-Dec-2020
                 1-Jan-2024 
 ******************************************
 %mem=1GB
 %nprocshared=1
 Will use up to    1 processors via shared memory.
 %chk=0_mm_80.chk
 ----------------------------------------------
 #p Amber=(SoftFirst,Print) geom=nocrowd nosymm
 ----------------------------------------------
 1/37=210000000,38=1,56=2,64=203,172=1/1;
 2/12=1,15=1,40=1/2;
 3/5=30,11=9,25=1,30=1,41=10030000,43=2/1;
 4/20=11,24=3,119=11/2;
 99/5=1,9=1/99;
 Leave Link    1 at Mon Jan  1 12:04:47 2024, MaxMem=   134217728 cpu:               0.0 elap:               0.0
 (Enter /home/emanuele/chem_software/gaussian//gdv/l101.exe)
 -----
 Title
 -----
 Symbolic Z-matrix:
 Charge =  0 Multiplicity = 1
 C-C-+0.299289        -0.57974  -0.25416   0.10824 
 O-OH--0.289770       -1.11491   0.94516  -0.3796 
 C-CT--0.035454        0.85396  -0.44573  -0.37473 
 H-HC-+0.090426        0.76042  -1.25679  -1.12303 
 H-HC-+0.095387        1.00547   0.36189  -1.10677 
 N-N3--0.336253        1.89224  -0.41708   0.66165 
 H-H-+0.142619         1.98902   0.48016   1.13918 
 H-H-+0.128282         1.85971  -1.20561   1.31017 
 O-O2--0.308037       -1.31089  -1.13162   0.60576 
 H-HO-+0.213510       -2.07326   1.00019  -0.11591 
 
 ITRead=  0  0  0  0  0  0  0  0  0  0
 MicOpt= -1 -1 -1 -1 -1 -1 -1 -1 -1 -1
 NAtoms=     10 NQM=       10 NQMF=       0 NMMI=      0 NMMIF=      0
                NMic=       0 NMicF=      0.
                    Isotopes and Nuclear Properties:
 (Nuclear quadrupole moments (NQMom) in fm**2, nuclear magnetic moments (NMagM)
  in nuclear magnetons)

  Atom         1           2           3           4           5           6           7           8           9          10
 IAtWgt=          12          16          12           1           1          14           1           1          16           1
 AtmWgt=  12.0000000  15.9949146  12.0000000   1.0078250   1.0078250  14.0030740   1.0078250   1.0078250  15.9949146   1.0078250
 NucSpn=           0           0           0           1           1           2           1           1           0           1
 AtZEff=  -0.0000000  -0.0000000  -0.0000000  -0.0000000  -0.0000000  -0.0000000  -0.0000000  -0.0000000  -0.0000000  -0.0000000
 NQMom=    0.0000000   0.0000000   0.0000000   0.0000000   0.0000000   2.0440000   0.0000000   0.0000000   0.0000000   0.0000000
 NMagM=    0.0000000   0.0000000   0.0000000   2.7928460   2.7928460   0.4037610   2.7928460   2.7928460   0.0000000   2.7928460
 AtZNuc=   6.0000000   8.0000000   6.0000000   1.0000000   1.0000000   7.0000000   1.0000000   1.0000000   8.0000000   1.0000000
 Generating MM parameters.
 Read MM parameter file:
 Include all MM classes

 MM sanity checks:
 All charges sum to:               -0.00000100
 Charges of atoms sum to:          -0.00000100
 WARNING -- The following centers have non-zero partial charges, but zero Vanderwaals
 parameters.  These centers can collapse onto other centers with non-zero charge.
   Center  Layer   Charge
     10 H    R    0.213510
 MMInit generated parameter data with length LenPar=        2069.
 MM Charge=             -0.0000 electrons
 MM Dipole moment (Debye):
    X=              0.6295    Y=              0.9747    Z=             -0.7432  Tot=              1.3779
 MM Quadrupole moment (Debye-Ang):
   XX=              0.2670   YY=             -0.5345   ZZ=              1.6118
   XY=             -2.2791   XZ=              0.9472   YZ=              1.6034
 MM Traceless Quadrupole moment (Debye-Ang):
   XX=             -0.1811   YY=             -0.9826   ZZ=              1.1637
   XY=             -2.2791   XZ=              0.9472   YZ=              1.6034
 MM Octapole moment (Debye-Ang**2):
  XXX=             -5.1960  YYY=              0.2593  ZZZ=              0.4507  XYY=              3.6903
  XXY=              6.5796  XXZ=             -0.0372  XZZ=              4.2547  YZZ=             -0.5938
  YYZ=             -0.4414  XYZ=             -1.5809
 MM Hexadecapole moment (Debye-Ang**3):
 XXXX=             10.4993 YYYY=             -0.1307 ZZZZ=              3.8069 XXXY=             -8.6683
 XXXZ=              5.7185 YYYX=             -5.8705 YYYZ=              1.3113 ZZZX=              2.9699
 ZZZY=             -0.0028 XXYY=              2.7886 XXZZ=              4.3926 YYZZ=              1.6937
 XXYZ=              1.6997 YYXZ=              2.7655 ZZXY=             -1.8947
 Leave Link  101 at Mon Jan  1 12:04:47 2024, MaxMem=   134217728 cpu:               0.2 elap:               0.2
 (Enter /home/emanuele/chem_software/gaussian//gdv/l202.exe)
                          Input orientation:                          
 ---------------------------------------------------------------------
 Center     Atomic      Atomic             Coordinates (Angstroms)
 Number     Number       Type             X           Y           Z
 ---------------------------------------------------------------------
      1          6    20001002       -0.579736   -0.254163    0.108235
      2          8    20001022       -1.114906    0.945161   -0.379602
      3          6    20001001        0.853963   -0.445726   -0.374726
      4          1    20001034        0.760416   -1.256789   -1.123030
      5          1    20001034        1.005465    0.361888   -1.106769
      6          7    20001020        1.892240   -0.417076    0.661647
      7          1    20001029        1.989022    0.480158    1.139176
      8          1    20001029        1.859713   -1.205609    1.310168
      9          8    20001025       -1.310892   -1.131624    0.605764
     10          1    20001031       -2.073259    1.000192   -0.115911
 ---------------------------------------------------------------------
                    Distance matrix (angstroms):
                    1          2          3          4          5
     1  C    0.000000
     2  O    1.400989   0.000000
     3  C    1.524940   2.410609   0.000000
     4  H    2.077806   2.986319   1.107490   0.000000
     5  H    2.090123   2.316237   1.100491   1.637201   0.000000
     6  N    2.538399   3.461620   1.467279   2.274031   2.126135
     7  H    2.863666   3.486730   2.106542   3.105484   2.454718
     8  H    2.881112   4.040977   2.104239   2.670492   3.004725
     9  O    1.245818   2.307031   2.473543   2.700872   3.244820
    10  H    1.963227   0.995491   3.275102   3.760049   3.296631
                    6          7          8          9         10
     6  N    0.000000
     7  H    1.020994   0.000000
     8  H    1.021480   1.699344   0.000000
     9  O    3.282340   3.711038   3.248753   0.000000
    10  H    4.282339   4.283434   4.729432   2.376270   0.000000
 Symmetry turned off by external request.
 Stoichiometry    C2H5NO2
 Framework group  C1[X(C2H5NO2)]
 Deg. of freedom    24
 Full point group                 C1      NOp   1
 Rotational constants (GHZ):           8.7809327           3.6732818           2.9146812
 Leave Link  202 at Mon Jan  1 12:04:47 2024, MaxMem=   134217728 cpu:               0.0 elap:               0.0
 (Enter /home/emanuele/chem_software/gaussian//gdv/l301.exe)
 Standard basis: Dummy (5D, 7F)
    10 basis functions,    10 primitive gaussians,    10 cartesian basis functions
     7 alpha electrons        7 beta electrons
       nuclear repulsion energy        22.3406950317 Hartrees.
 IExCor=       0 DFT=F Ex=HF Corr=None N6=None ScaHFX=  1.000000
 ScaDFX=  1.000000  1.000000  1.000000  1.000000  1.000000  0.000000
 ScaDFX=  0.000000  0.000000  0.000000  0.000000  0.000000  0.000000
 IRadAn=      5 IRanWt=     -1 IRanGd=            0 ICorTp=0 IEmpDi=  4
 NAtoms=   10 NActive=   10 NUniq=   10 SFac= 1.00D+00 NAtFMM=   60 NAOKFM=F Big=F
 Integral buffers will be    131072 words long.
 Raffenetti 1 integral format.
 Two-electron integral symmetry is turned off.
 Leave Link  301 at Mon Jan  1 12:04:47 2024, MaxMem=   134217728 cpu:               0.0 elap:               0.0
 (Enter /home/emanuele/chem_software/gaussian//gdv/l402.exe)
 AMBER calculation of energy.
 ****************************
 MOLECULAR MECHANICS FUNCTION
 ****************************
 Atomic parameters:
 Center  VDW
      1 1.9080 0.0860000
      2 1.7210 0.2104000
      3 1.9080 0.1094000
      4 1.4870 0.0157000
      5 1.4870 0.0157000
      6 1.8750 0.1700000
      7 0.6000 0.0157000
      8 0.6000 0.0157000
      9 1.6612 0.2100000
     10 0.0000 0.0000000
 Molecular mechanics terms:
 NBDir 3 1      0      0
 HrmStr1  1- 2  431.53 1.3510
 HrmStr1  1- 3  294.15 1.5090
 HrmStr1  1- 9  946.08 1.2030
 HrmStr1  2-10  566.76 0.9680
 HrmStr1  3- 4  358.05 1.0960
 HrmStr1  3- 5  358.05 1.0960
 HrmStr1  3- 6  380.82 1.4520
 HrmStr1  6- 7  506.01 1.0110
 HrmStr1  6- 8  506.01 1.0110
 HrmBnd1  1- 2-10  56.55 107.23
 HrmBnd1  1- 3- 4  46.41 106.89
 HrmBnd1  1- 3- 5  46.41 106.89
 HrmBnd1  1- 3- 6  59.93 110.61
 HrmBnd1  2- 1- 3  67.92 111.72
 HrmBnd1  2- 1- 9  91.40 123.02
 HrmBnd1  3- 1- 9  62.83 125.24
 HrmBnd1  3- 6- 7  52.60 110.71
 HrmBnd1  3- 6- 8  52.60 110.71
 HrmBnd1  4- 3- 5  44.68 106.22
 HrmBnd1  4- 3- 6  52.45 112.94
 HrmBnd1  5- 3- 6  52.45 112.94
 HrmBnd1  7- 6- 8  47.09 108.63
 AmbTrs  3- 1- 2-10   0 180   0   0  0.0000 14.5000  0.0000  0.0000  2.0
 AmbTrs  9- 1- 2-10   0   0   0   0  0.0000 14.5000  0.0000  0.0000  2.0
 AmbTrs  2- 1- 3- 4   0   0   0   0  0.0000  0.0000  0.0000  0.0000  6.0
 AmbTrs  2- 1- 3- 5   0   0   0   0  0.0000  0.0000  0.0000  0.0000  6.0
 AmbTrs  2- 1- 3- 6   0   0   0   0  0.0000 14.5000  0.0000  0.0000  6.0
 AmbTrs  9- 1- 3- 4   0   0   0   0  0.0000 14.5000  0.0000  0.0000  6.0
 AmbTrs  9- 1- 3- 5   0   0   0   0  0.0000 14.5000  0.0000  0.0000  6.0
 AmbTrs  9- 1- 3- 6   0   0   0   0  0.0000 14.5000  0.0000  0.0000  6.0
 AmbTrs  1- 3- 6- 7   0 180   0   0  0.0000 25.6300  0.0000  0.0000  6.0
 AmbTrs  1- 3- 6- 8   0 180   0   0  0.0000 25.6300  0.0000  0.0000  6.0
 AmbTrs  4- 3- 6- 7   0   0   0   0  0.0000 16.9300  0.0000  0.0000  6.0
 AmbTrs  4- 3- 6- 8   0   0   0   0  0.0000 16.9300  0.0000  0.0000  6.0
 AmbTrs  5- 3- 6- 7   0   0   0   0  0.0000 16.9300  0.0000  0.0000  6.0
 AmbTrs  5- 3- 6- 8   0   0   0   0  0.0000 16.9300  0.0000  0.0000  6.0
 NBPair  2- 1 3 1      0      0 -1.000 -1.000
 NBPair  3- 2 3 1      0      0 -1.000 -1.000
 NBPair 10- 3 3 1      0      0 -0.500 -0.167
 NBPair  9- 2 3 1      0      0 -1.000 -1.000
 NBPair 10- 9 3 1      0      0 -0.500 -0.167
 NBPair  3- 1 3 1      0      0 -1.000 -1.000
 NBPair  4- 2 3 1      0      0 -0.500 -0.167
 NBPair  5- 2 3 1      0      0 -0.500 -0.167
 NBPair  6- 2 3 1      0      0 -0.500 -0.167
 NBPair  9- 3 3 1      0      0 -1.000 -1.000
 NBPair  9- 4 3 1      0      0 -0.500 -0.167
 NBPair  9- 5 3 1      0      0 -0.500 -0.167
 NBPair  9- 6 3 1      0      0 -0.500 -0.167
 NBPair  9- 1 3 1      0      0 -1.000 -1.000
 NBPair 10- 1 3 1      0      0 -1.000 -1.000
 NBPair 10- 2 3 1      0      0 -1.000 -1.000
 NBPair  4- 1 3 1      0      0 -1.000 -1.000
 NBPair  5- 1 3 1      0      0 -1.000 -1.000
 NBPair  6- 1 3 1      0      0 -1.000 -1.000
 NBPair  4- 3 3 1      0      0 -1.000 -1.000
 NBPair  5- 4 3 1      0      0 -1.000 -1.000
 NBPair  6- 4 3 1      0      0 -1.000 -1.000
 NBPair  5- 3 3 1      0      0 -1.000 -1.000
 NBPair  6- 5 3 1      0      0 -1.000 -1.000
 NBPair  6- 3 3 1      0      0 -1.000 -1.000
 NBPair  7- 1 3 1      0      0 -0.500 -0.167
 NBPair  8- 1 3 1      0      0 -0.500 -0.167
 NBPair  7- 4 3 1      0      0 -0.500 -0.167
 NBPair  8- 4 3 1      0      0 -0.500 -0.167
 NBPair  7- 5 3 1      0      0 -0.500 -0.167
 NBPair  8- 5 3 1      0      0 -0.500 -0.167
 NBPair  7- 3 3 1      0      0 -1.000 -1.000
 NBPair  8- 3 3 1      0      0 -1.000 -1.000
 NBPair  7- 6 3 1      0      0 -1.000 -1.000
 NBPair  8- 7 3 1      0      0 -1.000 -1.000
 NBPair  8- 6 3 1      0      0 -1.000 -1.000
 Energy per function type:
 Direct Coulomb + vdW (small)                           0.010155432
 Direct Coulomb (large)                                -0.128963381
 Direct vdW (large)                                   213.745516969
 Non-direct Coulomb + vdW (small)                      -0.019248371
 Non-direct Coulomb (large)                             0.135288085
 Non-direct vdW (large)                              -213.745516969
 Harmonic stretch I                                     0.005681855
 Harmonic bend I                                        0.007957326
 Amber torsion                                          0.078161323
 Energy per function class:
        Coulomb              -0.004032645
    Vanderwaals               0.001264410
     Stretching               0.005681855
        Bending               0.007957326
        Torsion               0.078161323
 Energy=    8.903227033E-02 NIter=   0.
 Dipole moment=       0.247670       0.383475      -0.292404
 Leave Link  402 at Mon Jan  1 12:04:47 2024, MaxMem=   134217728 cpu:               0.0 elap:               0.0
 (Enter /home/emanuele/chem_software/gaussian//gdv/l9999.exe)
 Unable to Open any file for archive entry.
 1\1\GINC-EMANUELE-XPS-13-9343\SP\AMBER\ZDO\C2H5N1O2\EMANUELE\01-Jan-20
 24\0\\#p Amber=(SoftFirst,Print) geom=nocrowd nosymm\\Title\\0,1\C,0,-
 0.579736,-0.254163,0.108235\O,0,-1.114906,0.945161,-0.379602\C,0,0.853
 963,-0.445726,-0.374726\H,0,0.760416,-1.256789,-1.12303\H,0,1.005465,0
 .361888,-1.106769\N,0,1.89224,-0.417076,0.661647\H,0,1.989022,0.480158
 ,1.139176\H,0,1.859713,-1.205609,1.310168\O,0,-1.310892,-1.131624,0.60
 5764\H,0,-2.073259,1.000192,-0.115911\\Version=ES64L-GDVRevJ.14\HF=0.0
 890323\RMSD=0.000e+00\Dipole=0.24767,0.3834748,-0.2924043\PG=C01 [X(C2
 H5N1O2)]\\@
 The archive entry for this job was punched.


 WHAT THE SLIME CONTAINS, THE GLOWING REVEALS
 BY THE FLAME'S BRIGHT HUE WHEN YOU IGNITE IT.
   --  LEONARD THURNEYSSER, 1531-1596
 DESCRIBING HIS FLAME PHOTOLYSIS ANALYTIC METHOD
 Job cpu time:       0 days  0 hours  0 minutes  0.4 seconds.
 Elapsed time:       0 days  0 hours  0 minutes  0.4 seconds.
 File lengths (MBytes):  RWF=      6 Int=      0 D2E=      0 Chk=      1 Scr=      1
 Normal termination of Gaussian DV at Mon Jan  1 12:04:47 2024.
