 Entering Gaussian System, Link 0=/home/emanuele/chem_software/gaussian//g09/g09
 Input=0_mm_50.gjf
 Output=0_mm_50.log
 Initial command:
 /home/emanuele/chem_software/gaussian//gdv/l1.exe "/home/emanuele/chem_software/gaussian/scratch/Gau-13799.inp" -scrdir="/home/emanuele/chem_software/gaussian/scratch/"
 Entering Link 1 = /home/emanuele/chem_software/gaussian//gdv/l1.exe PID=     13801.
  
 Copyright (c) 1988-2020, Gaussian, Inc.  All Rights Reserved.
  
 This is the private, development version of
 the Gaussian(R) DV system of programs. It is based on
 the Gaussian(R) 16 system (copyright 2016, Gaussian, Inc.),
 the Gaussian(R) 09 system (copyright 2009, Gaussian, Inc.),
 the Gaussian(R) 03 system (copyright 2003, Gaussian, Inc.),
 the Gaussian(R) 98 system (copyright 1998, Gaussian, Inc.),
 the Gaussian(R) 94 system (copyright 1995, Gaussian, Inc.),
 the Gaussian 92(TM) system (copyright 1992, Gaussian, Inc.),
 the Gaussian 90(TM) system (copyright 1990, Gaussian, Inc.),
 the Gaussian 88(TM) system (copyright 1988, Gaussian, Inc.),
 the Gaussian 86(TM) system (copyright 1986, Carnegie Mellon
 University), and the Gaussian 82(TM) system (copyright 1983,
 Carnegie Mellon University). Gaussian is a federally registered
 trademark of Gaussian, Inc.
  
 This software contains proprietary and confidential information,
 including trade secrets, belonging to Gaussian, Inc.
  
 This software is provided under written license and may be
 used, copied, transmitted, or stored only in accord with that
 written license.
  
 The following legend is applicable only to US Government
 contracts under FAR:
  
                    RESTRICTED RIGHTS LEGEND
  
 Use, reproduction and disclosure by the US Government is
 subject to restrictions as set forth in subparagraphs (a)
 and (c) of the Commercial Computer Software - Restricted
 Rights clause in FAR 52.227-19.
  
 Gaussian, Inc.
 340 Quinnipiac St., Bldg. 40, Wallingford CT 06492
  
  
 ---------------------------------------------------------------
 Warning -- This program may not be used in any manner that
 competes with the business of Gaussian, Inc. or will provide
 assistance to any competitor of Gaussian, Inc.  The licensee
 of this program is prohibited from giving any competitor of
 Gaussian, Inc. access to this program.  By using this program,
 the user acknowledges that Gaussian, Inc. is engaged in the
 business of creating and licensing software in the field of
 computational chemistry and represents and warrants to the
 licensee that it is not a competitor of Gaussian, Inc. and that
 it will not use this program in any manner prohibited above.
 ---------------------------------------------------------------
  

 Cite this work as:
 Gaussian Development Version, Revision J.14,
 M. J. Frisch, G. W. Trucks, H. B. Schlegel, G. E. Scuseria, 
 M. A. Robb, J. R. Cheeseman, G. Scalmani, V. Barone, 
 G. A. Petersson, H. Nakatsuji, X. Li, A. V. Marenich, M. Caricato, 
 J. Bloino, B. G. Janesko, J. Zheng, R. Gomperts, B. Mennucci, 
 H. P. Hratchian, J. V. Ortiz, A. F. Izmaylov, J. L. Sonnenberg, 
 D. Williams-Young, F. Ding, F. Lipparini, F. Egidi, J. Goings, 
 B. Peng, A. Petrone, T. Henderson, D. Ranasinghe, V. G. Zakrzewski, 
 J. Gao, N. Rega, G. Zheng, W. Liang, M. Hada, M. Ehara, K. Toyota, 
 R. Fukuda, J. Hasegawa, M. Ishida, T. Nakajima, Y. Honda, O. Kitao, 
 H. Nakai, T. Vreven, K. Throssell, J. A. Montgomery, Jr., 
 J. E. Peralta, F. Ogliaro, M. J. Bearpark, J. J. Heyd, 
 E. N. Brothers, K. N. Kudin, V. N. Staroverov, T. A. Keith, 
 R. Kobayashi, J. Normand, K. Raghavachari, A. P. Rendell, 
 J. C. Burant, S. S. Iyengar, J. Tomasi, M. Cossi, J. M. Millam, 
 M. Klene, C. Adamo, R. Cammi, J. W. Ochterski, R. L. Martin, 
 K. Morokuma, O. Farkas, J. B. Foresman, and D. J. Fox, 
 Gaussian, Inc., Wallingford CT, 2020.
 
 ******************************************
 Gaussian DV:  ES64L-GDVRevJ.14 29-Dec-2020
                29-Nov-2023 
 ******************************************
 %mem=1GB
 %nprocshared=1
 Will use up to    1 processors via shared memory.
 %chk=0_mm_50.chk
 -----------------------------------------------------------------
 #p Amber=(SoftFirst,Print) geom=nocrowd nosymm opt=(maxcycle=300)
 -----------------------------------------------------------------
 1/6=300,10=10,18=4000020,19=15,37=210000000,38=1,56=2,64=203/1,3;
 2/9=110,12=1,15=1,40=1/2;
 3/5=30,11=9,25=1,30=1,41=10030000,43=2,71=1/1;
 4/20=11,22=1001,24=3,119=11/2;
 7/30=1,44=-1/16;
 1/6=300,10=10,18=4000020,19=15,64=203/3(2);
 2/9=110,12=1,15=1/2;
 99//99;
 2/9=110,12=1,15=1/2;
 3/5=30,11=9,25=1,30=1,41=10030000,43=2,71=1/1;
 4/16=2,20=11,22=1001,24=3,119=11/2;
 7/30=1,44=-1/16;
 1/6=300,10=10,18=4000020,19=15,64=203/3(-4);
 2/9=110,12=1,15=1/2;
 99/9=10/99;
 Leave Link    1 at Wed Nov 29 12:05:15 2023, MaxMem=   134217728 cpu:               0.0 elap:               0.0
 (Enter /home/emanuele/chem_software/gaussian//gdv/l101.exe)
 -----
 Title
 -----
 Symbolic Z-matrix:
 Charge =  0 Multiplicity = 1
 C-C-+0.299289        -0.641    -0.34665  -0.19411 
 O-OH--0.289770       -0.76224   0.66373   0.74182 
 C-CT--0.035454        0.81554  -0.74972  -0.31746 
 H-HC-+0.090426        0.76551  -1.86113  -0.48921 
 H-HC-+0.095387        1.04357  -0.54419  -1.39535 
 N-N3--0.336253        1.83225  -0.13839   0.55892 
 H-H-+0.142619         1.80137   0.87723   0.49081 
 H-H-+0.128282         1.65142  -0.37421   1.53458 
 O-O2--0.308037       -1.5504   -0.51175  -0.96826 
 H-HO-+0.213510       -1.67399   1.06148   0.76322 
 
 ITRead=  3  3  3  3  3  3  3  3  3  3
 MicOpt=  0  0  0  0  0  0  0  0  0  0
 NAtoms=     10 NQM=        0 NQMF=       0 NMMI=      0 NMMIF=      0
                NMic=      10 NMicF=      0.
                    Isotopes and Nuclear Properties:
 (Nuclear quadrupole moments (NQMom) in fm**2, nuclear magnetic moments (NMagM)
  in nuclear magnetons)

  Atom         1           2           3           4           5           6           7           8           9          10
 IAtWgt=          12          16          12           1           1          14           1           1          16           1
 AtmWgt=  12.0000000  15.9949146  12.0000000   1.0078250   1.0078250  14.0030740   1.0078250   1.0078250  15.9949146   1.0078250
 NucSpn=           0           0           0           1           1           2           1           1           0           1
 AtZEff=  -0.0000000  -0.0000000  -0.0000000  -0.0000000  -0.0000000  -0.0000000  -0.0000000  -0.0000000  -0.0000000  -0.0000000
 NQMom=    0.0000000   0.0000000   0.0000000   0.0000000   0.0000000   2.0440000   0.0000000   0.0000000   0.0000000   0.0000000
 NMagM=    0.0000000   0.0000000   0.0000000   2.7928460   2.7928460   0.4037610   2.7928460   2.7928460   0.0000000   2.7928460
 AtZNuc=   6.0000000   8.0000000   6.0000000   1.0000000   1.0000000   7.0000000   1.0000000   1.0000000   8.0000000   1.0000000
 Generating MM parameters.
 I=    1 IAn=  6 Valence= 5.
          JB=  1 J=    2 IAn=  8 IBT=12 Dist= 1.38D+00
          JB=  2 J=    3 IAn=  6 IBT= 1 Dist= 1.52D+00
          JB=  3 J=    9 IAn=  8 IBT= 2 Dist= 1.21D+00
 I=    2 IAn=  8 Valence= 3.
          JB=  1 J=    1 IAn=  6 IBT=12 Dist= 1.38D+00
          JB=  2 J=   10 IAn=  1 IBT= 1 Dist= 9.95D-01
 Read MM parameter file:
 Include all MM classes

 MM sanity checks:
 All charges sum to:               -0.00000100
 Charges of atoms sum to:          -0.00000100
 WARNING -- The following centers have non-zero partial charges, but zero Vanderwaals
 parameters.  These centers can collapse onto other centers with non-zero charge.
   Center  Layer   Charge
     10 H    R    0.213510
 MMInit generated parameter data with length LenPar=        2069.
 MM Charge=             -0.0000 electrons
 MM Dipole moment (Debye):
    X=              0.6806    Y=              0.0875    Z=              0.4851  Tot=              0.8404
 MM Quadrupole moment (Debye-Ang):
   XX=             -1.7793   YY=              2.4545   ZZ=              0.5888
   XY=             -1.6362   XZ=             -2.8380   YZ=              0.2780
 MM Traceless Quadrupole moment (Debye-Ang):
   XX=             -2.2006   YY=              2.0332   ZZ=              0.1675
   XY=             -1.6362   XZ=             -2.8380   YZ=              0.2780
 MM Octapole moment (Debye-Ang**2):
  XXX=             -1.5912  YYY=             -1.4096  ZZZ=              1.9559  XYY=              1.2737
  XXY=              5.5402  XXZ=              4.7768  XZZ=              4.4652  YZZ=             -0.1776
  YYZ=              0.2476  XYZ=              1.0148
 MM Hexadecapole moment (Debye-Ang**3):
 XXXX=             -6.5126 YYYY=              6.5658 ZZZZ=              3.6872 XXXY=             -4.1156
 XXXZ=             -8.6012 YYYX=             -3.3865 YYYZ=              2.0837 ZZZX=             -0.4328
 ZZZY=             -0.5321 XXYY=              4.8291 XXZZ=              1.7367 YYZZ=              0.9140
 XXYZ=              1.2026 YYXZ=             -1.7729 ZZXY=             -2.9147
 Leave Link  101 at Wed Nov 29 12:05:15 2023, MaxMem=   134217728 cpu:               0.3 elap:               0.3
 (Enter /home/emanuele/chem_software/gaussian//gdv/l103.exe)

 GradGradGradGradGradGradGradGradGradGradGradGradGradGradGradGradGradGrad
 Berny optimization.
 Initialization pass.
 No Z-matrix variables, so optimization will use Cartesian coordinates.
 Trust Radius=1.00D-01 FncErr=1.00D-07 GrdErr=1.00D-07 EigMax=2.50D+02 EigMin=1.00D-04
 Number of steps in this run=      2 maximum allowed number of steps=      2.
 GradGradGradGradGradGradGradGradGradGradGradGradGradGradGradGradGradGrad

 Leave Link  103 at Wed Nov 29 12:05:15 2023, MaxMem=   134217728 cpu:               0.0 elap:               0.0
 (Enter /home/emanuele/chem_software/gaussian//gdv/l202.exe)
                          Input orientation:                          
 ---------------------------------------------------------------------
 Center     Atomic      Atomic             Coordinates (Angstroms)
 Number     Number       Type             X           Y           Z
 ---------------------------------------------------------------------
      1          6    20001002       -0.641003   -0.346647   -0.194107
      2          8    20001022       -0.762238    0.663728    0.741815
      3          6    20001001        0.815538   -0.749716   -0.317463
      4          1    20001034        0.765511   -1.861126   -0.489210
      5          1    20001034        1.043566   -0.544192   -1.395350
      6          7    20001020        1.832249   -0.138389    0.558924
      7          1    20001029        1.801369    0.877232    0.490810
      8          1    20001029        1.651416   -0.374210    1.534577
      9          8    20001025       -1.550396   -0.511751   -0.968261
     10          1    20001031       -1.673988    1.061484    0.763217
 ---------------------------------------------------------------------
                    Distance matrix (angstroms):
                    1          2          3          4          5
     1  C    0.000000
     2  O    1.382572   0.000000
     3  C    1.516309   2.368390   0.000000
     4  H    2.087825   3.197550   1.125714   0.000000
     5  H    2.078408   3.047536   1.120749   1.622566   0.000000
     6  N    2.593724   2.721802   1.474950   2.281302   2.146132
     7  H    2.816411   2.584699   2.066913   3.087401   2.480385
     8  H    2.871288   2.744360   2.066337   2.662980   2.997140
     9  O    1.205641   2.219753   2.465321   2.722816   2.629087
    10  H    1.991572   0.994965   3.262829   4.007665   3.823965
                    6          7          8          9         10
     6  N    0.000000
     7  H    1.018371   0.000000
     8  H    1.019907   1.636473   0.000000
     9  O    3.730145   3.910561   4.066290   0.000000
    10  H    3.711486   3.490883   3.703313   2.342725   0.000000
 Symmetry turned off by external request.
 Stoichiometry    C2H5NO2
 Framework group  C1[X(C2H5NO2)]
 Deg. of freedom    24
 Full point group                 C1      NOp   1
 Rotational constants (GHZ):          10.1582331           3.9081645           2.9190551
 Leave Link  202 at Wed Nov 29 12:05:15 2023, MaxMem=   134217728 cpu:               0.0 elap:               0.0
 (Enter /home/emanuele/chem_software/gaussian//gdv/l301.exe)
 Standard basis: Dummy (5D, 7F)
    10 basis functions,    10 primitive gaussians,    10 cartesian basis functions
     7 alpha electrons        7 beta electrons
       nuclear repulsion energy        22.6567736302 Hartrees.
 IExCor=       0 DFT=F Ex=HF Corr=None N6=None ScaHFX=  1.000000
 ScaDFX=  1.000000  1.000000  1.000000  1.000000  1.000000  0.000000
 ScaDFX=  0.000000  0.000000  0.000000  0.000000  0.000000  0.000000
 IRadAn=      5 IRanWt=     -1 IRanGd=            0 ICorTp=0 IEmpDi=  4
 NAtoms=   10 NActive=   10 NUniq=   10 SFac= 1.00D+00 NAtFMM=   60 NAOKFM=F Big=F
 Integral buffers will be    131072 words long.
 Raffenetti 1 integral format.
 Two-electron integral symmetry is turned off.
 Leave Link  301 at Wed Nov 29 12:05:15 2023, MaxMem=   134217728 cpu:               0.0 elap:               0.0
 (Enter /home/emanuele/chem_software/gaussian//gdv/l402.exe)
 AMBER calculation of energy and first derivatives.
 NRF= 0 NRA=   0 NVA=  10 HaveQM=F NVQ=       0
 Convergence limit is  0.750E-04 MaxStp= 10000 StMxLn= 3.00D-04 StpMin= 1.00D-06.
 Convergence criteria             0.00011250 0.00007500 0.00045000 0.00030000
  Step  NS  ND Rises OKQ   Scale  Max. Force  RMS Force Max. Disp.  RMS Disp.     Energy   Flag
     1   0   0   F    T  1.00D+00 0.06653840 0.02075207 0.06653840 0.02075207    0.0842327 ----
     2   0   0   F    F  2.87D-01 0.06653840 0.02075207 0.01912089 0.00596345    0.0763579 ----
     3   0   0   F    T  2.27D+00 0.02183021 0.01050593 0.06823335 0.02671552    0.0759474 ----
     4   0   0   F    T  1.04D+00 0.04423873 0.01411178 0.07293514 0.02671552    0.0722033 ----
     5   0   0   F    F  4.50D-01 0.04423873 0.01411178 0.03281867 0.01202120    0.0681051 ----
     6   0   0   F    T  2.78D+00 0.02245682 0.00922654 0.09504490 0.03873671    0.0676625 ----
     7   0   0   F    F -3.18D-01 0.02245682 0.00922654 0.03019734 0.01230730    0.0657624 ----
     8   0   0   F    T  2.19D+00 0.02003289 0.00776471 0.06999892 0.02642942    0.0652180 ----
     9   0   0   F    F  1.22D+00 0.02003289 0.00776471 0.08553760 0.03229634    0.0621232 ----
    10   0   0   F    F -5.63D-02 0.02003289 0.00776471 0.00481536 0.00181813    0.0608164 ----
    11   0   0   F    T  4.44D+00 0.01632122 0.00780414 0.15267725 0.05690763    0.0608115 ----
    12   0   0   T    F  2.57D-01 0.01632122 0.00780414 0.03922957 0.01462210    0.0690425 ----
    13   0   0   F    T  1.51D+00 0.01473739 0.00617123 0.03413448 0.01462210    0.0597654 ----
    14   0   0   F    F  1.51D-01 0.01473739 0.00617123 0.00517062 0.00221493    0.0587835 ----
    15   0   0   F    T  1.83D+00 0.01177459 0.00555224 0.04116149 0.01683702    0.0587660 ----
    16   0   0   F    F  1.04D+00 0.01177459 0.00555224 0.04282826 0.01751881    0.0574855 ----
    17   0   0   F    F -1.99D-02 0.01177459 0.00555224 0.00085038 0.00034785    0.0570376 ----
    18   0   0   F    T  6.03D+00 0.01196192 0.00389786 0.08584335 0.03400799    0.0570374 ----
    19   0   0   T    F  3.05D-01 0.01196192 0.00389786 0.02621909 0.01038704    0.0586998 ----
    20   0   0   F    T  1.23D+00 0.01030357 0.00437913 0.02945582 0.01038704    0.0566204 ----
    21   0   0   F    F  5.38D-01 0.01030357 0.00437913 0.01584286 0.00558669    0.0561448 ----
    22   0   0   F    T  2.19D+00 0.00877612 0.00368842 0.04993567 0.01597373    0.0560785 ----
    23   0   0   F    F -1.55D-01 0.00877612 0.00368842 0.00775399 0.00248039    0.0557113 ----
    24   0   0   F    T  3.10D+00 0.00622734 0.00263059 0.03151416 0.01349333    0.0556982 ----
    25   0   0   F    F  1.19D-02 0.00622734 0.00263059 0.00037555 0.00016080    0.0553756 --++
    26   0   0   F    T  3.73D+00 0.00604009 0.00217370 0.02961642 0.01365413    0.0553756 ----
    27   0   0   F    F -4.68D-01 0.00604009 0.00217370 0.01385793 0.00638895    0.0553444 ----
    28   0   0   F    T  1.74D+00 0.00600414 0.00214386 0.01726101 0.00726518    0.0552345 ----
    29   0   0   F    F -3.80D-01 0.00600414 0.00214386 0.00656367 0.00276266    0.0551881 ----
    30   0   0   F    T  2.51D+00 0.00389267 0.00121701 0.00970282 0.00450252    0.0551599 ----
    31   0   0   F    F  7.76D-01 0.00389267 0.00121701 0.00752811 0.00349336    0.0550801 ----
    32   0   0   F    T  4.04D+00 0.00350163 0.00115520 0.01606511 0.00799588    0.0550614 ----
    33   0   0   F    F -3.62D-01 0.00350163 0.00115520 0.00581138 0.00289242    0.0550264 ----
    34   0   0   F    T  2.05D+00 0.00307474 0.00121364 0.01138710 0.00510346    0.0550097 ----
    35   0   0   F    F  4.44D-01 0.00307474 0.00121364 0.00505650 0.00226622    0.0549507 ----
    36   0   0   F    T  1.29D+00 0.00510961 0.00178462 0.01760200 0.00736967    0.0549446 ----
    37   0   0   F    F  2.15D-01 0.00510961 0.00178462 0.00378334 0.00158402    0.0548715 ----
    38   0   0   F    T  2.53D+00 0.00299908 0.00135571 0.02382622 0.00895370    0.0548691 ----
    39   0   0   F    F -4.39D-02 0.00299908 0.00135571 0.00104591 0.00039304    0.0548026 ----
    40   0   0   F    T  2.32D+00 0.00376453 0.00134494 0.02267505 0.00856065    0.0548025 ----
    41   0   0   F    F  2.42D+00 0.00376453 0.00134494 0.05484140 0.02070461    0.0546945 ----
    42   0   0   F    F -1.47D-02 0.00376453 0.00134494 0.00080681 0.00030460    0.0545862 ----
    43   0   0   F    T  4.72D+00 0.00486170 0.00170068 0.07842624 0.02896066    0.0545862 ----
    44   0   0   T    F  3.50D-01 0.00486170 0.00170068 0.02743065 0.01012939    0.0547433 ----
    45   0   0   F    T  1.38D+00 0.00491073 0.00179278 0.02452099 0.01012939    0.0545153 ----
    46   0   0   F    F  7.13D-01 0.00491073 0.00179278 0.01747275 0.00721783    0.0544208 ----
    47   0   0   F    T  1.43D+00 0.00667124 0.00224946 0.04106975 0.01734721    0.0544008 ----
    48   0   0   F    F  1.73D+00 0.00667124 0.00224946 0.07113409 0.03004592    0.0542180 ----
    49   0   0   F    F -4.02D-02 0.00667124 0.00224946 0.00285768 0.00120704    0.0540901 ----
    50   0   0   F    T  6.49D+00 0.00429979 0.00202885 0.11486080 0.04618610    0.0540898 ----
    51   0   0   F    F -1.94D-01 0.00429979 0.00202885 0.02223651 0.00894141    0.0538000 ----
    52   0   0   F    T  1.14D+00 0.01112164 0.00429253 0.09918113 0.03724469    0.0537851 ----
    53   0   0   F    F  2.06D-01 0.01112164 0.00429253 0.02042915 0.00767159    0.0533900 ----
    54   0   0   F    T  1.85D+00 0.00826077 0.00365038 0.11731580 0.04491628    0.0533769 ----
    55   0   0   F    F  6.65D-02 0.00826077 0.00365038 0.00780368 0.00298777    0.0529777 ----
    56   0   0   F    T  4.02D+00 0.00712860 0.00324977 0.11500940 0.04790405    0.0529762 ----
    57   0   0   T    F  4.10D-01 0.00712860 0.00324977 0.04717178 0.01964813    0.0532222 ----
    58   0   0   F    T  1.04D+00 0.01036798 0.00398098 0.04626149 0.01964813    0.0527182 ----
    59   0   0   F    F  1.28D+00 0.01036798 0.00398098 0.05899632 0.02505685    0.0523181 ----
    60   0   0   F    F -1.24D-02 0.01036798 0.00398098 0.00073164 0.00031074    0.0521224 ----
    61   0   0   F    T  1.71D+00 0.01286753 0.00467016 0.09953468 0.04439423    0.0521223 ----
    62   0   0   F    F  2.02D-01 0.01286753 0.00467016 0.02005969 0.00894698    0.0514441 ----
    63   0   0   F    F -2.00D-02 0.01286753 0.00467016 0.00040174 0.00017918    0.0514235 --++
    64   0   0   F    T  4.27D+00 0.01085744 0.00420717 0.14020756 0.05316203    0.0514235 ----
    65   0   0   T    F  2.21D-01 0.01085744 0.00420717 0.03094175 0.01173208    0.0540612 ----
    66   0   0   F    T  1.45D+00 0.00785481 0.00314994 0.02775917 0.01173208    0.0511752 ----
    67   0   0   F    F  4.20D+00 0.00785481 0.00314994 0.11655507 0.04926060    0.0507950 ----
    68   0   0   F    F -2.98D-02 0.00785481 0.00314994 0.00347726 0.00146962    0.0501640 ----
    69   0   0   F    T  1.92D+00 0.01389660 0.00578463 0.14819055 0.05952305    0.0501634 ----
    70   0   0   F    F  2.60D-01 0.01389660 0.00578463 0.03853348 0.01547757    0.0488847 ----
    71   0   0   F    F -2.52D-02 0.01389660 0.00578463 0.00097171 0.00039030    0.0488197 ----
    72   0   0   F    T  3.67D+00 0.01515988 0.00459231 0.17897644 0.07461033    0.0488197 ----
    73   0   0   F    F -3.02D-01 0.01515988 0.00459231 0.05396982 0.02249853    0.0481609 ----
    74   0   0   F    F -6.17D-03 0.01515988 0.00459231 0.00033309 0.00013886    0.0480119 --++
    75   0   0   F    T  1.76D+00 0.01606951 0.00578185 0.12637155 0.05225066    0.0480119 ----
    76   0   0   F    F  4.18D-02 0.01606951 0.00578185 0.00528154 0.00218375    0.0470478 ----
    77   0   0   F    T  1.60D+00 0.01446401 0.00639457 0.13329752 0.05443441    0.0470462 ----
    78   0   0   F    F -8.53D-03 0.01446401 0.00639457 0.00113669 0.00046419    0.0460632 ----
    79   0   0   F    T  2.71D+00 0.01262763 0.00540140 0.13558276 0.05397022    0.0460632 ----
    80   0   0   F    F  7.72D-01 0.01262763 0.00540140 0.10471102 0.04168138    0.0444069 ----
    81   0   0   F    F -9.68D-02 0.01262763 0.00540140 0.01014025 0.00403644    0.0440677 ----
    82   0   0   F    T  2.67D+00 0.01649175 0.00710036 0.24523437 0.09161516    0.0440636 ----
    83   0   0   F    F -3.67D-01 0.01649175 0.00710036 0.09010453 0.03366144    0.0432352 ----
    84   0   0   F    F -6.68D-03 0.01649175 0.00710036 0.00060222 0.00022498    0.0427567 ---+
    85   0   0   F    T  1.75D+00 0.02571131 0.00717302 0.16576483 0.05817871    0.0427567 ----
    86   0   0   F    F -1.22D-01 0.02571131 0.00717302 0.02017751 0.00708173    0.0416222 ----
    87   0   0   F    T  1.82D+00 0.01714542 0.00639817 0.15647638 0.05109698    0.0416015 ----
    88   0   0   F    F  2.89D-01 0.01714542 0.00639817 0.04526005 0.01477956    0.0402130 ----
    89   0   0   F    F -3.34D-02 0.01714542 0.00639817 0.00151112 0.00049345    0.0401401 ----
    90   0   0   F    T  4.33D+00 0.00744977 0.00424581 0.21589518 0.06538308    0.0401400 ----
    91   0   0   F    F -4.58D-01 0.00744977 0.00424581 0.09881604 0.02992608    0.0399525 ----
    92   0   0   F    T  3.51D+00 0.00824034 0.00332385 0.11700504 0.03545700    0.0395086 ----
    93   0   0   F    F  3.73D-01 0.00824034 0.00332385 0.04365633 0.01322954    0.0387812 ----
    94   0   0   F    F -1.61D-02 0.00824034 0.00332385 0.00070167 0.00021263    0.0387258 ---+
    95   0   0   F    T  1.65D+00 0.01668154 0.00552160 0.15932901 0.04847390    0.0387258 ----
    96   0   0   F    F -1.89D-01 0.01668154 0.00552160 0.03010789 0.00915996    0.0381453 ----
    97   0   0   F    T  2.12D+00 0.00886841 0.00420270 0.12751100 0.03931394    0.0381121 ----
    98   0   0   F    F -1.64D-01 0.00886841 0.00420270 0.02087695 0.00643674    0.0376591 ----
    99   0   0   F    T  3.92D+00 0.00831167 0.00273734 0.09640136 0.03287720    0.0376410 ----
   100   0   0   F    F -4.74D-01 0.00831167 0.00273734 0.04565180 0.01556932    0.0376002 ----
   101   0   0   F    T  2.42D+00 0.00651358 0.00246040 0.04559174 0.01730789    0.0374079 ----
   102   0   0   F    F  1.40D-01 0.00651358 0.00246040 0.00638025 0.00242212    0.0371616 ----
   103   0   0   F    T  3.14D+00 0.00649402 0.00224267 0.04297480 0.01973001    0.0371579 ----
   104   0   0   T    F  3.76D-01 0.00649402 0.00224267 0.01617819 0.00742751    0.0373132 ----
   105   0   0   F    T  1.48D+00 0.00542947 0.00192051 0.01793360 0.00742751    0.0370687 ----
   106   0   0   F    F  6.73D-01 0.00542947 0.00192051 0.01207035 0.00499914    0.0369537 ----
   107   0   0   F    T  2.89D+00 0.00365148 0.00171113 0.03644225 0.01242665    0.0369315 ----
   108   0   0   F    F -1.25D-01 0.00365148 0.00171113 0.00455402 0.00155290    0.0368228 ----
   109   0   0   F    T  3.73D+00 0.00352240 0.00132742 0.03151215 0.01087375    0.0368206 ----
   110   0   0   F    F -4.73D-01 0.00352240 0.00132742 0.01490941 0.00514472    0.0368107 ----
   111   0   0   F    T  1.75D+00 0.00437105 0.00133841 0.01704202 0.00572903    0.0367686 ----
   112   0   0   F    F -3.25D-02 0.00437105 0.00133841 0.00055430 0.00018634    0.0367233 ---+
   113   0   0   F    T  1.73D+00 0.00300255 0.00127134 0.01603650 0.00554269    0.0367232 ----
   114   0   0   F    F -9.32D-02 0.00300255 0.00127134 0.00149535 0.00051684    0.0366855 ----
   115   0   0   F    T  2.49D+00 0.00215106 0.00095471 0.01177144 0.00502585    0.0366851 ----
   116   0   0   F    F  2.09D-01 0.00215106 0.00095471 0.00246292 0.00105155    0.0366452 ----
   117   0   0   F    T  3.40D+00 0.00207882 0.00085185 0.01372630 0.00607740    0.0366440 ----
   118   0   0   F    F -1.28D-01 0.00207882 0.00085185 0.00176290 0.00078054    0.0366125 ----
   119   0   0   F    T  1.66D+00 0.00284501 0.00109918 0.01115829 0.00529687    0.0366118 ----
   120   0   0   F    F -4.70D-02 0.00284501 0.00109918 0.00052401 0.00024875    0.0365832 ---+
   121   0   0   F    T  2.16D+00 0.00305268 0.00090453 0.01020462 0.00504812    0.0365831 ----
   122   0   0   F    F -4.37D-01 0.00305268 0.00090453 0.00446110 0.00220686    0.0365772 ----
   123   0   0   F    T  2.91D+00 0.00128927 0.00053808 0.00680047 0.00284126    0.0365682 ----
   124   0   0   F    F  1.28D-01 0.00128927 0.00053808 0.00086956 0.00036330    0.0365542 ----
   125   0   0   F    T  2.48D+00 0.00118480 0.00058242 0.00829526 0.00320456    0.0365540 ----
   126   0   0   F    F  4.24D-02 0.00118480 0.00058242 0.00035174 0.00013588    0.0365408 --++
   127   0   0   F    T  2.44D+00 0.00130444 0.00057324 0.00841120 0.00334045    0.0365408 ----
   128   0   0   F    F -4.35D-01 0.00130444 0.00057324 0.00366120 0.00145402    0.0365380 ----
   129   0   0   F    T  1.53D+00 0.00121453 0.00051846 0.00468811 0.00188643    0.0365340 ----
   130   0   0   F    F  4.19D-01 0.00121453 0.00051846 0.00196565 0.00079095    0.0365260 ----
   131   0   0   F    T  1.99D+00 0.00132367 0.00051947 0.00712627 0.00267738    0.0365253 ----
   132   0   0   F    F  2.26D-01 0.00132367 0.00051947 0.00161367 0.00060626    0.0365157 ----
   133   0   0   F    T  2.50D+00 0.00114939 0.00049329 0.00951671 0.00328364    0.0365154 ----
   134   0   0   F    F  5.57D-01 0.00114939 0.00049329 0.00530360 0.00182995    0.0365030 ----
   135   0   0   F    T  2.54D+00 0.00156344 0.00059681 0.01461174 0.00511360    0.0365012 ----
   136   0   0   F    F -2.48D-01 0.00156344 0.00059681 0.00361902 0.00126653    0.0364920 ----
   137   0   0   F    T  1.03D+00 0.00216599 0.00080462 0.01103075 0.00384707    0.0364909 ----
   138   0   0   F    F  1.94D+00 0.00216599 0.00080462 0.02144806 0.00748019    0.0364743 ----
   139   0   0   F    T  3.26D+00 0.00238541 0.00076434 0.03345563 0.01132726    0.0364616 ----
   140   0   0   F    F -4.28D-01 0.00238541 0.00076434 0.01431865 0.00484794    0.0364545 ----
   141   0   0   F    T  2.76D+00 0.00138892 0.00061832 0.01784515 0.00647931    0.0364452 ----
   142   0   0   F    F  2.88D-01 0.00138892 0.00061832 0.00513564 0.00186468    0.0364259 ----
   143   0   0   F    T  2.23D+00 0.00170430 0.00077352 0.02220356 0.00834399    0.0364248 ----
   144   0   0   F    F -1.00D-01 0.00170430 0.00077352 0.00222660 0.00083674    0.0364071 ----
   145   0   0   F    T  1.90D+00 0.00222068 0.00078333 0.01934023 0.00750725    0.0364069 ----
   146   0   0   F    F -3.51D-01 0.00222068 0.00078333 0.00679694 0.00263835    0.0363989 ----
   147   0   0   F    T  2.44D+00 0.00114615 0.00054330 0.01132475 0.00486889    0.0363955 ----
   148   0   0   F    F  3.09D-01 0.00114615 0.00054330 0.00349578 0.00150295    0.0363822 ----
   149   0   0   F    T  2.83D+00 0.00139261 0.00057165 0.01337243 0.00637185    0.0363814 ----
   150   0   0   F    F  1.36D-01 0.00139261 0.00057165 0.00181946 0.00086696    0.0363658 ----
   151   0   0   F    T  1.93D+00 0.00221449 0.00073370 0.01498671 0.00723880    0.0363656 ----
   152   0   0   F    F  3.29D-01 0.00221449 0.00073370 0.00493809 0.00238517    0.0363461 ----
   153   0   0   F    T  2.02D+00 0.00237010 0.00082435 0.01890371 0.00962398    0.0363448 ----
   154   0   0   F    F -3.34D-01 0.00237010 0.00082435 0.00632226 0.00321870    0.0363346 ----
   155   0   0   F    T  1.67D+00 0.00179789 0.00073247 0.01340890 0.00640528    0.0363311 ----
   156   0   0   F    F  8.75D-01 0.00179789 0.00073247 0.01172758 0.00560213    0.0363114 ----
   157   0   0   F    T  4.79D+00 0.00155353 0.00058412 0.02481561 0.01200741    0.0363058 ----
   158   0   0   T    F  4.53D-01 0.00155353 0.00058412 0.01125134 0.00544413    0.0363107 ----
   159   0   0   F    T  1.94D+00 0.00142388 0.00061053 0.01219972 0.00544413    0.0362948 ----
   160   0   0   F    F  1.52D+00 0.00142388 0.00061053 0.01851158 0.00826081    0.0362775 ----
   161   0   0   F    T  1.87D+00 0.00284608 0.00096962 0.03223183 0.01370494    0.0362678 ----
   162   0   0   F    F -1.66D-01 0.00284608 0.00096962 0.00535067 0.00227510    0.0362465 ----
   163   0   0   F    T  1.53D+00 0.00359846 0.00097084 0.02730848 0.01142984    0.0362456 ----
   164   0   0   F    F  1.99D-01 0.00359846 0.00097084 0.00542083 0.00226887    0.0362202 ----
   165   0   0   F    T  3.73D+00 0.00173812 0.00071528 0.03297851 0.01369870    0.0362195 ----
   166   0   0   F    F -1.99D-01 0.00173812 0.00071528 0.00656726 0.00272793    0.0361982 ----
   167   0   0   F    T  2.42D+00 0.00226387 0.00078102 0.02819788 0.01097078    0.0361968 ----
   168   0   0   F    F -2.53D-01 0.00226387 0.00078102 0.00712404 0.00277171    0.0361821 ----
   169   0   0   F    T  1.21D+00 0.00345442 0.00094923 0.02124971 0.00819907    0.0361802 ----
   170   0   0   F    F  7.09D-01 0.00345442 0.00094923 0.01506050 0.00581100    0.0361571 ----
   171   0   0   F    T  2.79D+00 0.00216989 0.00082130 0.03870774 0.01401007    0.0361524 ----
   172   0   0   F    F -1.25D-01 0.00216989 0.00082130 0.00483220 0.00174899    0.0361282 ----
   173   0   0   F    T  2.08D+00 0.00263562 0.00088255 0.03572763 0.01226108    0.0361277 ----
   174   0   0   F    F  2.46D-02 0.00263562 0.00088255 0.00088058 0.00030220    0.0361023 ----
   175   0   0   F    T  2.32D+00 0.00215865 0.00086875 0.03676894 0.01256328    0.0361023 ----
   176   0   0   T    F  4.56D-01 0.00215865 0.00086875 0.01678367 0.00573468    0.0361071 ----
   177   0   0   F    T  2.31D+00 0.00127940 0.00058419 0.01843144 0.00573468    0.0360904 ----
   178   0   0   F    F  4.29D-01 0.00127940 0.00058419 0.00790875 0.00246069    0.0360750 ----
   179   0   0   F    T  2.24D+00 0.00137943 0.00069731 0.02756024 0.00819537    0.0360735 ----
   180   0   0   F    F  1.12D+00 0.00137943 0.00069731 0.03096209 0.00920695    0.0360484 ----
   181   0   0   F    T  1.86D+00 0.00235000 0.00111479 0.05800684 0.01740232    0.0360385 ----
   182   0   0   F    F -1.47D-01 0.00235000 0.00111479 0.00850524 0.00255161    0.0360107 ----
   183   0   0   F    T  2.03D+00 0.00211477 0.00095499 0.05083341 0.01485071    0.0360099 ----
   184   0   0   F    F -2.96D-01 0.00211477 0.00095499 0.01502997 0.00439093    0.0359937 ----
   185   0   0   F    T  2.54D+00 0.00194956 0.00071030 0.03459924 0.01045978    0.0359899 ----
   186   0   0   F    F  7.53D-02 0.00194956 0.00071030 0.00260705 0.00078814    0.0359693 ----
   187   0   0   F    T  3.17D+00 0.00132124 0.00068264 0.03561762 0.01124792    0.0359692 ----
   188   0   0   F    F  5.70D-02 0.00132124 0.00068264 0.00202992 0.00064104    0.0359462 ----
   189   0   0   F    T  2.75D+00 0.00150541 0.00073995 0.03751800 0.01188897    0.0359461 ----
   190   0   0   F    F -3.51D-01 0.00150541 0.00073995 0.01317491 0.00417496    0.0359358 ----
   191   0   0   F    T  1.98D+00 0.00180238 0.00069636 0.02265814 0.00771401    0.0359313 ----
   192   0   0   F    F -2.24D-01 0.00180238 0.00069636 0.00508395 0.00173084    0.0359211 ----
   193   0   0   F    T  1.92D+00 0.00142441 0.00061980 0.01753567 0.00598317    0.0359202 ----
   194   0   0   F    F -7.14D-02 0.00142441 0.00061980 0.00125182 0.00042712    0.0359100 ----
   195   0   0   F    T  3.95D+00 0.00092087 0.00040591 0.01447813 0.00555605    0.0359099 ----
   196   0   0   F    F -3.80D-01 0.00092087 0.00040591 0.00550460 0.00211242    0.0359061 ----
   197   0   0   F    T  3.29D+00 0.00086511 0.00033792 0.00798807 0.00344363    0.0359039 ----
   198   0   0   F    F -5.34D-02 0.00086511 0.00033792 0.00042649 0.00018386    0.0358986 --++
   199   0   0   F    T  2.04D+00 0.00110314 0.00040883 0.00801995 0.00325977    0.0358986 ----
   200   0   0   F    F -4.87D-01 0.00110314 0.00040883 0.00390512 0.00158727    0.0358983 ----
   201   0   0   F    T  2.63D+00 0.00065476 0.00024911 0.00342062 0.00167251    0.0358959 ----
   202   0   0   F    F -2.53D-01 0.00065476 0.00024911 0.00086653 0.00042369    0.0358943 ----
   203   0   0   F    T  3.25D+00 0.00043666 0.00018192 0.00269310 0.00124882    0.0358941 ----
   204   0   0   F    F -4.93D-01 0.00043666 0.00018192 0.00132692 0.00061531    0.0358941 ----
   205   0   0   F    T  3.10D+00 0.00026624 0.00011943 0.00157435 0.00063351    0.0358933 ----
   206   0   0   F    T  1.95D+00 0.00037827 0.00013917 0.00136927 0.00063351    0.0358927 ----
   207   0   0   T    F  4.89D-01 0.00037827 0.00013917 0.00066942 0.00030972    0.0358927 ----
   208   0   0   F    T  2.49D+00 0.00019611 0.00009286 0.00055342 0.00030972    0.0358925 ----
   209   0   0   F    T  2.01D+00 0.00022359 0.00008679 0.00071995 0.00030972    0.0358922 ----
   210   0   0   F    T  3.39D+00 0.00023091 0.00008261 0.00075466 0.00030972    0.0358921 ----
   211   0   0   T    F  4.72D-01 0.00023091 0.00008261 0.00035624 0.00014620    0.0358921 --++
   212   0   0   F    T  2.39D+00 0.00010629 0.00005006 0.00034955 0.00014620    0.0358919 ====
 ****************************
 MOLECULAR MECHANICS FUNCTION
 ****************************
 Atomic parameters:
 Center  VDW
      1 1.9080 0.0860000
      2 1.7210 0.2104000
      3 1.9080 0.1094000
      4 1.4870 0.0157000
      5 1.4870 0.0157000
      6 1.8750 0.1700000
      7 0.6000 0.0157000
      8 0.6000 0.0157000
      9 1.6612 0.2100000
     10 0.0000 0.0000000
 Molecular mechanics terms:
 NBDir 3 1      0      0
 HrmStr1  1- 2  431.53 1.3510
 HrmStr1  1- 3  294.15 1.5090
 HrmStr1  1- 9  946.08 1.2030
 HrmStr1  2-10  566.76 0.9680
 HrmStr1  3- 4  358.05 1.0960
 HrmStr1  3- 5  358.05 1.0960
 HrmStr1  3- 6  380.82 1.4520
 HrmStr1  6- 7  506.01 1.0110
 HrmStr1  6- 8  506.01 1.0110
 HrmBnd1  1- 2-10  56.55 107.23
 HrmBnd1  1- 3- 4  46.41 106.89
 HrmBnd1  1- 3- 5  46.41 106.89
 HrmBnd1  1- 3- 6  59.93 110.61
 HrmBnd1  2- 1- 3  67.92 111.72
 HrmBnd1  2- 1- 9  91.40 123.02
 HrmBnd1  3- 1- 9  62.83 125.24
 HrmBnd1  3- 6- 7  52.60 110.71
 HrmBnd1  3- 6- 8  52.60 110.71
 HrmBnd1  4- 3- 5  44.68 106.22
 HrmBnd1  4- 3- 6  52.45 112.94
 HrmBnd1  5- 3- 6  52.45 112.94
 HrmBnd1  7- 6- 8  47.09 108.63
 AmbTrs  3- 1- 2-10   0 180   0   0  0.0000 14.5000  0.0000  0.0000  2.0
 AmbTrs  9- 1- 2-10   0   0   0   0  0.0000 14.5000  0.0000  0.0000  2.0
 AmbTrs  2- 1- 3- 4   0   0   0   0  0.0000 14.5000  0.0000  0.0000  6.0
 AmbTrs  2- 1- 3- 5   0   0   0   0  0.0000 14.5000  0.0000  0.0000  6.0
 AmbTrs  2- 1- 3- 6   0   0   0   0  0.0000 14.5000  0.0000  0.0000  6.0
 AmbTrs  9- 1- 3- 4   0   0   0   0  0.0000 14.5000  0.0000  0.0000  6.0
 AmbTrs  9- 1- 3- 5   0   0   0   0  0.0000 14.5000  0.0000  0.0000  6.0
 AmbTrs  9- 1- 3- 6   0   0   0   0  0.0000 14.5000  0.0000  0.0000  6.0
 AmbTrs  1- 3- 6- 7   0 180   0   0  0.0000 25.6300  0.0000  0.0000  6.0
 AmbTrs  1- 3- 6- 8   0 180   0   0  0.0000 25.6300  0.0000  0.0000  6.0
 AmbTrs  4- 3- 6- 7   0   0   0   0  0.0000  0.0000  0.0000  0.0000  6.0
 AmbTrs  4- 3- 6- 8   0   0   0   0  0.0000  0.0000  0.0000  0.0000  6.0
 AmbTrs  5- 3- 6- 7   0   0   0   0  0.0000  0.0000  0.0000  0.0000  6.0
 AmbTrs  5- 3- 6- 8   0   0   0   0  0.0000  0.0000  0.0000  0.0000  6.0
 NBPair  2- 1 3 1      0      0 -1.000 -1.000
 NBPair  3- 2 3 1      0      0 -1.000 -1.000
 NBPair 10- 3 3 1      0      0 -0.500 -0.167
 NBPair  9- 2 3 1      0      0 -1.000 -1.000
 NBPair 10- 9 3 1      0      0 -0.500 -0.167
 NBPair  3- 1 3 1      0      0 -1.000 -1.000
 NBPair  4- 2 3 1      0      0 -0.500 -0.167
 NBPair  5- 2 3 1      0      0 -0.500 -0.167
 NBPair  6- 2 3 1      0      0 -0.500 -0.167
 NBPair  9- 3 3 1      0      0 -1.000 -1.000
 NBPair  9- 4 3 1      0      0 -0.500 -0.167
 NBPair  9- 5 3 1      0      0 -0.500 -0.167
 NBPair  9- 6 3 1      0      0 -0.500 -0.167
 NBPair  9- 1 3 1      0      0 -1.000 -1.000
 NBPair 10- 1 3 1      0      0 -1.000 -1.000
 NBPair 10- 2 3 1      0      0 -1.000 -1.000
 NBPair  4- 1 3 1      0      0 -1.000 -1.000
 NBPair  5- 1 3 1      0      0 -1.000 -1.000
 NBPair  6- 1 3 1      0      0 -1.000 -1.000
 NBPair  4- 3 3 1      0      0 -1.000 -1.000
 NBPair  5- 4 3 1      0      0 -1.000 -1.000
 NBPair  6- 4 3 1      0      0 -1.000 -1.000
 NBPair  5- 3 3 1      0      0 -1.000 -1.000
 NBPair  6- 5 3 1      0      0 -1.000 -1.000
 NBPair  6- 3 3 1      0      0 -1.000 -1.000
 NBPair  7- 1 3 1      0      0 -0.500 -0.167
 NBPair  8- 1 3 1      0      0 -0.500 -0.167
 NBPair  7- 4 3 1      0      0 -0.500 -0.167
 NBPair  8- 4 3 1      0      0 -0.500 -0.167
 NBPair  7- 5 3 1      0      0 -0.500 -0.167
 NBPair  8- 5 3 1      0      0 -0.500 -0.167
 NBPair  7- 3 3 1      0      0 -1.000 -1.000
 NBPair  8- 3 3 1      0      0 -1.000 -1.000
 NBPair  7- 6 3 1      0      0 -1.000 -1.000
 NBPair  8- 7 3 1      0      0 -1.000 -1.000
 NBPair  8- 6 3 1      0      0 -1.000 -1.000
 Energy per function type:
 Direct Coulomb + vdW (small)                           0.003132772
 Direct Coulomb (large)                                -0.131563374
 Direct vdW (large)                                   269.175351073
 Non-direct Coulomb + vdW (small)                      -0.011762127
 Non-direct Coulomb (large)                             0.137952456
 Non-direct vdW (large)                              -269.175351073
 Harmonic stretch I                                     0.000093671
 Harmonic bend I                                        0.004582410
 Amber torsion                                          0.033456104
 Energy per function class:
        Coulomb              -0.003589541
    Vanderwaals               0.001349268
     Stretching               0.000093671
        Bending               0.004582410
        Torsion               0.033456104
 Energy=    3.589191140E-02 NIter=   0.
 Dipole moment=       0.534294       0.447306       0.170140
 Leave Link  402 at Wed Nov 29 12:05:16 2023, MaxMem=   134217728 cpu:               0.4 elap:               0.4
 (Enter /home/emanuele/chem_software/gaussian//gdv/l716.exe)
 Dipole        = 5.34293728D-01 4.47305854D-01 1.70139683D-01
 -------------------------------------------------------------------
 Center     Atomic                   Forces (Hartrees/Bohr)
 Number     Number              X              Y              Z
 -------------------------------------------------------------------
      1        6           0.000046304    0.000098059    0.000009519
      2        8          -0.000045961   -0.000096699    0.000012787
      3        6           0.000004866   -0.000057889   -0.000041229
      4        1          -0.000019465    0.000055956    0.000061550
      5        1          -0.000005971    0.000056971   -0.000021495
      6        7          -0.000006941   -0.000001947    0.000051585
      7        1          -0.000008448    0.000033275   -0.000053865
      8        1           0.000054498   -0.000106292    0.000045972
      9        8          -0.000018887   -0.000027723    0.000026891
     10        1           0.000000005    0.000046290   -0.000091716
 -------------------------------------------------------------------
 Cartesian Forces:  Max     0.000106292 RMS     0.000050057
 Z-matrix is all fixed cartesians, so copy forces.
 Leave Link  716 at Wed Nov 29 12:05:16 2023, MaxMem=   134217728 cpu:               0.0 elap:               0.0
 (Enter /home/emanuele/chem_software/gaussian//gdv/l103.exe)

 GradGradGradGradGradGradGradGradGradGradGradGradGradGradGradGradGradGrad
 Berny optimization.
 Search for a local minimum.
 Step number   1 out of a maximum of    2
 All quantities printed in internal units (Hartrees-Bohrs-Radians)
 RMS Force = .50057D-04 SwitMx=.10000D-02 MixMth= 2
 Mixed Optimization -- En-DIIS/RFO-DIIS
 Second derivative matrix not updated -- unit matrix used.
 ITU=  0
 RFO step:  Lambda=-7.51709208D-08 EMin= 1.00000000D+00
 Linear search not attempted -- first point.
 Variable       Old X    -DE/DX   Delta X   Delta X   Delta X     New X
                                 (Linear)    (Quad)   (Total)
    X1       -1.28869   0.00005   0.00000   0.00005   0.00005  -1.28864
    Y1       -0.70962   0.00010   0.00000   0.00010   0.00010  -0.70952
    Z1        0.05814   0.00001   0.00000   0.00001   0.00001   0.05815
    X2       -1.91322  -0.00005   0.00000  -0.00005  -0.00005  -1.91327
    Y2        1.76092  -0.00010   0.00000  -0.00010  -0.00010   1.76083
    Z2       -0.05711   0.00001   0.00000   0.00001   0.00001  -0.05710
    X3        1.47540   0.00000   0.00000   0.00000   0.00000   1.47540
    Y3       -0.97618  -0.00006   0.00000  -0.00006  -0.00006  -0.97624
    Z3       -0.67855  -0.00004   0.00000  -0.00004  -0.00004  -0.67859
    X4        1.62539  -0.00002   0.00000  -0.00002  -0.00002   1.62537
    Y4       -2.81625   0.00006   0.00000   0.00006   0.00006  -2.81619
    Z4       -1.62268   0.00006   0.00000   0.00006   0.00006  -1.62262
    X5        1.86363  -0.00001   0.00000  -0.00001  -0.00001   1.86363
    Y5        0.35281   0.00006   0.00000   0.00006   0.00006   0.35287
    Z5       -2.22204  -0.00002   0.00000  -0.00002  -0.00002  -2.22206
    X6        3.16989  -0.00001   0.00000  -0.00001  -0.00001   3.16988
    Y6       -0.79449  -0.00000   0.00000  -0.00000  -0.00000  -0.79449
    Z6        1.48861   0.00005   0.00000   0.00005   0.00005   1.48867
    X7        4.96473  -0.00001   0.00000  -0.00001  -0.00001   4.96472
    Y7       -0.29674   0.00003   0.00000   0.00003   0.00003  -0.29671
    Z7        1.05918  -0.00005   0.00000  -0.00005  -0.00005   1.05912
    X8        2.43608   0.00005   0.00000   0.00005   0.00005   2.43614
    Y8        0.13328  -0.00011   0.00000  -0.00011  -0.00011   0.13317
    Z8        2.99036   0.00005   0.00000   0.00005   0.00005   2.99041
    X9       -2.77543  -0.00002   0.00000  -0.00002  -0.00002  -2.77545
    Y9       -2.25498  -0.00003   0.00000  -0.00003  -0.00003  -2.25501
    Z9       -0.69238   0.00003   0.00000   0.00003   0.00003  -0.69235
   X10       -3.35566   0.00000   0.00000   0.00000   0.00000  -3.35566
   Y10        1.96619   0.00005   0.00000   0.00005   0.00005   1.96624
   Z10        1.04643  -0.00009   0.00000  -0.00009  -0.00009   1.04634
         Item               Value     Threshold  Converged?
 Maximum Force            0.000106     0.000450     YES
 RMS     Force            0.000050     0.000300     YES
 Maximum Displacement     0.000106     0.001800     YES
 RMS     Displacement     0.000050     0.001200     YES
 Predicted change in Energy=-3.758545D-08
 Optimization completed.
    -- Stationary point found.
 Largest change from initial coordinates is atom    7       0.234 Angstoms.
 GradGradGradGradGradGradGradGradGradGradGradGradGradGradGradGradGradGrad

 Leave Link  103 at Wed Nov 29 12:05:16 2023, MaxMem=   134217728 cpu:               0.0 elap:               0.0
 (Enter /home/emanuele/chem_software/gaussian//gdv/l202.exe)
                          Input orientation:                          
 ---------------------------------------------------------------------
 Center     Atomic      Atomic             Coordinates (Angstroms)
 Number     Number       Type             X           Y           Z
 ---------------------------------------------------------------------
      1          6    20001002       -0.681943   -0.375513    0.030768
      2          8    20001022       -1.012433    0.931840   -0.030221
      3          6    20001001        0.780746   -0.516573   -0.359073
      4          1    20001034        0.860117   -1.490294   -0.858687
      5          1    20001034        0.986193    0.186701   -1.175853
      6          7    20001020        1.677433   -0.420428    0.787740
      7          1    20001029        2.627223   -0.157029    0.560492
      8          1    20001029        1.289120    0.070529    1.582430
      9          8    20001025       -1.468693   -1.193286   -0.366391
     10          1    20001031       -1.775738    1.040466    0.553747
 ---------------------------------------------------------------------
                    Distance matrix (angstroms):
                    1          2          3          4          5
     1  C    0.000000
     2  O    1.349858   0.000000
     3  C    1.520307   2.328419   0.000000
     4  H    2.100432   3.171677   1.097291   0.000000
     5  H    2.134173   2.421200   1.097238   1.711374   0.000000
     6  N    2.478241   3.119786   1.458928   2.126815   2.168436
     7  H    3.358411   3.844694   2.093883   2.629511   2.413715
     8  H    2.547881   2.939327   2.091068   2.929038   2.777298
     9  O    1.202274   2.199396   2.349037   2.398735   2.930197
    10  H    1.864106   0.967188   3.129412   3.917582   3.368782
                    6          7          8          9         10
     6  N    0.000000
     7  H    1.011495   0.000000
     8  H    1.011611   1.699017   0.000000
     9  O    3.439104   4.325445   3.605644   0.000000
    10  H    3.756774   4.562905   3.375251   2.435277   0.000000
 Symmetry turned off by external request.
 Stoichiometry    C2H5NO2
 Framework group  C1[X(C2H5NO2)]
 Deg. of freedom    24
 Full point group                 C1      NOp   1
 Rotational constants (GHZ):           9.5299044           3.8478767           3.0785041
 Leave Link  202 at Wed Nov 29 12:05:16 2023, MaxMem=   134217728 cpu:               0.0 elap:               0.0
 (Enter /home/emanuele/chem_software/gaussian//gdv/l9999.exe)
 Unable to Open any file for archive entry.
 1\1\GINC-EMANUELE-XPS-13-9343\FOpt\AMBER\ZDO\C2H5N1O2\EMANUELE\29-Nov-
 2023\0\\#p Amber=(SoftFirst,Print) geom=nocrowd nosymm opt=(maxcycle=3
 00)\\Title\\0,1\C,-0.6819431552,-0.3755134834,0.030767654\O,-1.0124328
 878,0.9318396596,-0.0302209124\C,0.7807464324,-0.5165727274,-0.3590726
 07\H,0.8601172962,-1.4902939009,-0.8586874738\H,0.9861928268,0.1867008
 842,-1.1758526875\N,1.6774325587,-0.4204275181,0.7877404556\H,2.627222
 7072,-0.1570288269,0.560492023\H,1.2891197469,0.0705289138,1.582429883
 3\O,-1.4686934921,-1.193285543,-0.366391492\H,-1.7757380333,1.04046554
 21,0.5537471567\\Version=ES64L-GDVRevJ.14\HF=0.0358919\RMSD=0.000e+00\
 RMSF=5.006e-05\Dipole=0.5342937,0.4473059,0.1701397\PG=C01 [X(C2H5N1O2
 )]\\@
 The archive entry for this job was punched.


 I KNOW YOU BELIEVE YOU UNDERSTAND WHAT YOU THINK I SAID,
 BUT I AM NOT SURE YOU REALIZE THAT WHAT YOU HEARD IS NOT WHAT I MEANT.
 Job cpu time:       0 days  0 hours  0 minutes  0.9 seconds.
 Elapsed time:       0 days  0 hours  0 minutes  0.9 seconds.
 File lengths (MBytes):  RWF=      6 Int=      0 D2E=      0 Chk=      1 Scr=      1
 Normal termination of Gaussian DV at Wed Nov 29 12:05:16 2023.
