 Entering Gaussian System, Link 0=/home/emanuele/chem_software/gaussian//g09/g09
 Input=0_mm_40.gjf
 Output=0_mm_40.log
 Initial command:
 /home/emanuele/chem_software/gaussian//gdv/l1.exe "/home/emanuele/chem_software/gaussian/scratch/Gau-13796.inp" -scrdir="/home/emanuele/chem_software/gaussian/scratch/"
 Entering Link 1 = /home/emanuele/chem_software/gaussian//gdv/l1.exe PID=     13798.
  
 Copyright (c) 1988-2020, Gaussian, Inc.  All Rights Reserved.
  
 This is the private, development version of
 the Gaussian(R) DV system of programs. It is based on
 the Gaussian(R) 16 system (copyright 2016, Gaussian, Inc.),
 the Gaussian(R) 09 system (copyright 2009, Gaussian, Inc.),
 the Gaussian(R) 03 system (copyright 2003, Gaussian, Inc.),
 the Gaussian(R) 98 system (copyright 1998, Gaussian, Inc.),
 the Gaussian(R) 94 system (copyright 1995, Gaussian, Inc.),
 the Gaussian 92(TM) system (copyright 1992, Gaussian, Inc.),
 the Gaussian 90(TM) system (copyright 1990, Gaussian, Inc.),
 the Gaussian 88(TM) system (copyright 1988, Gaussian, Inc.),
 the Gaussian 86(TM) system (copyright 1986, Carnegie Mellon
 University), and the Gaussian 82(TM) system (copyright 1983,
 Carnegie Mellon University). Gaussian is a federally registered
 trademark of Gaussian, Inc.
  
 This software contains proprietary and confidential information,
 including trade secrets, belonging to Gaussian, Inc.
  
 This software is provided under written license and may be
 used, copied, transmitted, or stored only in accord with that
 written license.
  
 The following legend is applicable only to US Government
 contracts under FAR:
  
                    RESTRICTED RIGHTS LEGEND
  
 Use, reproduction and disclosure by the US Government is
 subject to restrictions as set forth in subparagraphs (a)
 and (c) of the Commercial Computer Software - Restricted
 Rights clause in FAR 52.227-19.
  
 Gaussian, Inc.
 340 Quinnipiac St., Bldg. 40, Wallingford CT 06492
  
  
 ---------------------------------------------------------------
 Warning -- This program may not be used in any manner that
 competes with the business of Gaussian, Inc. or will provide
 assistance to any competitor of Gaussian, Inc.  The licensee
 of this program is prohibited from giving any competitor of
 Gaussian, Inc. access to this program.  By using this program,
 the user acknowledges that Gaussian, Inc. is engaged in the
 business of creating and licensing software in the field of
 computational chemistry and represents and warrants to the
 licensee that it is not a competitor of Gaussian, Inc. and that
 it will not use this program in any manner prohibited above.
 ---------------------------------------------------------------
  

 Cite this work as:
 Gaussian Development Version, Revision J.14,
 M. J. Frisch, G. W. Trucks, H. B. Schlegel, G. E. Scuseria, 
 M. A. Robb, J. R. Cheeseman, G. Scalmani, V. Barone, 
 G. A. Petersson, H. Nakatsuji, X. Li, A. V. Marenich, M. Caricato, 
 J. Bloino, B. G. Janesko, J. Zheng, R. Gomperts, B. Mennucci, 
 H. P. Hratchian, J. V. Ortiz, A. F. Izmaylov, J. L. Sonnenberg, 
 D. Williams-Young, F. Ding, F. Lipparini, F. Egidi, J. Goings, 
 B. Peng, A. Petrone, T. Henderson, D. Ranasinghe, V. G. Zakrzewski, 
 J. Gao, N. Rega, G. Zheng, W. Liang, M. Hada, M. Ehara, K. Toyota, 
 R. Fukuda, J. Hasegawa, M. Ishida, T. Nakajima, Y. Honda, O. Kitao, 
 H. Nakai, T. Vreven, K. Throssell, J. A. Montgomery, Jr., 
 J. E. Peralta, F. Ogliaro, M. J. Bearpark, J. J. Heyd, 
 E. N. Brothers, K. N. Kudin, V. N. Staroverov, T. A. Keith, 
 R. Kobayashi, J. Normand, K. Raghavachari, A. P. Rendell, 
 J. C. Burant, S. S. Iyengar, J. Tomasi, M. Cossi, J. M. Millam, 
 M. Klene, C. Adamo, R. Cammi, J. W. Ochterski, R. L. Martin, 
 K. Morokuma, O. Farkas, J. B. Foresman, and D. J. Fox, 
 Gaussian, Inc., Wallingford CT, 2020.
 
 ******************************************
 Gaussian DV:  ES64L-GDVRevJ.14 29-Dec-2020
                29-Nov-2023 
 ******************************************
 %mem=1GB
 %nprocshared=1
 Will use up to    1 processors via shared memory.
 %chk=0_mm_40.chk
 -----------------------------------------------------------------
 #p Amber=(SoftFirst,Print) geom=nocrowd nosymm opt=(maxcycle=300)
 -----------------------------------------------------------------
 1/6=300,10=10,18=4000020,19=15,37=210000000,38=1,56=2,64=203/1,3;
 2/9=110,12=1,15=1,40=1/2;
 3/5=30,11=9,25=1,30=1,41=10030000,43=2,71=1/1;
 4/20=11,22=1001,24=3,119=11/2;
 7/30=1,44=-1/16;
 1/6=300,10=10,18=4000020,19=15,64=203/3(2);
 2/9=110,12=1,15=1/2;
 99//99;
 2/9=110,12=1,15=1/2;
 3/5=30,11=9,25=1,30=1,41=10030000,43=2,71=1/1;
 4/16=2,20=11,22=1001,24=3,119=11/2;
 7/30=1,44=-1/16;
 1/6=300,10=10,18=4000020,19=15,64=203/3(-4);
 2/9=110,12=1,15=1/2;
 99/9=10/99;
 Leave Link    1 at Wed Nov 29 12:05:14 2023, MaxMem=   134217728 cpu:               0.0 elap:               0.0
 (Enter /home/emanuele/chem_software/gaussian//gdv/l101.exe)
 -----
 Title
 -----
 Symbolic Z-matrix:
 Charge =  0 Multiplicity = 1
 C-C-+0.299289        -0.62199  -0.26468  -0.28608 
 O-OH--0.289770       -0.88301   0.3239    0.93595 
 C-CT--0.035454        0.80524  -0.78755  -0.28839 
 H-HC-+0.090426        0.68067  -1.90407  -0.23953 
 H-HC-+0.095387        1.07166  -0.79588  -1.37517 
 N-N3--0.336253        1.83167  -0.0808    0.50029 
 H-H-+0.142619         1.88344   0.90047   0.23887 
 H-H-+0.128282         1.61415  -0.12476   1.495 
 O-O2--0.308037       -1.34875   0.00035  -1.21037 
 H-HO-+0.213510       -1.75104   0.80944   0.95439 
 
 ITRead=  3  3  3  3  3  3  3  3  3  3
 MicOpt=  0  0  0  0  0  0  0  0  0  0
 NAtoms=     10 NQM=        0 NQMF=       0 NMMI=      0 NMMIF=      0
                NMic=      10 NMicF=      0.
                    Isotopes and Nuclear Properties:
 (Nuclear quadrupole moments (NQMom) in fm**2, nuclear magnetic moments (NMagM)
  in nuclear magnetons)

  Atom         1           2           3           4           5           6           7           8           9          10
 IAtWgt=          12          16          12           1           1          14           1           1          16           1
 AtmWgt=  12.0000000  15.9949146  12.0000000   1.0078250   1.0078250  14.0030740   1.0078250   1.0078250  15.9949146   1.0078250
 NucSpn=           0           0           0           1           1           2           1           1           0           1
 AtZEff=  -0.0000000  -0.0000000  -0.0000000  -0.0000000  -0.0000000  -0.0000000  -0.0000000  -0.0000000  -0.0000000  -0.0000000
 NQMom=    0.0000000   0.0000000   0.0000000   0.0000000   0.0000000   2.0440000   0.0000000   0.0000000   0.0000000   0.0000000
 NMagM=    0.0000000   0.0000000   0.0000000   2.7928460   2.7928460   0.4037610   2.7928460   2.7928460   0.0000000   2.7928460
 AtZNuc=   6.0000000   8.0000000   6.0000000   1.0000000   1.0000000   7.0000000   1.0000000   1.0000000   8.0000000   1.0000000
 Generating MM parameters.
 I=    1 IAn=  6 Valence= 5.
          JB=  1 J=    2 IAn=  8 IBT=12 Dist= 1.38D+00
          JB=  2 J=    3 IAn=  6 IBT= 1 Dist= 1.52D+00
          JB=  3 J=    9 IAn=  8 IBT= 2 Dist= 1.21D+00
 I=    2 IAn=  8 Valence= 3.
          JB=  1 J=    1 IAn=  6 IBT=12 Dist= 1.38D+00
          JB=  2 J=   10 IAn=  1 IBT= 1 Dist= 9.95D-01
 Read MM parameter file:
 Include all MM classes

 MM sanity checks:
 All charges sum to:               -0.00000100
 Charges of atoms sum to:          -0.00000100
 WARNING -- The following centers have non-zero partial charges, but zero Vanderwaals
 parameters.  These centers can collapse onto other centers with non-zero charge.
   Center  Layer   Charge
     10 H    R    0.213510
 MMInit generated parameter data with length LenPar=        2069.
 MM Charge=             -0.0000 electrons
 MM Dipole moment (Debye):
    X=              0.5107    Y=             -0.3888    Z=              0.6475  Tot=              0.9117
 MM Quadrupole moment (Debye-Ang):
   XX=             -0.8424   YY=              2.9404   ZZ=             -0.4459
   XY=             -0.3871   XZ=             -3.1145   YZ=              1.2384
 MM Traceless Quadrupole moment (Debye-Ang):
   XX=             -1.3931   YY=              2.3897   ZZ=             -0.9966
   XY=             -0.3871   XZ=             -3.1145   YZ=              1.2384
 MM Octapole moment (Debye-Ang**2):
  XXX=             -3.4085  YYY=             -2.1763  ZZZ=              3.0128  XYY=              1.2299
  XXY=              3.7563  XXZ=              4.6136  XZZ=              4.7814  YZZ=             -0.5005
  YYZ=             -0.1283  XYZ=             -0.2305
 MM Hexadecapole moment (Debye-Ang**3):
 XXXX=             -0.6366 YYYY=              6.7098 ZZZZ=              1.2347 XXXY=             -0.0932
 XXXZ=             -9.4336 YYYX=             -2.1737 YYYZ=              1.6124 ZZZX=             -2.3782
 ZZZY=              1.0861 XXYY=              4.9397 XXZZ=              1.3839 YYZZ=              1.1732
 XXYZ=              3.2283 YYXZ=             -1.3808 ZZXY=             -1.8684
 Leave Link  101 at Wed Nov 29 12:05:14 2023, MaxMem=   134217728 cpu:               0.3 elap:               0.3
 (Enter /home/emanuele/chem_software/gaussian//gdv/l103.exe)

 GradGradGradGradGradGradGradGradGradGradGradGradGradGradGradGradGradGrad
 Berny optimization.
 Initialization pass.
 No Z-matrix variables, so optimization will use Cartesian coordinates.
 Trust Radius=1.00D-01 FncErr=1.00D-07 GrdErr=1.00D-07 EigMax=2.50D+02 EigMin=1.00D-04
 Number of steps in this run=      2 maximum allowed number of steps=      2.
 GradGradGradGradGradGradGradGradGradGradGradGradGradGradGradGradGradGrad

 Leave Link  103 at Wed Nov 29 12:05:14 2023, MaxMem=   134217728 cpu:               0.0 elap:               0.0
 (Enter /home/emanuele/chem_software/gaussian//gdv/l202.exe)
                          Input orientation:                          
 ---------------------------------------------------------------------
 Center     Atomic      Atomic             Coordinates (Angstroms)
 Number     Number       Type             X           Y           Z
 ---------------------------------------------------------------------
      1          6    20001002       -0.621994   -0.264682   -0.286084
      2          8    20001022       -0.883013    0.323900    0.935952
      3          6    20001001        0.805235   -0.787546   -0.288394
      4          1    20001034        0.680671   -1.904074   -0.239534
      5          1    20001034        1.071660   -0.795876   -1.375167
      6          7    20001020        1.831665   -0.080804    0.500288
      7          1    20001029        1.883437    0.900470    0.238869
      8          1    20001029        1.614151   -0.124761    1.495004
      9          8    20001025       -1.348750    0.000346   -1.210373
     10          1    20001031       -1.751038    0.809439    0.954391
 ---------------------------------------------------------------------
                    Distance matrix (angstroms):
                    1          2          3          4          5
     1  C    0.000000
     2  O    1.381279   0.000000
     3  C    1.519992   2.363158   0.000000
     4  H    2.094447   2.964919   1.124517   0.000000
     5  H    2.082482   3.227370   1.118985   1.634209   0.000000
     6  N    2.583144   2.779040   1.474809   2.279570   2.146222
     7  H    2.812533   2.910602   2.071213   3.088848   2.478242
     8  H    2.862201   2.598012   2.067399   2.654423   2.997094
     9  O    1.205290   2.219980   2.471937   2.947523   2.553333
    10  H    1.991797   0.994764   3.260277   3.834295   3.996436
                    6          7          8          9         10
     6  N    0.000000
     7  H    1.016818   0.000000
     8  H    1.019169   1.643621   0.000000
     9  O    3.612200   3.654799   4.014162   0.000000
    10  H    3.719476   3.705357   3.534047   2.345777   0.000000
 Symmetry turned off by external request.
 Stoichiometry    C2H5NO2
 Framework group  C1[X(C2H5NO2)]
 Deg. of freedom    24
 Full point group                 C1      NOp   1
 Rotational constants (GHZ):           9.5152324           3.9351405           3.0284444
 Leave Link  202 at Wed Nov 29 12:05:14 2023, MaxMem=   134217728 cpu:               0.0 elap:               0.0
 (Enter /home/emanuele/chem_software/gaussian//gdv/l301.exe)
 Standard basis: Dummy (5D, 7F)
    10 basis functions,    10 primitive gaussians,    10 cartesian basis functions
     7 alpha electrons        7 beta electrons
       nuclear repulsion energy        22.6412261285 Hartrees.
 IExCor=       0 DFT=F Ex=HF Corr=None N6=None ScaHFX=  1.000000
 ScaDFX=  1.000000  1.000000  1.000000  1.000000  1.000000  0.000000
 ScaDFX=  0.000000  0.000000  0.000000  0.000000  0.000000  0.000000
 IRadAn=      5 IRanWt=     -1 IRanGd=            0 ICorTp=0 IEmpDi=  4
 NAtoms=   10 NActive=   10 NUniq=   10 SFac= 1.00D+00 NAtFMM=   60 NAOKFM=F Big=F
 Integral buffers will be    131072 words long.
 Raffenetti 1 integral format.
 Two-electron integral symmetry is turned off.
 Leave Link  301 at Wed Nov 29 12:05:14 2023, MaxMem=   134217728 cpu:               0.1 elap:               0.1
 (Enter /home/emanuele/chem_software/gaussian//gdv/l402.exe)
 AMBER calculation of energy and first derivatives.
 NRF= 0 NRA=   0 NVA=  10 HaveQM=F NVQ=       0
 Convergence limit is  0.750E-04 MaxStp= 10000 StMxLn= 3.00D-04 StpMin= 1.00D-06.
 Convergence criteria             0.00011250 0.00007500 0.00045000 0.00030000
  Step  NS  ND Rises OKQ   Scale  Max. Force  RMS Force Max. Disp.  RMS Disp.     Energy   Flag
     1   0   0   F    T  1.00D+00 0.04762813 0.01797198 0.04762813 0.01797198    0.0774022 ----
     2   0   0   F    F  3.49D-01 0.04762813 0.01797198 0.01659964 0.00626370    0.0713151 ----
     3   0   0   F    T  2.46D+00 0.01734365 0.00882681 0.05658442 0.02423568    0.0708805 ----
     4   0   0   F    F  3.74D-02 0.01734365 0.00882681 0.00211387 0.00090539    0.0679055 ----
     5   0   0   F    T  1.23D+00 0.03193074 0.01153503 0.06260115 0.02514107    0.0679017 ----
     6   0   0   F    F  2.25D-02 0.03193074 0.01153503 0.00141065 0.00056653    0.0653964 ----
     7   0   0   F    T  2.44D+00 0.01491009 0.00708474 0.05994653 0.02570760    0.0653951 ----
     8   0   0   F    F -2.35D-01 0.01491009 0.00708474 0.01409819 0.00604590    0.0641205 ----
     9   0   0   F    T  2.01D+00 0.01408171 0.00609644 0.04251918 0.01966170    0.0639864 ----
    10   0   0   F    F  1.75D+00 0.01408171 0.00609644 0.07435605 0.03438369    0.0621562 ----
    11   0   0   F    F -3.72D-02 0.01408171 0.00609644 0.00276774 0.00127986    0.0609511 ----
    12   0   0   F    T  5.17D+00 0.01796244 0.00584852 0.12939108 0.05276553    0.0609493 ----
    13   0   0   T    F  4.30D-01 0.01796244 0.00584852 0.05563168 0.02268654    0.0622775 ----
    14   0   0   F    T  2.18D+00 0.01857935 0.00576722 0.06192811 0.02268654    0.0597577 ----
    15   0   0   F    F -6.58D-02 0.01857935 0.00576722 0.00407258 0.00149194    0.0587357 ----
    16   0   0   F    T  1.19D+00 0.02203679 0.00752539 0.05737947 0.02119460    0.0587305 ----
    17   0   0   F    F  2.69D-01 0.02203679 0.00752539 0.01545294 0.00570794    0.0574520 ----
    18   0   0   F    T  4.77D+00 0.01255736 0.00446093 0.06716391 0.02690254    0.0573872 ----
    19   0   0   F    F -3.04D-01 0.01255736 0.00446093 0.02040209 0.00817207    0.0565896 ----
    20   0   0   F    T  1.99D+00 0.01218082 0.00519978 0.05257292 0.01873047    0.0564132 ----
    21   0   0   F    F -1.14D-01 0.01218082 0.00519978 0.00599820 0.00213702    0.0557022 ----
    22   0   0   F    T  2.19D+00 0.01601499 0.00422429 0.05031028 0.01659346    0.0556899 ----
    23   0   0   F    F -4.12D-01 0.01601499 0.00422429 0.02070928 0.00683038    0.0555149 ----
    24   0   0   F    T  1.55D+00 0.01083091 0.00354534 0.03008101 0.00976307    0.0553446 ----
    25   0   0   F    F  1.43D+00 0.01083091 0.00354534 0.04289667 0.01392252    0.0548795 ----
    26   0   0   F    T  6.56D+00 0.00764920 0.00236675 0.06802362 0.02368559    0.0546346 ----
    27   0   0   T    F  2.65D-01 0.00764920 0.00236675 0.01805717 0.00628745    0.0556182 ----
    28   0   0   F    T  2.41D+00 0.00519164 0.00174285 0.01470104 0.00628745    0.0544883 ----
    29   0   0   F    F  3.46D-02 0.00519164 0.00174285 0.00050804 0.00021728    0.0543747 ---+
    30   0   0   F    T  1.43D+00 0.00739004 0.00216287 0.01754708 0.00650473    0.0543746 ----
    31   0   0   F    F -1.12D-01 0.00739004 0.00216287 0.00196669 0.00072905    0.0542874 ----
    32   0   0   F    T  2.82D+00 0.00325572 0.00127943 0.01341173 0.00577567    0.0542860 ----
    33   0   0   F    F  2.55D-01 0.00325572 0.00127943 0.00342009 0.00147284    0.0542026 ----
    34   0   0   F    T  1.89D+00 0.00375728 0.00166084 0.01721334 0.00724851    0.0541990 ----
    35   0   0   F    F  1.22D+00 0.00375728 0.00166084 0.02100449 0.00884496    0.0540780 ----
    36   0   0   F    T  3.75D+00 0.00444666 0.00168648 0.04066997 0.01609348    0.0540259 ----
    37   0   0   T    F  4.31D-01 0.00444666 0.00168648 0.01751794 0.00693201    0.0540794 ----
    38   0   0   F    T  1.28D+00 0.00539408 0.00184360 0.01629662 0.00693201    0.0539568 ----
    39   0   0   F    F  1.05D+00 0.00539408 0.00184360 0.01703880 0.00724771    0.0538582 ----
    40   0   0   F    T  1.51D+00 0.00527235 0.00240054 0.03515171 0.01417971    0.0538233 ----
    41   0   0   F    F  2.30D+00 0.00527235 0.00240054 0.08092748 0.03264503    0.0536039 ----
    42   0   0   F    F -2.18D-02 0.00527235 0.00240054 0.00176199 0.00071076    0.0534054 ----
    43   0   0   F    T  3.81D+00 0.00596388 0.00265557 0.11621312 0.04611398    0.0534053 ----
    44   0   0   F    F -9.80D-03 0.00596388 0.00265557 0.00113862 0.00045181    0.0529987 ----
    45   0   0   F    T  1.62D+00 0.01053060 0.00404895 0.12673815 0.04566217    0.0529986 ----
    46   0   0   F    F -2.43D-01 0.01053060 0.00404895 0.03077470 0.01108774    0.0527168 ----
    47   0   0   F    T  1.99D+00 0.00864608 0.00365675 0.09505375 0.03457443    0.0526786 ----
    48   0   0   F    F  6.41D-01 0.00864608 0.00365675 0.06091952 0.02215860    0.0521128 ----
    49   0   0   F    F -3.42D-02 0.00864608 0.00365675 0.00208097 0.00075692    0.0520099 ----
    50   0   0   F    T  2.65D+00 0.01117379 0.00459812 0.14382203 0.05597611    0.0520098 ----
    51   0   0   F    F  5.67D-01 0.01117379 0.00459812 0.08154471 0.03173752    0.0508798 ----
    52   0   0   F    F -1.01D-01 0.01117379 0.00459812 0.00822895 0.00320274    0.0507287 ----
    53   0   0   F    T  2.61D+00 0.01670344 0.00597035 0.21917073 0.08451089    0.0507267 ----
    54   0   0   F    F -4.42D-01 0.01670344 0.00597035 0.09680259 0.03732648    0.0505049 ----
    55   0   0   F    T  1.74D+00 0.01511045 0.00592262 0.10519617 0.04718440    0.0499175 ----
    56   0   0   F    F -1.32D-01 0.01511045 0.00592262 0.01388311 0.00622709    0.0491750 ----
    57   0   0   F    T  2.93D+00 0.00955170 0.00395064 0.10578938 0.04095731    0.0491593 ----
    58   0   0   F    F  2.05D-01 0.00955170 0.00395064 0.02167978 0.00839352    0.0483328 ----
    59   0   0   F    F -2.59D-02 0.00955170 0.00395064 0.00056237 0.00021773    0.0483075 ---+
    60   0   0   F    T  2.33D+00 0.00908467 0.00450882 0.13974642 0.04913310    0.0483075 ----
    61   0   0   F    F  6.49D-02 0.00908467 0.00450882 0.00907501 0.00319066    0.0475595 ----
    62   0   0   F    F -4.23D-02 0.00908467 0.00450882 0.00038392 0.00013498    0.0475568 --++
    63   0   0   F    T  2.89D+00 0.01114051 0.00437640 0.15552438 0.05218878    0.0475568 ----
    64   0   0   F    F -4.22D-01 0.01114051 0.00437640 0.06569885 0.02204634    0.0473542 ----
    65   0   0   F    T  1.43D+00 0.01221689 0.00491529 0.09242679 0.03014244    0.0470637 ----
    66   0   0   F    F  1.14D+00 0.01221689 0.00491529 0.10551960 0.03441230    0.0462973 ----
    67   0   0   F    F -5.75D-02 0.01221689 0.00491529 0.00607096 0.00197988    0.0460264 ----
    68   0   0   F    T  2.72D+00 0.00931291 0.00517793 0.19496141 0.06257487    0.0460255 ----
    69   0   0   F    F -3.59D-01 0.00931291 0.00517793 0.07006584 0.02248835    0.0455572 ----
    70   0   0   F    T  2.16D+00 0.00998447 0.00492830 0.11738279 0.04008652    0.0452932 ----
    71   0   0   F    F  2.38D-01 0.00998447 0.00492830 0.02794114 0.00954197    0.0443579 ----
    72   0   0   F    F -2.05D-02 0.00998447 0.00492830 0.00057286 0.00019563    0.0443228 ---+
    73   0   0   F    T  1.87D+00 0.01869004 0.00602560 0.13421943 0.04943285    0.0443228 ----
    74   0   0   F    F -8.43D-02 0.01869004 0.00602560 0.01131810 0.00416844    0.0434169 ----
    75   0   0   F    T  2.20D+00 0.01246941 0.00505315 0.11876980 0.04526441    0.0434097 ----
    76   0   0   F    F  2.45D-01 0.01246941 0.00505315 0.02910774 0.01109326    0.0424379 ----
    77   0   0   F    F -2.75D-02 0.01246941 0.00505315 0.00080071 0.00030516    0.0424023 ----
    78   0   0   F    T  1.61D+00 0.01645046 0.00608572 0.14683767 0.05605251    0.0424023 ----
    79   0   0   F    F  1.85D-01 0.01645046 0.00608572 0.02720682 0.01038569    0.0413501 ----
    80   0   0   F    F -4.32D-02 0.01645046 0.00608572 0.00117631 0.00044903    0.0413240 ----
    81   0   0   F    T  2.45D+00 0.01075885 0.00502113 0.17116607 0.06598917    0.0413240 ----
    82   0   0   F    F -1.93D-01 0.01075885 0.00502113 0.03304117 0.01273827    0.0406116 ----
    83   0   0   F    F -1.67D-02 0.01075885 0.00502113 0.00055040 0.00021219    0.0405680 ---+
    84   0   0   F    T  4.59D+00 0.00652312 0.00360801 0.14583360 0.05346310    0.0405680 ----
    85   0   0   T    F  4.11D-01 0.00652312 0.00360801 0.05992786 0.02196976    0.0409277 ----
    86   0   0   F    T  1.84D+00 0.00732137 0.00351652 0.05516491 0.02196976    0.0402030 ----
    87   0   0   F    F  2.41D-01 0.00732137 0.00351652 0.01326786 0.00528401    0.0397958 ----
    88   0   0   F    T  1.78D+00 0.00962014 0.00385530 0.06369998 0.02725377    0.0397800 ----
    89   0   0   F    F -1.71D-01 0.00962014 0.00385530 0.01086894 0.00465023    0.0394639 ----
    90   0   0   F    T  3.10D+00 0.00553353 0.00259911 0.04942399 0.02260353    0.0394498 ----
    91   0   0   F    F -2.59D-01 0.00553353 0.00259911 0.01278622 0.00584764    0.0392454 ----
    92   0   0   F    T  2.49D+00 0.00679513 0.00241742 0.03989771 0.01675589    0.0392172 ----
    93   0   0   F    F  2.74D-01 0.00679513 0.00241742 0.01092144 0.00458669    0.0389496 ----
    94   0   0   F    T  2.21D+00 0.00674510 0.00284974 0.05121488 0.02134259    0.0389364 ----
    95   0   0   F    F -1.78D-01 0.00674510 0.00284974 0.00909194 0.00378885    0.0387262 ----
    96   0   0   F    T  2.96D+00 0.00630973 0.00217791 0.04117003 0.01755373    0.0387160 ----
    97   0   0   T    F  3.87D-01 0.00630973 0.00217791 0.01591386 0.00678522    0.0388392 ----
    98   0   0   F    T  1.92D+00 0.00426806 0.00158104 0.01545869 0.00678522    0.0386345 ----
    99   0   0   F    F  1.00D+00 0.00426806 0.00158104 0.01547202 0.00679107    0.0385271 ----
   100   0   0   F    T  2.19D+00 0.00406123 0.00202537 0.02887940 0.01357629    0.0384915 ----
   101   0   0   F    F -4.03D-02 0.00406123 0.00202537 0.00116385 0.00054713    0.0383621 ----
   102   0   0   F    T  3.90D+00 0.00280279 0.00141272 0.03221291 0.01302916    0.0383619 ----
   103   0   0   T    F  3.48D-01 0.00280279 0.00141272 0.01119451 0.00452785    0.0384629 ----
   104   0   0   F    T  2.23D+00 0.00241698 0.00102010 0.00983897 0.00452785    0.0383214 ----
   105   0   0   F    F -1.60D-01 0.00241698 0.00102010 0.00157184 0.00072335    0.0382931 ----
   106   0   0   F    T  1.30D+00 0.00246131 0.00116945 0.00821446 0.00380450    0.0382921 ----
   107   0   0   F    F  1.17D+00 0.00246131 0.00116945 0.00960155 0.00444692    0.0382507 ----
   108   0   0   F    T  3.57D+00 0.00259635 0.00100219 0.01722604 0.00825142    0.0382336 ----
   109   0   0   F    F -4.23D-01 0.00259635 0.00100219 0.00728219 0.00348823    0.0382190 ----
   110   0   0   F    T  2.04D+00 0.00233250 0.00095867 0.00907260 0.00476318    0.0382027 ----
   111   0   0   F    F  8.99D-01 0.00233250 0.00095867 0.00815696 0.00428246    0.0381617 ----
   112   0   0   F    T  1.80D+00 0.00325346 0.00136106 0.02244962 0.00904565    0.0381501 ----
   113   0   0   F    F -2.56D-01 0.00325346 0.00136106 0.00575465 0.00231873    0.0381170 ----
   114   0   0   F    T  2.13D+00 0.00271484 0.00105403 0.01604537 0.00672692    0.0381124 ----
   115   0   0   F    F -4.14D-02 0.00271484 0.00105403 0.00066474 0.00027869    0.0380783 ---+
   116   0   0   F    T  2.03D+00 0.00199889 0.00104258 0.01695673 0.00644823    0.0380783 ----
   117   0   0   F    F  5.96D-01 0.00199889 0.00104258 0.01010700 0.00384345    0.0380328 ----
   118   0   0   F    T  2.55D+00 0.00315203 0.00114965 0.02399527 0.01029168    0.0380255 ----
   119   0   0   F    F  2.46D-01 0.00315203 0.00114965 0.00589787 0.00252962    0.0379646 ----
   120   0   0   F    T  2.82D+00 0.00355486 0.00120251 0.02658273 0.01282130    0.0379621 ----
   121   0   0   F    F  1.86D-01 0.00355486 0.00120251 0.00495517 0.00238996    0.0378907 ----
   122   0   0   F    T  1.86D+00 0.00350666 0.00161743 0.03189833 0.01521127    0.0378888 ----
   123   0   0   F    F  4.87D-01 0.00350666 0.00161743 0.01554259 0.00741175    0.0377930 ----
   124   0   0   F    T  1.72D+00 0.00667449 0.00203420 0.04585204 0.02262302    0.0377817 ----
   125   0   0   F    F -1.56D-01 0.00667449 0.00203420 0.00713104 0.00351840    0.0376943 ----
   126   0   0   F    T  1.97D+00 0.00423891 0.00171338 0.03610578 0.01910462    0.0376912 ----
   127   0   0   F    F  6.16D-01 0.00423891 0.00171338 0.02225613 0.01177637    0.0375726 ----
   128   0   0   F    T  1.87D+00 0.00536009 0.00222031 0.05730439 0.03088099    0.0375531 ----
   129   0   0   F    F  4.63D-01 0.00536009 0.00222031 0.02652326 0.01429323    0.0373626 ----
   130   0   0   F    F -1.28D-02 0.00536009 0.00222031 0.00033942 0.00018291    0.0373397 --++
   131   0   0   F    T  5.51D+00 0.00349351 0.00170595 0.09989792 0.04499131    0.0373397 ----
   132   0   0   T    F  4.04D-01 0.00349351 0.00170595 0.04040023 0.01819517    0.0374486 ----
   133   0   0   F    T  2.01D+00 0.00421790 0.00180125 0.03695185 0.01819517    0.0372430 ----
   134   0   0   F    F  1.35D-01 0.00421790 0.00180125 0.00498728 0.00245574    0.0371328 ----
   135   0   0   F    T  1.55D+00 0.00596892 0.00217410 0.04631544 0.02065091    0.0371312 ----
   136   0   0   F    F  5.43D-02 0.00596892 0.00217410 0.00251262 0.00112031    0.0370170 ----
   137   0   0   F    T  3.00D+00 0.00339984 0.00156647 0.04907345 0.02177123    0.0370167 ----
   138   0   0   F    F -3.65D-01 0.00339984 0.00156647 0.01791926 0.00794980    0.0369699 ----
   139   0   0   F    T  2.85D+00 0.00272892 0.00125820 0.03488521 0.01382142    0.0369464 ----
   140   0   0   F    F  5.26D-01 0.00272892 0.00125820 0.01833235 0.00726323    0.0368551 ----
   141   0   0   F    T  2.92D+00 0.00418330 0.00152110 0.05488730 0.02108465    0.0368427 ----
   142   0   0   F    F -4.57D-01 0.00418330 0.00152110 0.02507984 0.00963428    0.0368265 ----
   143   0   0   F    T  2.89D+00 0.00237078 0.00111049 0.03071615 0.01145037    0.0367878 ----
   144   0   0   T    F  4.63D-01 0.00237078 0.00111049 0.01421399 0.00529869    0.0367960 ----
   145   0   0   F    T  1.68D+00 0.00231716 0.00095933 0.01468166 0.00529869    0.0367631 ----
   146   0   0   F    F  7.01D-01 0.00231716 0.00095933 0.01029004 0.00371373    0.0367305 ----
   147   0   0   F    T  2.44D+00 0.00176334 0.00100705 0.02478896 0.00901242    0.0367238 ----
   148   0   0   F    F  3.34D-02 0.00176334 0.00100705 0.00082722 0.00030075    0.0366854 ----
   149   0   0   F    T  3.26D+00 0.00232415 0.00085990 0.02421566 0.00931317    0.0366853 ----
   150   0   0   F    F -1.99D-01 0.00232415 0.00085990 0.00482955 0.00185741    0.0366582 ----
   151   0   0   F    T  1.84D+00 0.00208018 0.00100879 0.01863835 0.00745576    0.0366564 ----
   152   0   0   F    F  1.57D-01 0.00208018 0.00100879 0.00292480 0.00116999    0.0366246 ----
   153   0   0   F    T  2.00D+00 0.00272066 0.00102577 0.02155693 0.00862575    0.0366240 ----
   154   0   0   F    F -3.89D-01 0.00272066 0.00102577 0.00837926 0.00335286    0.0366126 ----
   155   0   0   F    T  3.00D+00 0.00119024 0.00063954 0.01476462 0.00527289    0.0366047 ----
   156   0   0   F    F  5.16D-01 0.00119024 0.00063954 0.00761514 0.00271960    0.0365799 ----
   157   0   0   F    T  2.13D+00 0.00181407 0.00092500 0.02223036 0.00799249    0.0365767 ----
   158   0   0   F    T  3.75D+00 0.00152080 0.00067684 0.02491181 0.00799249    0.0365496 ----
   159   0   0   F    F -4.47D-01 0.00152080 0.00067684 0.01113116 0.00357122    0.0365446 ----
   160   0   0   F    T  1.41D+00 0.00214135 0.00080499 0.01452785 0.00442126    0.0365355 ----
   161   0   0   F    F  4.27D-01 0.00214135 0.00080499 0.00620924 0.00188966    0.0365177 ----
   162   0   0   F    T  1.78D+00 0.00282833 0.00083916 0.02091641 0.00631092    0.0365159 ----
   163   0   0   F    F  3.44D-01 0.00282833 0.00083916 0.00718819 0.00216883    0.0364923 ----
   164   0   0   F    T  3.46D+00 0.00165373 0.00069063 0.02900863 0.00847975    0.0364906 ----
   165   0   0   F    F -2.57D-01 0.00165373 0.00069063 0.00746158 0.00218116    0.0364745 ----
   166   0   0   F    T  2.37D+00 0.00164571 0.00070310 0.02169361 0.00629860    0.0364723 ----
   167   0   0   F    F  5.38D-01 0.00164571 0.00070310 0.01166078 0.00338563    0.0364485 ----
   168   0   0   F    T  2.89D+00 0.00185727 0.00077733 0.03142624 0.00968423    0.0364452 ----
   169   0   0   T    F  4.32D-01 0.00185727 0.00077733 0.01356593 0.00418044    0.0364535 ----
   170   0   0   F    T  2.40D+00 0.00145024 0.00054607 0.01274467 0.00418044    0.0364339 ----
   171   0   0   F    F -3.51D-01 0.00145024 0.00054607 0.00447219 0.00146694    0.0364290 ----
   172   0   0   F    T  1.86D+00 0.00088029 0.00048301 0.00831785 0.00271350    0.0364270 ----
   173   0   0   F    F  6.30D-01 0.00088029 0.00048301 0.00523897 0.00170909    0.0364179 ----
   174   0   0   F    T  3.77D+00 0.00145831 0.00041959 0.01182520 0.00442258    0.0364163 ----
   175   0   0   T    F  4.77D-01 0.00145831 0.00041959 0.00564199 0.00211009    0.0364173 ----
   176   0   0   F    T  4.36D+00 0.00072375 0.00025085 0.00455108 0.00211009    0.0364116 ----
   177   0   0   F    F -3.10D-01 0.00072375 0.00025085 0.00141079 0.00065411    0.0364093 ----
   178   0   0   F    T  1.90D+00 0.00070377 0.00030248 0.00366098 0.00145598    0.0364087 ----
   179   0   0   F    F  1.78D-01 0.00070377 0.00030248 0.00065077 0.00025881    0.0364057 ---+
   180   0   0   F    T  1.85D+00 0.00084006 0.00032165 0.00449621 0.00171479    0.0364057 ----
   181   0   0   F    F -2.59D-01 0.00084006 0.00032165 0.00116622 0.00044478    0.0364038 ----
   182   0   0   F    T  2.03D+00 0.00072581 0.00025307 0.00340030 0.00127001    0.0364035 ----
   183   0   0   F    F  3.71D-01 0.00072581 0.00025307 0.00126159 0.00047120    0.0364011 ----
   184   0   0   F    T  2.16D+00 0.00082543 0.00027771 0.00479269 0.00174122    0.0364009 ----
   185   0   0   F    F  2.30D-01 0.00082543 0.00027771 0.00110470 0.00040135    0.0363979 ----
   186   0   0   F    T  4.14D+00 0.00052465 0.00021259 0.00637714 0.00214256    0.0363978 ----
   187   0   0   F    F -2.68D-01 0.00052465 0.00021259 0.00170715 0.00057356    0.0363960 ----
   188   0   0   F    T  2.02D+00 0.00062284 0.00025315 0.00459423 0.00156900    0.0363957 ----
   189   0   0   F    F  4.91D-01 0.00062284 0.00025315 0.00225357 0.00076963    0.0363932 ----
   190   0   0   F    T  2.04D+00 0.00068549 0.00030175 0.00643207 0.00233863    0.0363928 ----
   191   0   0   F    F -3.28D-01 0.00068549 0.00030175 0.00210922 0.00076689    0.0363914 ----
   192   0   0   F    T  2.00D+00 0.00058961 0.00024318 0.00385610 0.00157174    0.0363910 ----
   193   0   0   F    T  1.92D+00 0.00048221 0.00024253 0.00360206 0.00157174    0.0363892 ----
   194   0   0   F    F  1.23D+00 0.00048221 0.00024253 0.00441617 0.00192698    0.0363866 ----
   195   0   0   F    T  3.42D+00 0.00074342 0.00026799 0.00763339 0.00349872    0.0363855 ----
   196   0   0   F    F -4.91D-01 0.00074342 0.00026799 0.00374804 0.00171789    0.0363853 ----
   197   0   0   F    T  4.08D+00 0.00033709 0.00016738 0.00332689 0.00178082    0.0363836 ----
   198   0   0   F    F  3.60D-01 0.00033709 0.00016738 0.00119717 0.00064082    0.0363814 ----
   199   0   0   F    T  1.50D+00 0.00067441 0.00031900 0.00533084 0.00242165    0.0363813 ----
   200   0   0   F    F  3.11D-01 0.00067441 0.00031900 0.00165807 0.00075321    0.0363784 ----
   201   0   0   F    T  2.06D+00 0.00071622 0.00030846 0.00699451 0.00317486    0.0363783 ----
   202   0   0   F    F -2.81D-01 0.00071622 0.00030846 0.00196246 0.00089078    0.0363765 ----
   203   0   0   F    T  1.94D+00 0.00048520 0.00026536 0.00540005 0.00228408    0.0363761 ----
   204   0   0   F    F  7.87D-01 0.00048520 0.00026536 0.00424821 0.00179689    0.0363732 ----
   205   0   0   F    T  2.50D+00 0.00071501 0.00030856 0.01000484 0.00408097    0.0363725 ----
   206   0   0   F    F  2.14D-01 0.00071501 0.00030856 0.00214152 0.00087353    0.0363683 ----
   207   0   0   F    T  3.43D+00 0.00063661 0.00029017 0.01259748 0.00495450    0.0363681 ----
   208   0   0   F    F -1.12D-01 0.00063661 0.00029017 0.00141589 0.00055686    0.0363643 ----
   209   0   0   F    T  2.09D+00 0.00091538 0.00034852 0.01098735 0.00439764    0.0363643 ----
   210   0   0   F    F  5.58D-01 0.00091538 0.00034852 0.00613304 0.00245472    0.0363591 ----
   211   0   0   F    T  2.83D+00 0.00089827 0.00036833 0.01916228 0.00685236    0.0363584 ----
   212   0   0   T    F  4.10D-01 0.00089827 0.00036833 0.00784904 0.00280679    0.0363610 ----
   213   0   0   F    T  2.10D+00 0.00068087 0.00027110 0.00732396 0.00280679    0.0363560 ----
   214   0   0   F    T  1.93D+00 0.00092077 0.00027884 0.00772730 0.00280679    0.0363538 ----
   215   0   0   F    F  3.94D-01 0.00092077 0.00027884 0.00304720 0.00110684    0.0363509 ----
   216   0   0   F    T  5.09D+00 0.00048988 0.00020366 0.01054432 0.00391363    0.0363507 ----
   217   0   0   T    F  4.22D-01 0.00048988 0.00020366 0.00445167 0.00165228    0.0363518 ----
   218   0   0   F    T  3.27D+00 0.00036132 0.00016076 0.00433203 0.00165228    0.0363493 ----
   219   0   0   F    F  1.14D-01 0.00036132 0.00016076 0.00049219 0.00018773    0.0363479 ---+
   220   0   0   F    T  2.36D+00 0.00038215 0.00019640 0.00527206 0.00184001    0.0363479 ----
   221   0   0   F    F -2.23D-01 0.00038215 0.00019640 0.00117596 0.00041042    0.0363469 ----
   222   0   0   F    T  3.06D+00 0.00049192 0.00014802 0.00346516 0.00142958    0.0363468 ----
   223   0   0   T    F  4.54D-01 0.00049192 0.00014802 0.00157332 0.00064909    0.0363470 ----
   224   0   0   F    T  1.34D+00 0.00036047 0.00014707 0.00181077 0.00064909    0.0363464 ----
   225   0   0   F    F  1.38D+00 0.00036047 0.00014707 0.00249593 0.00089469    0.0363457 ----
   226   0   0   F    T  3.30D+00 0.00044202 0.00014133 0.00360027 0.00154378    0.0363454 ----
   227   0   0   F    F -4.70D-01 0.00044202 0.00014133 0.00169252 0.00072574    0.0363452 ----
   228   0   0   F    T  4.33D+00 0.00015587 0.00008499 0.00205980 0.00081803    0.0363448 ----
   229   0   0   F    F -2.96D-01 0.00015587 0.00008499 0.00061030 0.00024237    0.0363446 ---+
   230   0   0   F    T  2.63D+00 0.00023676 0.00008757 0.00125744 0.00057566    0.0363445 ----
   231   0   0   F    T  3.31D+00 0.00013920 0.00007607 0.00115793 0.00057566    0.0363442 ----
   232   0   0   T    F  4.93D-01 0.00013920 0.00007607 0.00057120 0.00028397    0.0363442 ---+
   233   0   0   F    T  1.76D+00 0.00019011 0.00006707 0.00062831 0.00028397    0.0363440 -+-+
   234   0   0   F    T  1.40D+00 0.00015305 0.00007291 0.00065377 0.00028397    0.0363439 -+-+
   235   0   0   F    F  5.14D-01 0.00015305 0.00007291 0.00033579 0.00014585    0.0363438 -+++
   236   0   0   F    T  7.37D+00 0.00008586 0.00004102 0.00100662 0.00042982    0.0363438 ++--
   237   0   0   T    T  1.00D+00 0.00038296 0.00019086 0.00038296 0.00019086    0.0363440 --++
   238   0   0   T    F  5.00D-01 0.00038296 0.00019086 0.00019148 0.00009543    0.0363446 --++
   239   0   0   T    F  5.00D-01 0.00038296 0.00019086 0.00009574 0.00004772    0.0363440 --++
   240   0   0   T    F  5.00D-01 0.00038296 0.00019086 0.00004787 0.00002386    0.0363438 --++
   241   0   0   T    F  5.00D-01 0.00038296 0.00019086 0.00002394 0.00001193    0.0363438 --++
   242   0   0   T    F  5.00D-01 0.00038296 0.00019086 0.00001197 0.00000596    0.0363438 --++
   243   0   0   T    F  5.00D-01 0.00038296 0.00019086 0.00000598 0.00000298    0.0363438 --++
   244   0   0   T    F  5.00D-01 0.00038296 0.00019086 0.00000299 0.00000149    0.0363438 --++
   245   0   0   T    F  5.00D-01 0.00038296 0.00019086 0.00000150 0.00000075    0.0363438 --++
   246   0   0   T    F  5.00D-01 0.00038296 0.00019086 0.00000075 0.00000037    0.0363438 --++
   247   0   0   T    T  1.00D+00 0.00008652 0.00004128 0.00007839 0.00003490    0.0363438 ++++
   248   0   0   F    T  1.00D+00 0.00010036 0.00003733 0.00009953 0.00003691    0.0363437 ====
 ****************************
 MOLECULAR MECHANICS FUNCTION
 ****************************
 Atomic parameters:
 Center  VDW
      1 1.9080 0.0860000
      2 1.7210 0.2104000
      3 1.9080 0.1094000
      4 1.4870 0.0157000
      5 1.4870 0.0157000
      6 1.8750 0.1700000
      7 0.6000 0.0157000
      8 0.6000 0.0157000
      9 1.6612 0.2100000
     10 0.0000 0.0000000
 Molecular mechanics terms:
 NBDir 3 1      0      0
 HrmStr1  1- 2  431.53 1.3510
 HrmStr1  1- 3  294.15 1.5090
 HrmStr1  1- 9  946.08 1.2030
 HrmStr1  2-10  566.76 0.9680
 HrmStr1  3- 4  358.05 1.0960
 HrmStr1  3- 5  358.05 1.0960
 HrmStr1  3- 6  380.82 1.4520
 HrmStr1  6- 7  506.01 1.0110
 HrmStr1  6- 8  506.01 1.0110
 HrmBnd1  1- 2-10  56.55 107.23
 HrmBnd1  1- 3- 4  46.41 106.89
 HrmBnd1  1- 3- 5  46.41 106.89
 HrmBnd1  1- 3- 6  59.93 110.61
 HrmBnd1  2- 1- 3  67.92 111.72
 HrmBnd1  2- 1- 9  91.40 123.02
 HrmBnd1  3- 1- 9  62.83 125.24
 HrmBnd1  3- 6- 7  52.60 110.71
 HrmBnd1  3- 6- 8  52.60 110.71
 HrmBnd1  4- 3- 5  44.68 106.22
 HrmBnd1  4- 3- 6  52.45 112.94
 HrmBnd1  5- 3- 6  52.45 112.94
 HrmBnd1  7- 6- 8  47.09 108.63
 AmbTrs  3- 1- 2-10   0 180   0   0  0.0000 14.5000  0.0000  0.0000  2.0
 AmbTrs  9- 1- 2-10   0   0   0   0  0.0000 14.5000  0.0000  0.0000  2.0
 AmbTrs  2- 1- 3- 4   0   0   0   0  0.0000 14.5000  0.0000  0.0000  6.0
 AmbTrs  2- 1- 3- 5   0   0   0   0  0.0000 14.5000  0.0000  0.0000  6.0
 AmbTrs  2- 1- 3- 6   0   0   0   0  0.0000 14.5000  0.0000  0.0000  6.0
 AmbTrs  9- 1- 3- 4   0   0   0   0  0.0000 14.5000  0.0000  0.0000  6.0
 AmbTrs  9- 1- 3- 5   0   0   0   0  0.0000 14.5000  0.0000  0.0000  6.0
 AmbTrs  9- 1- 3- 6   0   0   0   0  0.0000 14.5000  0.0000  0.0000  6.0
 AmbTrs  1- 3- 6- 7   0 180   0   0  0.0000 25.6300  0.0000  0.0000  6.0
 AmbTrs  1- 3- 6- 8   0 180   0   0  0.0000 25.6300  0.0000  0.0000  6.0
 AmbTrs  4- 3- 6- 7   0   0   0   0  0.0000  0.0000  0.0000  0.0000  6.0
 AmbTrs  4- 3- 6- 8   0   0   0   0  0.0000  0.0000  0.0000  0.0000  6.0
 AmbTrs  5- 3- 6- 7   0   0   0   0  0.0000  0.0000  0.0000  0.0000  6.0
 AmbTrs  5- 3- 6- 8   0   0   0   0  0.0000  0.0000  0.0000  0.0000  6.0
 NBPair  2- 1 3 1      0      0 -1.000 -1.000
 NBPair  3- 2 3 1      0      0 -1.000 -1.000
 NBPair 10- 3 3 1      0      0 -0.500 -0.167
 NBPair  9- 2 3 1      0      0 -1.000 -1.000
 NBPair 10- 9 3 1      0      0 -0.500 -0.167
 NBPair  3- 1 3 1      0      0 -1.000 -1.000
 NBPair  4- 2 3 1      0      0 -0.500 -0.167
 NBPair  5- 2 3 1      0      0 -0.500 -0.167
 NBPair  6- 2 3 1      0      0 -0.500 -0.167
 NBPair  9- 3 3 1      0      0 -1.000 -1.000
 NBPair  9- 4 3 1      0      0 -0.500 -0.167
 NBPair  9- 5 3 1      0      0 -0.500 -0.167
 NBPair  9- 6 3 1      0      0 -0.500 -0.167
 NBPair  9- 1 3 1      0      0 -1.000 -1.000
 NBPair 10- 1 3 1      0      0 -1.000 -1.000
 NBPair 10- 2 3 1      0      0 -1.000 -1.000
 NBPair  4- 1 3 1      0      0 -1.000 -1.000
 NBPair  5- 1 3 1      0      0 -1.000 -1.000
 NBPair  6- 1 3 1      0      0 -1.000 -1.000
 NBPair  4- 3 3 1      0      0 -1.000 -1.000
 NBPair  5- 4 3 1      0      0 -1.000 -1.000
 NBPair  6- 4 3 1      0      0 -1.000 -1.000
 NBPair  5- 3 3 1      0      0 -1.000 -1.000
 NBPair  6- 5 3 1      0      0 -1.000 -1.000
 NBPair  6- 3 3 1      0      0 -1.000 -1.000
 NBPair  7- 1 3 1      0      0 -0.500 -0.167
 NBPair  8- 1 3 1      0      0 -0.500 -0.167
 NBPair  7- 4 3 1      0      0 -0.500 -0.167
 NBPair  8- 4 3 1      0      0 -0.500 -0.167
 NBPair  7- 5 3 1      0      0 -0.500 -0.167
 NBPair  8- 5 3 1      0      0 -0.500 -0.167
 NBPair  7- 3 3 1      0      0 -1.000 -1.000
 NBPair  8- 3 3 1      0      0 -1.000 -1.000
 NBPair  7- 6 3 1      0      0 -1.000 -1.000
 NBPair  8- 7 3 1      0      0 -1.000 -1.000
 NBPair  8- 6 3 1      0      0 -1.000 -1.000
 Energy per function type:
 Direct Coulomb + vdW (small)                           0.002777246
 Direct Coulomb (large)                                -0.129723464
 Direct vdW (large)                                   269.753625456
 Non-direct Coulomb + vdW (small)                      -0.012441062
 Non-direct Coulomb (large)                             0.137793399
 Non-direct vdW (large)                              -269.753625456
 Harmonic stretch I                                     0.000104165
 Harmonic bend I                                        0.004733446
 Amber torsion                                          0.033099995
 Energy per function class:
        Coulomb              -0.002745067
    Vanderwaals               0.001151186
     Stretching               0.000104165
        Bending               0.004733446
        Torsion               0.033099995
 Energy=    3.634372433E-02 NIter=   0.
 Dipole moment=      -0.032916      -0.813559       0.444859
 Leave Link  402 at Wed Nov 29 12:05:15 2023, MaxMem=   134217728 cpu:               0.5 elap:               0.5
 (Enter /home/emanuele/chem_software/gaussian//gdv/l716.exe)
 Dipole        =-3.29157380D-02-8.13558763D-01 4.44858731D-01
 -------------------------------------------------------------------
 Center     Atomic                   Forces (Hartrees/Bohr)
 Number     Number              X              Y              Z
 -------------------------------------------------------------------
      1        6           0.000024247    0.000032946   -0.000045518
      2        8           0.000032581    0.000034465   -0.000030414
      3        6          -0.000016935   -0.000022549   -0.000002685
      4        1           0.000017275   -0.000002172    0.000016918
      5        1           0.000024837    0.000042913   -0.000011122
      6        7           0.000010630    0.000026760    0.000052609
      7        1          -0.000010055   -0.000040334    0.000050103
      8        1           0.000000448   -0.000012894   -0.000074399
      9        8          -0.000033827   -0.000100355    0.000045183
     10        1          -0.000049200    0.000041219   -0.000000675
 -------------------------------------------------------------------
 Cartesian Forces:  Max     0.000100355 RMS     0.000037331
 Z-matrix is all fixed cartesians, so copy forces.
 Leave Link  716 at Wed Nov 29 12:05:15 2023, MaxMem=   134217728 cpu:               0.0 elap:               0.0
 (Enter /home/emanuele/chem_software/gaussian//gdv/l103.exe)

 GradGradGradGradGradGradGradGradGradGradGradGradGradGradGradGradGradGrad
 Berny optimization.
 Search for a local minimum.
 Step number   1 out of a maximum of    2
 All quantities printed in internal units (Hartrees-Bohrs-Radians)
 RMS Force = .37331D-04 SwitMx=.10000D-02 MixMth= 2
 Mixed Optimization -- En-DIIS/RFO-DIIS
 Second derivative matrix not updated -- unit matrix used.
 ITU=  0
 RFO step:  Lambda=-4.18073250D-08 EMin= 1.00000000D+00
 Linear search not attempted -- first point.
 Variable       Old X    -DE/DX   Delta X   Delta X   Delta X     New X
                                 (Linear)    (Quad)   (Total)
    X1       -1.21514   0.00002   0.00000   0.00002   0.00002  -1.21512
    Y1       -0.20258   0.00003   0.00000   0.00003   0.00003  -0.20254
    Z1       -0.69681  -0.00005   0.00000  -0.00005  -0.00005  -0.69686
    X2       -2.12627   0.00003   0.00000   0.00003   0.00003  -2.12624
    Y2        0.34467   0.00003   0.00000   0.00003   0.00003   0.34470
    Z2        1.62270  -0.00003   0.00000  -0.00003  -0.00003   1.62267
    X3        1.34643  -0.00002   0.00000  -0.00002  -0.00002   1.34642
    Y3       -1.46562  -0.00002   0.00000  -0.00002  -0.00002  -1.46565
    Z3       -0.39244  -0.00000   0.00000  -0.00000  -0.00000  -0.39244
    X4        1.04691   0.00002   0.00000   0.00002   0.00002   1.04692
    Y4       -3.12325  -0.00000   0.00000  -0.00000  -0.00000  -3.12325
    Z4        0.81448   0.00002   0.00000   0.00002   0.00002   0.81450
    X5        1.74435   0.00002   0.00000   0.00002   0.00002   1.74438
    Y5       -2.34791   0.00004   0.00000   0.00004   0.00004  -2.34787
    Z5       -2.22437  -0.00001   0.00000  -0.00001  -0.00001  -2.22438
    X6        3.34347   0.00001   0.00000   0.00001   0.00001   3.34348
    Y6        0.22944   0.00003   0.00000   0.00003   0.00003   0.22946
    Z6        0.47767   0.00005   0.00000   0.00005   0.00005   0.47772
    X7        2.70771  -0.00001   0.00000  -0.00001  -0.00001   2.70770
    Y7        1.80456  -0.00004   0.00000  -0.00004  -0.00004   1.80452
    Z7        1.35644   0.00005   0.00000   0.00005   0.00005   1.35649
    X8        4.80267   0.00000   0.00000   0.00000   0.00000   4.80267
    Y8       -0.63358  -0.00001   0.00000  -0.00001  -0.00001  -0.63359
    Z8        1.35946  -0.00007   0.00000  -0.00007  -0.00007   1.35939
    X9       -1.50801  -0.00003   0.00000  -0.00003  -0.00003  -1.50805
    Y9        1.29074  -0.00010   0.00000  -0.00010  -0.00010   1.29064
    Z9       -2.38373   0.00005   0.00000   0.00005   0.00005  -2.38369
   X10       -3.93998  -0.00005   0.00000  -0.00005  -0.00005  -3.94003
   Y10        0.46847   0.00004   0.00000   0.00004   0.00004   0.46851
   Z10        1.43656  -0.00000   0.00000  -0.00000  -0.00000   1.43656
         Item               Value     Threshold  Converged?
 Maximum Force            0.000100     0.000450     YES
 RMS     Force            0.000037     0.000300     YES
 Maximum Displacement     0.000100     0.001800     YES
 RMS     Displacement     0.000037     0.001200     YES
 Predicted change in Energy=-2.090366D-08
 Optimization completed.
    -- Stationary point found.
 Largest change from initial coordinates is atom    8       0.682 Angstoms.
 GradGradGradGradGradGradGradGradGradGradGradGradGradGradGradGradGradGrad

 Leave Link  103 at Wed Nov 29 12:05:15 2023, MaxMem=   134217728 cpu:               0.0 elap:               0.0
 (Enter /home/emanuele/chem_software/gaussian//gdv/l202.exe)
                          Input orientation:                          
 ---------------------------------------------------------------------
 Center     Atomic      Atomic             Coordinates (Angstroms)
 Number     Number       Type             X           Y           Z
 ---------------------------------------------------------------------
      1          6    20001002       -0.643027   -0.107199   -0.368736
      2          8    20001022       -1.125173    0.182392    0.858697
      3          6    20001001        0.712502   -0.775574   -0.207669
      4          1    20001034        0.553999   -1.652750    0.431004
      5          1    20001034        0.923070   -1.242462   -1.177086
      6          7    20001020        1.769286    0.121412    0.252772
      7          1    20001029        1.432856    0.954932    0.717796
      8          1    20001029        2.541465   -0.335273    0.719395
      9          8    20001025       -0.798007    0.683032   -1.261417
     10          1    20001031       -2.084947    0.247903    0.760197
 ---------------------------------------------------------------------
                    Distance matrix (angstroms):
                    1          2          3          4          5
     1  C    0.000000
     2  O    1.350155   0.000000
     3  C    1.519910   2.330640   0.000000
     4  H    2.112152   2.523942   1.096570   0.000000
     5  H    2.096405   3.220237   1.096400   1.700149   0.000000
     6  N    2.501557   2.957830   1.460611   2.157856   2.149588
     7  H    2.572540   2.675852   2.090466   2.766703   2.946014
     8  H    3.372986   3.705619   2.097241   2.401861   2.653080
     9  O    1.202233   2.202853   2.349373   3.185606   2.583940
    10  H    1.865401   0.967037   3.132091   3.268774   3.875877
                    6          7          8          9         10
     6  N    0.000000
     7  H    1.012022   0.000000
     8  H    1.011217   1.701072   0.000000
     9  O    3.033015   2.994656   4.014055   0.000000
    10  H    3.889550   3.588402   4.663201   2.435668   0.000000
 Symmetry turned off by external request.
 Stoichiometry    C2H5NO2
 Framework group  C1[X(C2H5NO2)]
 Deg. of freedom    24
 Full point group                 C1      NOp   1
 Rotational constants (GHZ):           8.6343353           4.1862560           3.4522612
 Leave Link  202 at Wed Nov 29 12:05:15 2023, MaxMem=   134217728 cpu:               0.0 elap:               0.0
 (Enter /home/emanuele/chem_software/gaussian//gdv/l9999.exe)
 Unable to Open any file for archive entry.
 1\1\GINC-EMANUELE-XPS-13-9343\FOpt\AMBER\ZDO\C2H5N1O2\EMANUELE\29-Nov-
 2023\0\\#p Amber=(SoftFirst,Print) geom=nocrowd nosymm opt=(maxcycle=3
 00)\\Title\\0,1\C,-0.643026969,-0.1071985908,-0.3687357001\O,-1.125173
 1206,0.1823915435,0.858697024\C,0.7125019758,-0.77557408,-0.2076691996
 \H,0.5539988051,-1.6527502039,0.4310040738\H,0.9230704452,-1.242462021
 6,-1.1770864932\N,1.7692862315,0.1214121558,0.2527716787\H,1.432855952
 1,0.9549320481,0.7177955116\H,2.5414647936,-0.3352734652,0.7193954678\
 O,-0.798006929,0.6830319028,-1.2614172391\H,-2.0849471847,0.2479027112
 ,0.760196876\\Version=ES64L-GDVRevJ.14\HF=0.0363437\RMSD=0.000e+00\RMS
 F=3.733e-05\Dipole=-0.0329157,-0.8135588,0.4448587\PG=C01 [X(C2H5N1O2)
 ]\\@
 The archive entry for this job was punched.


 EXPERIENCE IS THE FRUIT OF THE TREE OF ERRORS.
 Job cpu time:       0 days  0 hours  0 minutes  1.2 seconds.
 Elapsed time:       0 days  0 hours  0 minutes  1.1 seconds.
 File lengths (MBytes):  RWF=      6 Int=      0 D2E=      0 Chk=      1 Scr=      1
 Normal termination of Gaussian DV at Wed Nov 29 12:05:15 2023.
