 Entering Gaussian System, Link 0=/home/emanuele/chem_software/gaussian//g09/g09
 Input=0_mm_10.gjf
 Output=0_mm_10.log
 Initial command:
 /home/emanuele/chem_software/gaussian//gdv/l1.exe "/home/emanuele/chem_software/gaussian/scratch/Gau-13785.inp" -scrdir="/home/emanuele/chem_software/gaussian/scratch/"
 Entering Link 1 = /home/emanuele/chem_software/gaussian//gdv/l1.exe PID=     13787.
  
 Copyright (c) 1988-2020, Gaussian, Inc.  All Rights Reserved.
  
 This is the private, development version of
 the Gaussian(R) DV system of programs. It is based on
 the Gaussian(R) 16 system (copyright 2016, Gaussian, Inc.),
 the Gaussian(R) 09 system (copyright 2009, Gaussian, Inc.),
 the Gaussian(R) 03 system (copyright 2003, Gaussian, Inc.),
 the Gaussian(R) 98 system (copyright 1998, Gaussian, Inc.),
 the Gaussian(R) 94 system (copyright 1995, Gaussian, Inc.),
 the Gaussian 92(TM) system (copyright 1992, Gaussian, Inc.),
 the Gaussian 90(TM) system (copyright 1990, Gaussian, Inc.),
 the Gaussian 88(TM) system (copyright 1988, Gaussian, Inc.),
 the Gaussian 86(TM) system (copyright 1986, Carnegie Mellon
 University), and the Gaussian 82(TM) system (copyright 1983,
 Carnegie Mellon University). Gaussian is a federally registered
 trademark of Gaussian, Inc.
  
 This software contains proprietary and confidential information,
 including trade secrets, belonging to Gaussian, Inc.
  
 This software is provided under written license and may be
 used, copied, transmitted, or stored only in accord with that
 written license.
  
 The following legend is applicable only to US Government
 contracts under FAR:
  
                    RESTRICTED RIGHTS LEGEND
  
 Use, reproduction and disclosure by the US Government is
 subject to restrictions as set forth in subparagraphs (a)
 and (c) of the Commercial Computer Software - Restricted
 Rights clause in FAR 52.227-19.
  
 Gaussian, Inc.
 340 Quinnipiac St., Bldg. 40, Wallingford CT 06492
  
  
 ---------------------------------------------------------------
 Warning -- This program may not be used in any manner that
 competes with the business of Gaussian, Inc. or will provide
 assistance to any competitor of Gaussian, Inc.  The licensee
 of this program is prohibited from giving any competitor of
 Gaussian, Inc. access to this program.  By using this program,
 the user acknowledges that Gaussian, Inc. is engaged in the
 business of creating and licensing software in the field of
 computational chemistry and represents and warrants to the
 licensee that it is not a competitor of Gaussian, Inc. and that
 it will not use this program in any manner prohibited above.
 ---------------------------------------------------------------
  

 Cite this work as:
 Gaussian Development Version, Revision J.14,
 M. J. Frisch, G. W. Trucks, H. B. Schlegel, G. E. Scuseria, 
 M. A. Robb, J. R. Cheeseman, G. Scalmani, V. Barone, 
 G. A. Petersson, H. Nakatsuji, X. Li, A. V. Marenich, M. Caricato, 
 J. Bloino, B. G. Janesko, J. Zheng, R. Gomperts, B. Mennucci, 
 H. P. Hratchian, J. V. Ortiz, A. F. Izmaylov, J. L. Sonnenberg, 
 D. Williams-Young, F. Ding, F. Lipparini, F. Egidi, J. Goings, 
 B. Peng, A. Petrone, T. Henderson, D. Ranasinghe, V. G. Zakrzewski, 
 J. Gao, N. Rega, G. Zheng, W. Liang, M. Hada, M. Ehara, K. Toyota, 
 R. Fukuda, J. Hasegawa, M. Ishida, T. Nakajima, Y. Honda, O. Kitao, 
 H. Nakai, T. Vreven, K. Throssell, J. A. Montgomery, Jr., 
 J. E. Peralta, F. Ogliaro, M. J. Bearpark, J. J. Heyd, 
 E. N. Brothers, K. N. Kudin, V. N. Staroverov, T. A. Keith, 
 R. Kobayashi, J. Normand, K. Raghavachari, A. P. Rendell, 
 J. C. Burant, S. S. Iyengar, J. Tomasi, M. Cossi, J. M. Millam, 
 M. Klene, C. Adamo, R. Cammi, J. W. Ochterski, R. L. Martin, 
 K. Morokuma, O. Farkas, J. B. Foresman, and D. J. Fox, 
 Gaussian, Inc., Wallingford CT, 2020.
 
 ******************************************
 Gaussian DV:  ES64L-GDVRevJ.14 29-Dec-2020
                29-Nov-2023 
 ******************************************
 %mem=1GB
 %nprocshared=1
 Will use up to    1 processors via shared memory.
 %chk=0_mm_10.chk
 -----------------------------------------------------------------
 #p Amber=(SoftFirst,Print) geom=nocrowd nosymm opt=(maxcycle=300)
 -----------------------------------------------------------------
 1/6=300,10=10,18=4000020,19=15,37=210000000,38=1,56=2,64=203/1,3;
 2/9=110,12=1,15=1,40=1/2;
 3/5=30,11=9,25=1,30=1,41=10030000,43=2,71=1/1;
 4/20=11,22=1001,24=3,119=11/2;
 7/30=1,44=-1/16;
 1/6=300,10=10,18=4000020,19=15,64=203/3(2);
 2/9=110,12=1,15=1/2;
 99//99;
 2/9=110,12=1,15=1/2;
 3/5=30,11=9,25=1,30=1,41=10030000,43=2,71=1/1;
 4/16=2,20=11,22=1001,24=3,119=11/2;
 7/30=1,44=-1/16;
 1/6=300,10=10,18=4000020,19=15,64=203/3(-4);
 2/9=110,12=1,15=1/2;
 99/9=10/99;
 Leave Link    1 at Wed Nov 29 12:05:11 2023, MaxMem=   134217728 cpu:               0.0 elap:               0.0
 (Enter /home/emanuele/chem_software/gaussian//gdv/l101.exe)
 -----
 Title
 -----
 Symbolic Z-matrix:
 Charge =  0 Multiplicity = 1
 C-C-+0.299289        -0.49745   0.09006  -0.15952 
 O-OH--0.289770       -1.52541  -0.57985   0.46568 
 C-CT--0.035454        0.76409  -0.7462   -0.04756 
 H-HC-+0.090426        0.45596  -1.66579   0.51716 
 H-HC-+0.095387        0.78314  -1.30047  -1.02088 
 N-N3--0.336253        2.04005  -0.04562   0.1808 
 H-H-+0.142619         2.17487   0.69687  -0.50357 
 H-H-+0.128282         2.06098   0.3858    1.10165 
 O-O2--0.308037       -0.6212    1.2749   -0.35697 
 H-HO-+0.213510       -2.353    -0.03328   0.54817 
 
 ITRead=  3  3  3  3  3  3  3  3  3  3
 MicOpt=  0  0  0  0  0  0  0  0  0  0
 NAtoms=     10 NQM=        0 NQMF=       0 NMMI=      0 NMMIF=      0
                NMic=      10 NMicF=      0.
                    Isotopes and Nuclear Properties:
 (Nuclear quadrupole moments (NQMom) in fm**2, nuclear magnetic moments (NMagM)
  in nuclear magnetons)

  Atom         1           2           3           4           5           6           7           8           9          10
 IAtWgt=          12          16          12           1           1          14           1           1          16           1
 AtmWgt=  12.0000000  15.9949146  12.0000000   1.0078250   1.0078250  14.0030740   1.0078250   1.0078250  15.9949146   1.0078250
 NucSpn=           0           0           0           1           1           2           1           1           0           1
 AtZEff=  -0.0000000  -0.0000000  -0.0000000  -0.0000000  -0.0000000  -0.0000000  -0.0000000  -0.0000000  -0.0000000  -0.0000000
 NQMom=    0.0000000   0.0000000   0.0000000   0.0000000   0.0000000   2.0440000   0.0000000   0.0000000   0.0000000   0.0000000
 NMagM=    0.0000000   0.0000000   0.0000000   2.7928460   2.7928460   0.4037610   2.7928460   2.7928460   0.0000000   2.7928460
 AtZNuc=   6.0000000   8.0000000   6.0000000   1.0000000   1.0000000   7.0000000   1.0000000   1.0000000   8.0000000   1.0000000
 Generating MM parameters.
 I=    1 IAn=  6 Valence= 5.
          JB=  1 J=    2 IAn=  8 IBT=12 Dist= 1.38D+00
          JB=  2 J=    3 IAn=  6 IBT= 1 Dist= 1.52D+00
          JB=  3 J=    9 IAn=  8 IBT= 2 Dist= 1.21D+00
 I=    2 IAn=  8 Valence= 3.
          JB=  1 J=    1 IAn=  6 IBT=12 Dist= 1.38D+00
          JB=  2 J=   10 IAn=  1 IBT= 1 Dist= 9.95D-01
 Read MM parameter file:
 Include all MM classes

 MM sanity checks:
 All charges sum to:               -0.00000100
 Charges of atoms sum to:          -0.00000100
 WARNING -- The following centers have non-zero partial charges, but zero Vanderwaals
 parameters.  These centers can collapse onto other centers with non-zero charge.
   Center  Layer   Charge
     10 H    R    0.213510
 MMInit generated parameter data with length LenPar=        2069.
 MM Charge=             -0.0000 electrons
 MM Dipole moment (Debye):
    X=             -0.1944    Y=             -1.3874    Z=              0.0197  Tot=              1.4011
 MM Quadrupole moment (Debye-Ang):
   XX=              1.6318   YY=             -0.5537   ZZ=              1.3164
   XY=              0.9356   XZ=             -0.7528   YZ=              1.2727
 MM Traceless Quadrupole moment (Debye-Ang):
   XX=              0.8336   YY=             -1.3519   ZZ=              0.5182
   XY=              0.9356   XZ=             -0.7528   YZ=              1.2727
 MM Octapole moment (Debye-Ang**2):
  XXX=             -9.3286  YYY=             -5.4707  ZZZ=              0.3893  XYY=              4.1888
  XXY=              4.1258  XXZ=              1.5523  XZZ=              2.0721  YZZ=             -0.4745
  YYZ=              0.4090  XYZ=             -0.5921
 MM Hexadecapole moment (Debye-Ang**3):
 XXXX=             22.3707 YYYY=              0.7112 ZZZZ=              1.4826 XXXY=              5.3357
 XXXZ=             -5.4068 YYYX=              0.4171 YYYZ=              1.1300 ZZZX=              0.9118
 ZZZY=              0.9523 XXYY=              0.6118 XXZZ=              5.0352 YYZZ=              0.9179
 XXYZ=              1.3481 YYXZ=             -0.6906 ZZXY=              0.1933
 Leave Link  101 at Wed Nov 29 12:05:11 2023, MaxMem=   134217728 cpu:               0.3 elap:               0.3
 (Enter /home/emanuele/chem_software/gaussian//gdv/l103.exe)

 GradGradGradGradGradGradGradGradGradGradGradGradGradGradGradGradGradGrad
 Berny optimization.
 Initialization pass.
 No Z-matrix variables, so optimization will use Cartesian coordinates.
 Trust Radius=1.00D-01 FncErr=1.00D-07 GrdErr=1.00D-07 EigMax=2.50D+02 EigMin=1.00D-04
 Number of steps in this run=      2 maximum allowed number of steps=      2.
 GradGradGradGradGradGradGradGradGradGradGradGradGradGradGradGradGradGrad

 Leave Link  103 at Wed Nov 29 12:05:11 2023, MaxMem=   134217728 cpu:               0.0 elap:               0.0
 (Enter /home/emanuele/chem_software/gaussian//gdv/l202.exe)
                          Input orientation:                          
 ---------------------------------------------------------------------
 Center     Atomic      Atomic             Coordinates (Angstroms)
 Number     Number       Type             X           Y           Z
 ---------------------------------------------------------------------
      1          6    20001002       -0.497453    0.090060   -0.159523
      2          8    20001022       -1.525412   -0.579850    0.465679
      3          6    20001001        0.764089   -0.746203   -0.047561
      4          1    20001034        0.455962   -1.665786    0.517158
      5          1    20001034        0.783140   -1.300471   -1.020878
      6          7    20001020        2.040051   -0.045619    0.180797
      7          1    20001029        2.174870    0.696870   -0.503566
      8          1    20001029        2.060977    0.385797    1.101649
      9          8    20001025       -0.621198    1.274897   -0.356974
     10          1    20001031       -2.353001   -0.033283    0.548170
 ---------------------------------------------------------------------
                    Distance matrix (angstroms):
                    1          2          3          4          5
     1  C    0.000000
     2  O    1.377083   0.000000
     3  C    1.517682   2.352212   0.000000
     4  H    2.109477   2.260033   1.122267   0.000000
     5  H    2.077361   2.838760   1.120233   1.614328   0.000000
     6  N    2.563816   3.616502   1.473446   2.290724   2.144412
     7  H    2.761864   4.032560   2.068986   3.094942   2.488754
     8  H    2.867678   3.768172   2.069789   2.669587   2.996913
     9  O    1.207534   2.221362   2.469737   3.251461   3.007566
    10  H    1.989749   0.995210   3.252599   3.249046   3.728680
                    6          7          8          9         10
     6  N    0.000000
     7  H    1.018734   0.000000
     8  H    1.017117   1.639040   0.000000
     9  O    3.019140   2.858951   3.179960   0.000000
    10  H    4.408403   4.705410   4.468240   2.351545   0.000000
 Symmetry turned off by external request.
 Stoichiometry    C2H5NO2
 Framework group  C1[X(C2H5NO2)]
 Deg. of freedom    24
 Full point group                 C1      NOp   1
 Rotational constants (GHZ):           9.7020257           3.7837802           2.9075940
 Leave Link  202 at Wed Nov 29 12:05:11 2023, MaxMem=   134217728 cpu:               0.0 elap:               0.0
 (Enter /home/emanuele/chem_software/gaussian//gdv/l301.exe)
 Standard basis: Dummy (5D, 7F)
    10 basis functions,    10 primitive gaussians,    10 cartesian basis functions
     7 alpha electrons        7 beta electrons
       nuclear repulsion energy        22.5608882415 Hartrees.
 IExCor=       0 DFT=F Ex=HF Corr=None N6=None ScaHFX=  1.000000
 ScaDFX=  1.000000  1.000000  1.000000  1.000000  1.000000  0.000000
 ScaDFX=  0.000000  0.000000  0.000000  0.000000  0.000000  0.000000
 IRadAn=      5 IRanWt=     -1 IRanGd=            0 ICorTp=0 IEmpDi=  4
 NAtoms=   10 NActive=   10 NUniq=   10 SFac= 1.00D+00 NAtFMM=   60 NAOKFM=F Big=F
 Integral buffers will be    131072 words long.
 Raffenetti 1 integral format.
 Two-electron integral symmetry is turned off.
 Leave Link  301 at Wed Nov 29 12:05:11 2023, MaxMem=   134217728 cpu:               0.0 elap:               0.0
 (Enter /home/emanuele/chem_software/gaussian//gdv/l402.exe)
 AMBER calculation of energy and first derivatives.
 NRF= 0 NRA=   0 NVA=  10 HaveQM=F NVQ=       0
 Convergence limit is  0.750E-04 MaxStp= 10000 StMxLn= 3.00D-04 StpMin= 1.00D-06.
 Convergence criteria             0.00011250 0.00007500 0.00045000 0.00030000
  Step  NS  ND Rises OKQ   Scale  Max. Force  RMS Force Max. Disp.  RMS Disp.     Energy   Flag
     1   0   0   F    T  1.00D+00 0.04278468 0.01684472 0.04278468 0.01684472    0.0818037 ----
     2   0   0   F    F  7.08D-01 0.04278468 0.01684472 0.03029979 0.01192931    0.0757822 ----
     3   0   0   F    T  2.27D+00 0.02433830 0.01068821 0.05786460 0.02877403    0.0745320 ----
     4   0   0   F    F  2.34D-02 0.02433830 0.01068821 0.00135686 0.00067472    0.0705256 ----
     5   0   0   F    T  1.07D+00 0.04499792 0.01454154 0.06538385 0.02944875    0.0705235 ----
     6   0   0   F    F  3.27D-01 0.04499792 0.01454154 0.02136642 0.00962339    0.0662693 ----
     7   0   0   F    T  2.93D+00 0.02000539 0.00896580 0.07975333 0.03907213    0.0659918 ----
     8   0   0   F    F -3.55D-01 0.02000539 0.00896580 0.02829984 0.01386444    0.0643993 ----
     9   0   0   F    T  2.09D+00 0.01914222 0.00758424 0.05251579 0.02520770    0.0637164 ----
    10   0   0   F    F  8.34D-01 0.01914222 0.00758424 0.04377735 0.02101323    0.0610563 ----
    11   0   0   F    F -1.76D-02 0.01914222 0.00758424 0.00076934 0.00036929    0.0603561 ----
    12   0   0   F    T  2.86D+00 0.02066663 0.00821422 0.10917690 0.04585164    0.0603559 ----
    13   0   0   T    F  4.15D-01 0.02066663 0.00821422 0.04533857 0.01904109    0.0616928 ----
    14   0   0   F    T  1.70D+00 0.01817423 0.00658585 0.04508144 0.01904109    0.0591413 ----
    15   0   0   F    F -8.97D-02 0.01817423 0.00658585 0.00404396 0.00170805    0.0581320 ----
    16   0   0   F    T  1.92D+00 0.01241746 0.00549586 0.03897903 0.01733304    0.0581219 ----
    17   0   0   F    F  1.18D+00 0.01241746 0.00549586 0.04580260 0.02036732    0.0567682 ----
    18   0   0   F    F -1.89D-02 0.01241746 0.00549586 0.00086758 0.00038579    0.0562081 ----
    19   0   0   F    T  5.08D+00 0.01160709 0.00482165 0.08280865 0.03731458    0.0562079 ----
    20   0   0   F    F -4.19D-01 0.01160709 0.00482165 0.03471113 0.01564125    0.0557078 ----
    21   0   0   F    T  2.45D+00 0.01336466 0.00486898 0.04515086 0.02167332    0.0551859 ----
    22   0   0   F    F -3.43D-01 0.01336466 0.00486898 0.01547503 0.00742833    0.0547683 ----
    23   0   0   F    T  1.85D+00 0.01207145 0.00416417 0.03011651 0.01424500    0.0546111 ----
    24   0   0   F    F -3.29D-01 0.01207145 0.00416417 0.00991548 0.00468998    0.0543662 ----
    25   0   0   F    T  2.13D+00 0.00668228 0.00282345 0.01785066 0.00955501    0.0542878 ----
    26   0   0   F    F  2.83D-01 0.00668228 0.00282345 0.00504457 0.00270023    0.0539783 ----
    27   0   0   F    T  3.33D+00 0.00487017 0.00226814 0.02821939 0.01225524    0.0539625 ----
    28   0   0   F    F -1.42D-01 0.00487017 0.00226814 0.00399725 0.00173594    0.0537475 ----
    29   0   0   F    T  6.93D+00 0.00292814 0.00117500 0.03157371 0.01051930    0.0537414 ----
    30   0   0   F    F -4.80D-01 0.00292814 0.00117500 0.01516119 0.00505120    0.0537302 ----
    31   0   0   F    T  1.69D+00 0.00561201 0.00160053 0.01627000 0.00546810    0.0536669 ----
    32   0   0   F    F -2.36D-01 0.00561201 0.00160053 0.00383896 0.00129022    0.0536221 ----
    33   0   0   F    T  2.10D+00 0.00341198 0.00113612 0.01109982 0.00417788    0.0536174 ----
    34   0   0   F    F -3.53D-01 0.00341198 0.00113612 0.00391657 0.00147417    0.0535989 ----
    35   0   0   F    T  2.68D+00 0.00147549 0.00069038 0.00613333 0.00270372    0.0535910 ----
    36   0   0   F    F  8.47D-01 0.00147549 0.00069038 0.00519438 0.00228980    0.0535631 ----
    37   0   0   F    T  3.32D+00 0.00157874 0.00077897 0.00983217 0.00499352    0.0535557 ----
    38   0   0   F    F -3.77D-01 0.00157874 0.00077897 0.00370565 0.00188201    0.0535437 ----
    39   0   0   F    T  3.45D+00 0.00092453 0.00053956 0.00667705 0.00311151    0.0535368 ----
    40   0   0   F    F  6.16D-01 0.00092453 0.00053956 0.00411111 0.00191578    0.0535160 ----
    41   0   0   F    T  1.11D+00 0.00394399 0.00118742 0.01096391 0.00502729    0.0535125 ----
    42   0   0   F    F  6.22D-01 0.00394399 0.00118742 0.00682278 0.00312846    0.0534801 ----
    43   0   0   F    T  2.15D+00 0.00233276 0.00105663 0.01872786 0.00815575    0.0534746 ----
    44   0   0   F    F -1.23D-01 0.00233276 0.00105663 0.00229983 0.00100155    0.0534434 ----
    45   0   0   F    T  2.51D+00 0.00189918 0.00089594 0.01673101 0.00715420    0.0534428 ----
    46   0   0   F    F  2.04D+00 0.00189918 0.00089594 0.03419371 0.01462128    0.0533922 ----
    47   0   0   F    T  2.51D+00 0.00432179 0.00156210 0.05328975 0.02177548    0.0533504 ----
    48   0   0   F    F  8.03D-02 0.00432179 0.00156210 0.00427852 0.00174831    0.0532525 ----
    49   0   0   F    T  3.16D+00 0.00359805 0.00145044 0.06029278 0.02352379    0.0532520 ----
    50   0   0   F    F -3.91D-01 0.00359805 0.00145044 0.02357462 0.00919786    0.0532155 ----
    51   0   0   F    T  1.08D+00 0.00596303 0.00189374 0.03896705 0.01432593    0.0531922 ----
    52   0   0   F    F  1.60D+00 0.00596303 0.00189374 0.06223039 0.02287852    0.0530973 ----
    53   0   0   F    F -1.84D-02 0.00596303 0.00189374 0.00114571 0.00042121    0.0530387 ----
    54   0   0   F    T  2.76D+00 0.00512603 0.00175273 0.10369713 0.03678324    0.0530387 ----
    55   0   0   F    F  8.93D-02 0.00512603 0.00175273 0.00925703 0.00328364    0.0528958 ----
    56   0   0   F    T  3.23D+00 0.00375759 0.00186726 0.11691447 0.04006688    0.0528948 ----
    57   0   0   F    F  7.06D-01 0.00375759 0.00186726 0.08256396 0.02829487    0.0526352 ----
    58   0   0   F    F -7.46D-02 0.00375759 0.00186726 0.00615659 0.00210988    0.0525770 ----
    59   0   0   F    T  2.29D+00 0.00716878 0.00317411 0.18926319 0.06625187    0.0525766 ----
    60   0   0   F    F -6.46D-02 0.00716878 0.00317411 0.01222882 0.00428072    0.0522310 ----
    61   0   0   F    F -3.58D-02 0.00716878 0.00317411 0.00043793 0.00015330    0.0522291 --++
    62   0   0   F    T  2.96D+00 0.01032411 0.00353610 0.17579285 0.06212445    0.0522291 ----
    63   0   0   F    F -1.30D-01 0.01032411 0.00353610 0.02281209 0.00806170    0.0517388 ----
    64   0   0   F    F -2.00D-02 0.01032411 0.00353610 0.00045705 0.00016152    0.0517269 ---+
    65   0   0   F    T  1.52D+00 0.01462715 0.00484285 0.14351632 0.05422427    0.0517269 ----
    66   0   0   F    F  4.08D-01 0.01462715 0.00484285 0.05854530 0.02211997    0.0510939 ----
    67   0   0   F    F -9.07D-02 0.01462715 0.00484285 0.00530970 0.00200614    0.0510487 ----
    68   0   0   F    T  3.22D+00 0.00860986 0.00376367 0.20541306 0.07433809    0.0510482 ----
    69   0   0   T    F  4.74D-01 0.00860986 0.00376367 0.09728315 0.03520635    0.0511924 ----
    70   0   0   F    T  2.19D+00 0.00775678 0.00314740 0.08731917 0.03520635    0.0507148 ----
    71   0   0   F    F  9.07D-02 0.00775678 0.00314740 0.00791907 0.00319290    0.0503744 ----
    72   0   0   F    T  1.88D+00 0.00841938 0.00353758 0.09980258 0.03839925    0.0503722 ----
    73   0   0   F    F -7.44D-02 0.00841938 0.00353758 0.00742041 0.00285502    0.0500362 ----
    74   0   0   F    T  3.62D+00 0.00651272 0.00243259 0.08029437 0.03554423    0.0500339 ----
    75   0   0   T    F  3.96D-01 0.00651272 0.00243259 0.03180786 0.01408052    0.0501783 ----
    76   0   0   F    T  2.28D+00 0.00445009 0.00185040 0.03323893 0.01408052    0.0499084 ----
    77   0   0   F    F  6.74D-02 0.00445009 0.00185040 0.00224144 0.00094951    0.0497831 ----
    78   0   0   F    T  1.79D+00 0.00462559 0.00209087 0.04002124 0.01503003    0.0497825 ----
    79   0   0   F    F  2.70D-01 0.00462559 0.00209087 0.01081261 0.00406069    0.0496435 ----
    80   0   0   F    T  3.02D+00 0.00447359 0.00173131 0.05595254 0.01909071    0.0496372 ----
    81   0   0   T    F  4.65D-01 0.00447359 0.00173131 0.02601933 0.00887766    0.0496618 ----
    82   0   0   F    T  2.03D+00 0.00321044 0.00141147 0.02679757 0.00887766    0.0495733 ----
    83   0   0   F    F  5.00D-01 0.00321044 0.00141147 0.01340504 0.00444090    0.0494935 ----
    84   0   0   F    T  1.92D+00 0.00535116 0.00176440 0.03855036 0.01331856    0.0494837 ----
    85   0   0   F    F  3.14D-02 0.00535116 0.00176440 0.00121217 0.00041879    0.0493900 ----
    86   0   0   F    T  2.22D+00 0.00411780 0.00163039 0.03620312 0.01373735    0.0493899 ----
    87   0   0   F    F -2.39D-01 0.00411780 0.00163039 0.00865151 0.00328283    0.0493299 ----
    88   0   0   F    T  2.14D+00 0.00334262 0.00139203 0.02224590 0.01045452    0.0493237 ----
    89   0   0   F    F  4.56D-01 0.00334262 0.00139203 0.01014697 0.00476860    0.0492411 ----
    90   0   0   F    T  1.79D+00 0.00523492 0.00180383 0.03612595 0.01522311    0.0492319 ----
    91   0   0   F    F  8.77D-02 0.00523492 0.00180383 0.00316799 0.00133496    0.0491390 ----
    92   0   0   F    T  3.06D+00 0.00266176 0.00140222 0.03316904 0.01655808    0.0491384 ----
    93   0   0   T    F  4.65D-01 0.00266176 0.00140222 0.01542729 0.00770135    0.0491531 ----
    94   0   0   F    T  2.26D+00 0.00213279 0.00108864 0.01754838 0.00770135    0.0490962 ----
    95   0   0   F    F  1.22D-01 0.00213279 0.00108864 0.00214785 0.00094261    0.0490518 ----
    96   0   0   F    T  2.05D+00 0.00307322 0.00118544 0.02155039 0.00864396    0.0490513 ----
    97   0   0   F    F -7.83D-02 0.00307322 0.00118544 0.00168697 0.00067665    0.0490120 ----
    98   0   0   F    T  2.55D+00 0.00339195 0.00097974 0.02173473 0.00796731    0.0490117 ----
    99   0   0   F    F -3.75D-01 0.00339195 0.00097974 0.00814927 0.00298728    0.0489970 ----
   100   0   0   F    T  1.79D+00 0.00181982 0.00089305 0.01473628 0.00498002    0.0489888 ----
   101   0   0   F    F  1.23D+00 0.00181982 0.00089305 0.01817702 0.00614280    0.0489554 ----
   102   0   0   F    T  1.92D+00 0.00380596 0.00126997 0.03455514 0.01112282    0.0489407 ----
   103   0   0   F    F -2.69D-02 0.00380596 0.00126997 0.00092976 0.00029928    0.0488955 ---+
   104   0   0   F    T  1.77D+00 0.00361185 0.00130925 0.03561304 0.01082355    0.0488955 ----
   105   0   0   F    F  1.37D+00 0.00361185 0.00130925 0.04881695 0.01483649    0.0488234 ----
   106   0   0   F    F -4.54D-02 0.00361185 0.00130925 0.00221665 0.00067368    0.0487881 ----
   107   0   0   F    T  1.16D+00 0.00583839 0.00248087 0.08354782 0.02498635    0.0487880 ----
   108   0   0   F    F  7.54D-01 0.00583839 0.00248087 0.06298680 0.01883724    0.0486176 ----
   109   0   0   F    F -9.74D-02 0.00583839 0.00248087 0.00613530 0.00183486    0.0485751 ----
   110   0   0   F    T  2.55D+00 0.00854406 0.00289803 0.14255224 0.04198873    0.0485745 ----
   111   0   0   F    F  5.87D-01 0.00854406 0.00289803 0.08363154 0.02463365    0.0481334 ----
   112   0   0   F    F -2.64D-01 0.00854406 0.00289803 0.02209559 0.00650825    0.0480868 ----
   113   0   0   F    T  2.22D+00 0.00905504 0.00443426 0.20260998 0.06011412    0.0480786 ----
   114   0   0   F    F -1.29D-01 0.00905504 0.00443426 0.02609948 0.00774368    0.0474444 ----
   115   0   0   F    F -5.15D-02 0.00905504 0.00443426 0.00134354 0.00039863    0.0474267 ----
   116   0   0   F    T  2.10D+00 0.01554456 0.00531551 0.17138815 0.05276907    0.0474266 ----
   117   0   0   F    F  4.39D-02 0.01554456 0.00531551 0.00751962 0.00231523    0.0464777 ----
   118   0   0   F    F -7.52D-02 0.01554456 0.00531551 0.00056535 0.00017407    0.0464761 ---+
   119   0   0   F    T  1.62D+00 0.01636289 0.00682640 0.16929649 0.05491023    0.0464761 ----
   120   0   0   F    F  2.29D-01 0.01636289 0.00682640 0.03871080 0.01255560    0.0450520 ----
   121   0   0   F    F -8.58D-02 0.01636289 0.00682640 0.00332038 0.00107694    0.0450001 ----
   122   0   0   F    T  2.63D+00 0.01733402 0.00690244 0.19854992 0.06638889    0.0449996 ----
   123   0   0   F    F  7.56D-02 0.01733402 0.00690244 0.01501289 0.00501984    0.0429719 ----
   124   0   0   F    F -7.74D-02 0.01733402 0.00690244 0.00116232 0.00038864    0.0429625 ----
   125   0   0   F    T  1.94D+00 0.02402382 0.00877898 0.22871621 0.07102009    0.0429624 ----
   126   0   0   F    F -1.84D-01 0.02402382 0.00877898 0.04219785 0.01310311    0.0412025 ----
   127   0   0   F    F -2.70D-02 0.02402382 0.00877898 0.00114085 0.00035425    0.0411074 ----
   128   0   0   F    T  2.06D+00 0.01836975 0.00782034 0.19888042 0.05827122    0.0411074 ----
   129   0   0   F    F  1.25D-01 0.01836975 0.00782034 0.02489984 0.00729556    0.0390971 ----
   130   0   0   F    F -5.37D-02 0.01836975 0.00782034 0.00133589 0.00039141    0.0390752 ----
   131   0   0   F    T  2.75D+00 0.01530124 0.00657917 0.23031300 0.06517537    0.0390751 ----
   132   0   0   F    F -4.41D-01 0.01530124 0.00657917 0.10146532 0.02871327    0.0386847 ----
   133   0   0   F    T  2.03D+00 0.01367054 0.00514306 0.12837182 0.03646210    0.0380887 ----
   134   0   0   F    F -8.02D-02 0.01367054 0.00514306 0.01028983 0.00292267    0.0373688 ----
   135   0   0   F    T  3.38D+00 0.00904462 0.00329668 0.10985593 0.03353943    0.0373636 ----
   136   0   0   T    F  4.55D-01 0.00904462 0.00329668 0.04998934 0.01526193    0.0374518 ----
   137   0   0   F    T  2.55D+00 0.00572639 0.00225439 0.04704846 0.01526193    0.0371164 ----
   138   0   0   F    F -2.35D-01 0.00572639 0.00225439 0.01106778 0.00359025    0.0369821 ----
   139   0   0   F    T  2.21D+00 0.00511018 0.00198600 0.03209561 0.01167168    0.0369682 ----
   140   0   0   F    F -3.07D-01 0.00511018 0.00198600 0.00986779 0.00358846    0.0368956 ----
   141   0   0   F    T  2.49D+00 0.00288824 0.00146275 0.01564462 0.00808322    0.0368777 ----
   142   0   0   F    F -1.05D-01 0.00288824 0.00146275 0.00165048 0.00085277    0.0368071 ----
   143   0   0   F    T  3.16D+00 0.00311289 0.00114307 0.01481762 0.00723046    0.0368062 ----
   144   0   0   T    F  4.15D-01 0.00311289 0.00114307 0.00615315 0.00300251    0.0368317 ----
   145   0   0   F    T  2.07D+00 0.00196369 0.00082684 0.00687800 0.00300251    0.0367804 ----
   146   0   0   F    F -1.68D-01 0.00196369 0.00082684 0.00115450 0.00050398    0.0367635 ----
   147   0   0   F    T  2.34D+00 0.00125098 0.00063700 0.00587089 0.00249853    0.0367628 ----
   148   0   0   F    F -2.16D-01 0.00125098 0.00063700 0.00126984 0.00054042    0.0367525 ----
   149   0   0   F    T  2.11D+00 0.00107324 0.00053589 0.00480456 0.00195811    0.0367516 ----
   150   0   0   F    F  9.44D-02 0.00107324 0.00053589 0.00045360 0.00018487    0.0367417 ---+
   151   0   0   F    T  1.64D+00 0.00192643 0.00059964 0.00521384 0.00214298    0.0367417 ----
   152   0   0   F    F  2.23D-01 0.00192643 0.00059964 0.00116119 0.00047727    0.0367312 ----
   153   0   0   F    T  1.55D+00 0.00159749 0.00065553 0.00574921 0.00262025    0.0367309 ----
   154   0   0   F    F  1.09D+00 0.00159749 0.00065553 0.00628898 0.00286625    0.0367157 ----
   155   0   0   F    T  2.23D+00 0.00196541 0.00076969 0.01255281 0.00548651    0.0367100 ----
   156   0   0   F    F  9.04D-02 0.00196541 0.00076969 0.00113431 0.00049578    0.0366884 ----
   157   0   0   F    T  1.58D+00 0.00284195 0.00093997 0.01328943 0.00598228    0.0366883 ----
   158   0   0   F    F  2.34D-01 0.00284195 0.00093997 0.00311134 0.00140058    0.0366634 ----
   159   0   0   F    T  2.31D+00 0.00252203 0.00085631 0.01813844 0.00738286    0.0366625 ----
   160   0   0   F    F -7.04D-02 0.00252203 0.00085631 0.00127710 0.00051982    0.0366390 ----
   161   0   0   F    T  2.45D+00 0.00178975 0.00078446 0.01624060 0.00686304    0.0366388 ----
   162   0   0   F    F -2.13D-01 0.00178975 0.00078446 0.00345333 0.00145933    0.0366224 ----
   163   0   0   F    T  2.06D+00 0.00170821 0.00073736 0.01412859 0.00540372    0.0366211 ----
   164   0   0   F    F  5.99D-02 0.00170821 0.00073736 0.00084682 0.00032388    0.0366033 ----
   165   0   0   F    T  1.69D+00 0.00209708 0.00082482 0.01438116 0.00572760    0.0366032 ----
   166   0   0   F    F  2.83D-01 0.00209708 0.00082482 0.00407606 0.00162338    0.0365823 ----
   167   0   0   F    T  2.10D+00 0.00208088 0.00082497 0.01911292 0.00735097    0.0365812 ----
   168   0   0   F    F  6.77D-01 0.00208088 0.00082497 0.01293254 0.00497395    0.0365511 ----
   169   0   0   F    T  2.17D+00 0.00335646 0.00104192 0.03356059 0.01232492    0.0365452 ----
   170   0   0   F    F -2.61D-01 0.00335646 0.00104192 0.00876627 0.00321936    0.0365224 ----
   171   0   0   F    T  1.86D+00 0.00254196 0.00095164 0.02520098 0.00910557    0.0365192 ----
   172   0   0   F    F  1.75D-01 0.00254196 0.00095164 0.00439813 0.00158912    0.0364900 ----
   173   0   0   F    T  2.74D+00 0.00195585 0.00084009 0.02792585 0.01069469    0.0364894 ----
   174   0   0   F    F -1.65D-01 0.00195585 0.00084009 0.00459881 0.00176120    0.0364660 ----
   175   0   0   F    T  2.00D+00 0.00223003 0.00090112 0.02290446 0.00893349    0.0364650 ----
   176   0   0   F    F  1.44D-02 0.00223003 0.00090112 0.00032880 0.00012824    0.0364403 --++
   177   0   0   F    T  2.45D+00 0.00312980 0.00081799 0.02155733 0.00906173    0.0364403 ----
   178   0   0   F    F -3.80D-01 0.00312980 0.00081799 0.00818693 0.00344142    0.0364307 ----
   179   0   0   F    T  2.14D+00 0.00175823 0.00067638 0.01578469 0.00562032    0.0364251 ----
   180   0   0   F    F  1.26D-01 0.00175823 0.00067638 0.00199086 0.00070887    0.0364087 ----
   181   0   0   F    T  3.27D+00 0.00134282 0.00056381 0.01583346 0.00632918    0.0364085 ----
   182   0   0   F    F -4.96D-01 0.00134282 0.00056381 0.00784644 0.00313650    0.0364081 ----
   183   0   0   F    T  1.81D+00 0.00115518 0.00052461 0.00933457 0.00319269    0.0364006 ----
   184   0   0   F    F  8.06D-02 0.00115518 0.00052461 0.00075250 0.00025738    0.0363925 ---+
   185   0   0   F    T  2.56D+00 0.00096160 0.00044616 0.00787909 0.00345006    0.0363925 ----
   186   0   0   F    F -2.48D-01 0.00096160 0.00044616 0.00195574 0.00085637    0.0363874 ----
   187   0   0   F    T  2.11D+00 0.00114991 0.00041429 0.00604703 0.00259369    0.0363868 ----
   188   0   0   F    F  1.00D-01 0.00114991 0.00041429 0.00060587 0.00025987    0.0363808 ---+
   189   0   0   F    T  2.34D+00 0.00110655 0.00040105 0.00506248 0.00285357    0.0363808 ----
   190   0   0   F    F -3.16D-01 0.00110655 0.00040105 0.00160100 0.00090243    0.0363777 ----
   191   0   0   F    T  1.75D+00 0.00104589 0.00037270 0.00425544 0.00195113    0.0363769 ----
   192   0   0   F    F  4.29D-01 0.00104589 0.00037270 0.00182686 0.00083762    0.0363722 ----
   193   0   0   F    T  3.36D+00 0.00074272 0.00030943 0.00597041 0.00278875    0.0363717 ----
   194   0   0   F    F -4.24D-01 0.00074272 0.00030943 0.00252937 0.00118145    0.0363704 ----
   195   0   0   F    T  1.56D+00 0.00107851 0.00033498 0.00360258 0.00160730    0.0363689 ----
   196   0   0   F    F  2.69D-01 0.00107851 0.00033498 0.00096958 0.00043258    0.0363657 ----
   197   0   0   F    T  2.51D+00 0.00061642 0.00028813 0.00446468 0.00203988    0.0363656 ----
   198   0   0   F    F -1.70D-01 0.00061642 0.00028813 0.00075976 0.00034713    0.0363631 ----
   199   0   0   F    T  1.95D+00 0.00059599 0.00028907 0.00361096 0.00169275    0.0363630 ----
   200   0   0   F    F  9.97D-02 0.00059599 0.00028907 0.00036000 0.00016876    0.0363603 --++
   201   0   0   F    T  2.39D+00 0.00081845 0.00026559 0.00378205 0.00186151    0.0363603 ----
   202   0   0   F    F -1.93D-01 0.00081845 0.00026559 0.00072920 0.00035891    0.0363584 ----
   203   0   0   F    T  1.69D+00 0.00057750 0.00027645 0.00311170 0.00150260    0.0363583 ----
   204   0   0   F    T  3.87D+00 0.00047265 0.00018515 0.00342556 0.00150260    0.0363562 ----
   205   0   0   F    F -1.36D-01 0.00047265 0.00018515 0.00046515 0.00020403    0.0363544 ---+
   206   0   0   F    T  1.39D+00 0.00068628 0.00027470 0.00313227 0.00129857    0.0363544 ----
   207   0   0   F    F  1.84D-01 0.00068628 0.00027470 0.00057531 0.00023851    0.0363525 ---+
   208   0   0   F    T  2.44D+00 0.00065525 0.00022894 0.00411387 0.00153708    0.0363525 ----
   209   0   0   F    F -8.37D-02 0.00065525 0.00022894 0.00034421 0.00012861    0.0363508 --++
   210   0   0   F    T  2.10D+00 0.00054686 0.00022905 0.00422910 0.00140847    0.0363507 ----
   211   0   0   F    F  3.96D-01 0.00054686 0.00022905 0.00167395 0.00055749    0.0363486 ----
   212   0   0   F    T  2.14D+00 0.00059626 0.00026267 0.00645409 0.00196596    0.0363484 ----
   213   0   0   F    F -9.97D-02 0.00059626 0.00026267 0.00064317 0.00019591    0.0363465 ---+
   214   0   0   F    T  2.00D+00 0.00071606 0.00025334 0.00596895 0.00177005    0.0363464 ----
   215   0   0   F    F -2.88D-01 0.00071606 0.00025334 0.00171835 0.00050956    0.0363453 ----
   216   0   0   F    T  2.47D+00 0.00044670 0.00018532 0.00416955 0.00126048    0.0363451 ----
   217   0   0   F    F  2.79D-01 0.00044670 0.00018532 0.00116308 0.00035161    0.0363435 ----
   218   0   0   F    T  3.26D+00 0.00047274 0.00017647 0.00543074 0.00161209    0.0363434 ----
   219   0   0   T    F  4.11D-01 0.00047274 0.00017647 0.00223093 0.00066224    0.0363441 ----
   220   0   0   F    T  3.26D+00 0.00025082 0.00010448 0.00187950 0.00066224    0.0363428 ----
   221   0   0   T    F  3.95D-01 0.00025082 0.00010448 0.00074185 0.00026139    0.0363431 ---+
   222   0   0   F    T  1.87D+00 0.00018867 0.00007860 0.00054063 0.00026139    0.0363426 ---+
   223   0   0   F    T  2.92D+00 0.00012241 0.00005625 0.00059203 0.00026139    0.0363424 -+-+
   224   0   0   F    T  1.72D+00 0.00017270 0.00006375 0.00060598 0.00026139    0.0363423 -+-+
   225   0   0   T    T  1.00D+00 0.00019056 0.00007632 0.00019056 0.00007632    0.0363424 --++
   226   0   0   T    T  1.00D+00 0.00034589 0.00010857 0.00030311 0.00009986    0.0363424 --++
   227   0   0   T    T  1.00D+00 0.00040947 0.00012743 0.00043329 0.00013330    0.0363424 --++
   228   0   0   T    F  5.00D-01 0.00040947 0.00012743 0.00021665 0.00006665    0.0363429 --++
   229   0   0   T    F  5.00D-01 0.00040947 0.00012743 0.00010832 0.00003333    0.0363425 --++
   230   0   0   T    F  5.00D-01 0.00040947 0.00012743 0.00005416 0.00001666    0.0363424 --++
   231   0   0   T    F  5.00D-01 0.00040947 0.00012743 0.00002708 0.00000833    0.0363424 --++
   232   0   0   T    F  5.00D-01 0.00040947 0.00012743 0.00001354 0.00000417    0.0363423 --++
   233   0   0   T    F  5.00D-01 0.00040947 0.00012743 0.00000677 0.00000208    0.0363423 --++
   234   0   0   T    F  5.00D-01 0.00040947 0.00012743 0.00000339 0.00000104    0.0363423 --++
   235   0   0   T    F  5.00D-01 0.00040947 0.00012743 0.00000169 0.00000052    0.0363423 --++
   236   0   0   T    F  5.00D-01 0.00040947 0.00012743 0.00000085 0.00000026    0.0363423 --++
   237   0   0   T    T  1.00D+00 0.00017431 0.00006405 0.00010907 0.00005607    0.0363423 -+++
   238   0   0   F    T  1.78D+00 0.00009370 0.00003335 0.00014346 0.00005607    0.0363423 ====
 ****************************
 MOLECULAR MECHANICS FUNCTION
 ****************************
 Atomic parameters:
 Center  VDW
      1 1.9080 0.0860000
      2 1.7210 0.2104000
      3 1.9080 0.1094000
      4 1.4870 0.0157000
      5 1.4870 0.0157000
      6 1.8750 0.1700000
      7 0.6000 0.0157000
      8 0.6000 0.0157000
      9 1.6612 0.2100000
     10 0.0000 0.0000000
 Molecular mechanics terms:
 NBDir 3 1      0      0
 HrmStr1  1- 2  431.53 1.3510
 HrmStr1  1- 3  294.15 1.5090
 HrmStr1  1- 9  946.08 1.2030
 HrmStr1  2-10  566.76 0.9680
 HrmStr1  3- 4  358.05 1.0960
 HrmStr1  3- 5  358.05 1.0960
 HrmStr1  3- 6  380.82 1.4520
 HrmStr1  6- 7  506.01 1.0110
 HrmStr1  6- 8  506.01 1.0110
 HrmBnd1  1- 2-10  56.55 107.23
 HrmBnd1  1- 3- 4  46.41 106.89
 HrmBnd1  1- 3- 5  46.41 106.89
 HrmBnd1  1- 3- 6  59.93 110.61
 HrmBnd1  2- 1- 3  67.92 111.72
 HrmBnd1  2- 1- 9  91.40 123.02
 HrmBnd1  3- 1- 9  62.83 125.24
 HrmBnd1  3- 6- 7  52.60 110.71
 HrmBnd1  3- 6- 8  52.60 110.71
 HrmBnd1  4- 3- 5  44.68 106.22
 HrmBnd1  4- 3- 6  52.45 112.94
 HrmBnd1  5- 3- 6  52.45 112.94
 HrmBnd1  7- 6- 8  47.09 108.63
 AmbTrs  3- 1- 2-10   0 180   0   0  0.0000 14.5000  0.0000  0.0000  2.0
 AmbTrs  9- 1- 2-10   0   0   0   0  0.0000 14.5000  0.0000  0.0000  2.0
 AmbTrs  2- 1- 3- 4   0   0   0   0  0.0000 14.5000  0.0000  0.0000  6.0
 AmbTrs  2- 1- 3- 5   0   0   0   0  0.0000 14.5000  0.0000  0.0000  6.0
 AmbTrs  2- 1- 3- 6   0   0   0   0  0.0000 14.5000  0.0000  0.0000  6.0
 AmbTrs  9- 1- 3- 4   0   0   0   0  0.0000 14.5000  0.0000  0.0000  6.0
 AmbTrs  9- 1- 3- 5   0   0   0   0  0.0000 14.5000  0.0000  0.0000  6.0
 AmbTrs  9- 1- 3- 6   0   0   0   0  0.0000 14.5000  0.0000  0.0000  6.0
 AmbTrs  1- 3- 6- 7   0 180   0   0  0.0000 25.6300  0.0000  0.0000  6.0
 AmbTrs  1- 3- 6- 8   0 180   0   0  0.0000 25.6300  0.0000  0.0000  6.0
 AmbTrs  4- 3- 6- 7   0   0   0   0  0.0000  0.0000  0.0000  0.0000  6.0
 AmbTrs  4- 3- 6- 8   0   0   0   0  0.0000  0.0000  0.0000  0.0000  6.0
 AmbTrs  5- 3- 6- 7   0   0   0   0  0.0000  0.0000  0.0000  0.0000  6.0
 AmbTrs  5- 3- 6- 8   0   0   0   0  0.0000  0.0000  0.0000  0.0000  6.0
 NBPair  2- 1 3 1      0      0 -1.000 -1.000
 NBPair  3- 2 3 1      0      0 -1.000 -1.000
 NBPair 10- 3 3 1      0      0 -0.500 -0.167
 NBPair  9- 2 3 1      0      0 -1.000 -1.000
 NBPair 10- 9 3 1      0      0 -0.500 -0.167
 NBPair  3- 1 3 1      0      0 -1.000 -1.000
 NBPair  4- 2 3 1      0      0 -0.500 -0.167
 NBPair  5- 2 3 1      0      0 -0.500 -0.167
 NBPair  6- 2 3 1      0      0 -0.500 -0.167
 NBPair  9- 3 3 1      0      0 -1.000 -1.000
 NBPair  9- 4 3 1      0      0 -0.500 -0.167
 NBPair  9- 5 3 1      0      0 -0.500 -0.167
 NBPair  9- 6 3 1      0      0 -0.500 -0.167
 NBPair  9- 1 3 1      0      0 -1.000 -1.000
 NBPair 10- 1 3 1      0      0 -1.000 -1.000
 NBPair 10- 2 3 1      0      0 -1.000 -1.000
 NBPair  4- 1 3 1      0      0 -1.000 -1.000
 NBPair  5- 1 3 1      0      0 -1.000 -1.000
 NBPair  6- 1 3 1      0      0 -1.000 -1.000
 NBPair  4- 3 3 1      0      0 -1.000 -1.000
 NBPair  5- 4 3 1      0      0 -1.000 -1.000
 NBPair  6- 4 3 1      0      0 -1.000 -1.000
 NBPair  5- 3 3 1      0      0 -1.000 -1.000
 NBPair  6- 5 3 1      0      0 -1.000 -1.000
 NBPair  6- 3 3 1      0      0 -1.000 -1.000
 NBPair  7- 1 3 1      0      0 -0.500 -0.167
 NBPair  8- 1 3 1      0      0 -0.500 -0.167
 NBPair  7- 4 3 1      0      0 -0.500 -0.167
 NBPair  8- 4 3 1      0      0 -0.500 -0.167
 NBPair  7- 5 3 1      0      0 -0.500 -0.167
 NBPair  8- 5 3 1      0      0 -0.500 -0.167
 NBPair  7- 3 3 1      0      0 -1.000 -1.000
 NBPair  8- 3 3 1      0      0 -1.000 -1.000
 NBPair  7- 6 3 1      0      0 -1.000 -1.000
 NBPair  8- 7 3 1      0      0 -1.000 -1.000
 NBPair  8- 6 3 1      0      0 -1.000 -1.000
 Energy per function type:
 Direct Coulomb + vdW (small)                           0.002792227
 Direct Coulomb (large)                                -0.129728451
 Direct vdW (large)                                   269.814821939
 Non-direct Coulomb + vdW (small)                      -0.012449143
 Non-direct Coulomb (large)                             0.137798125
 Non-direct vdW (large)                              -269.814821939
 Harmonic stretch I                                     0.000104109
 Harmonic bend I                                        0.004755122
 Amber torsion                                          0.033070282
 Energy per function class:
        Coulomb              -0.002746260
    Vanderwaals               0.001159018
     Stretching               0.000104109
        Bending               0.004755122
        Torsion               0.033070282
 Energy=    3.634227033E-02 NIter=   0.
 Dipole moment=      -0.054063      -0.801979       0.462973
 Leave Link  402 at Wed Nov 29 12:05:11 2023, MaxMem=   134217728 cpu:               0.4 elap:               0.4
 (Enter /home/emanuele/chem_software/gaussian//gdv/l716.exe)
 Dipole        =-5.40629887D-02-8.01979135D-01 4.62973472D-01
 -------------------------------------------------------------------
 Center     Atomic                   Forces (Hartrees/Bohr)
 Number     Number              X              Y              Z
 -------------------------------------------------------------------
      1        6           0.000027502   -0.000029461    0.000052577
      2        8           0.000016800    0.000025219   -0.000039540
      3        6           0.000021981    0.000015233    0.000005668
      4        1          -0.000003215    0.000004831   -0.000005957
      5        1           0.000020203    0.000049565    0.000022550
      6        7           0.000037390    0.000003321   -0.000006352
      7        1           0.000020944   -0.000018794    0.000002298
      8        1          -0.000016106   -0.000047794    0.000023313
      9        8          -0.000093698    0.000005932   -0.000080146
     10        1          -0.000031801   -0.000008052    0.000025589
 -------------------------------------------------------------------
 Cartesian Forces:  Max     0.000093698 RMS     0.000033348
 Z-matrix is all fixed cartesians, so copy forces.
 Leave Link  716 at Wed Nov 29 12:05:11 2023, MaxMem=   134217728 cpu:               0.0 elap:               0.0
 (Enter /home/emanuele/chem_software/gaussian//gdv/l103.exe)

 GradGradGradGradGradGradGradGradGradGradGradGradGradGradGradGradGradGrad
 Berny optimization.
 Search for a local minimum.
 Step number   1 out of a maximum of    2
 All quantities printed in internal units (Hartrees-Bohrs-Radians)
 RMS Force = .33348D-04 SwitMx=.10000D-02 MixMth= 2
 Mixed Optimization -- En-DIIS/RFO-DIIS
 Second derivative matrix not updated -- unit matrix used.
 ITU=  0
 RFO step:  Lambda=-3.33625743D-08 EMin= 1.00000000D+00
 Linear search not attempted -- first point.
 Variable       Old X    -DE/DX   Delta X   Delta X   Delta X     New X
                                 (Linear)    (Quad)   (Total)
    X1       -1.17948   0.00003   0.00000   0.00003   0.00003  -1.17946
    Y1       -0.21718  -0.00003   0.00000  -0.00003  -0.00003  -0.21721
    Z1       -0.77495   0.00005   0.00000   0.00005   0.00005  -0.77490
    X2       -2.17899   0.00002   0.00000   0.00002   0.00002  -2.17897
    Y2        0.39587   0.00003   0.00000   0.00003   0.00003   0.39590
    Z2        1.49109  -0.00004   0.00000  -0.00004  -0.00004   1.49105
    X3        1.36179   0.00002   0.00000   0.00002   0.00002   1.36181
    Y3       -1.48158   0.00002   0.00000   0.00002   0.00002  -1.48156
    Z3       -0.33648   0.00001   0.00000   0.00001   0.00001  -0.33647
    X4        1.00588  -0.00000   0.00000  -0.00000  -0.00000   1.00588
    Y4       -3.11069   0.00000   0.00000   0.00000   0.00000  -3.11069
    Z4        0.89378  -0.00001   0.00000  -0.00001  -0.00001   0.89377
    X5        1.83206   0.00002   0.00000   0.00002   0.00002   1.83208
    Y5       -2.40547   0.00005   0.00000   0.00005   0.00005  -2.40543
    Z5       -2.13049   0.00002   0.00000   0.00002   0.00002  -2.13047
    X6        3.32711   0.00004   0.00000   0.00004   0.00004   3.32715
    Y6        0.22729   0.00000   0.00000   0.00000   0.00000   0.22729
    Z6        0.57784  -0.00001   0.00000  -0.00001  -0.00001   0.57784
    X7        2.66108   0.00002   0.00000   0.00002   0.00002   2.66110
    Y7        1.81902  -0.00002   0.00000  -0.00002  -0.00002   1.81900
    Z7        1.40267   0.00000   0.00000   0.00000   0.00000   1.40267
    X8        4.75199  -0.00002   0.00000  -0.00002  -0.00002   4.75197
    Y8       -0.61990  -0.00005   0.00000  -0.00005  -0.00005  -0.61995
    Z8        1.52822   0.00002   0.00000   0.00002   0.00002   1.52824
    X9       -1.39638  -0.00009   0.00000  -0.00009  -0.00009  -1.39647
    Y9        1.23249   0.00001   0.00000   0.00001   0.00001   1.23249
    Z9       -2.51046  -0.00008   0.00000  -0.00008  -0.00008  -2.51054
   X10       -3.98292  -0.00003   0.00000  -0.00003  -0.00003  -3.98295
   Y10        0.52511  -0.00001   0.00000  -0.00001  -0.00001   0.52510
   Z10        1.22874   0.00003   0.00000   0.00003   0.00003   1.22877
         Item               Value     Threshold  Converged?
 Maximum Force            0.000094     0.000450     YES
 RMS     Force            0.000033     0.000300     YES
 Maximum Displacement     0.000094     0.001800     YES
 RMS     Displacement     0.000033     0.001200     YES
 Predicted change in Energy=-1.668129D-08
 Optimization completed.
    -- Stationary point found.
 Largest change from initial coordinates is atom    7       0.409 Angstoms.
 GradGradGradGradGradGradGradGradGradGradGradGradGradGradGradGradGradGrad

 Leave Link  103 at Wed Nov 29 12:05:12 2023, MaxMem=   134217728 cpu:               0.0 elap:               0.0
 (Enter /home/emanuele/chem_software/gaussian//gdv/l202.exe)
                          Input orientation:                          
 ---------------------------------------------------------------------
 Center     Atomic      Atomic             Coordinates (Angstroms)
 Number     Number       Type             X           Y           Z
 ---------------------------------------------------------------------
      1          6    20001002       -0.624156   -0.114928   -0.410085
      2          8    20001022       -1.153072    0.209487    0.789053
      3          6    20001001        0.720628   -0.784018   -0.178056
      4          1    20001034        0.532288   -1.646107    0.472965
      5          1    20001034        0.969483   -1.272922   -1.127409
      6          7    20001020        1.760632    0.120274    0.305782
      7          1    20001029        1.408181    0.962585    0.742260
      8          1    20001029        2.514643   -0.328038    0.808700
      9          8    20001025       -0.738932    0.652204   -1.328481
     10          1    20001031       -2.107670    0.277875    0.650221
 ---------------------------------------------------------------------
                    Distance matrix (angstroms):
                    1          2          3          4          5
     1  C    0.000000
     2  O    1.350159   0.000000
     3  C    1.519856   2.330902   0.000000
     4  H    2.112261   2.526574   1.096584   0.000000
     5  H    2.096470   3.221118   1.096462   1.700472   0.000000
     6  N    2.500999   2.954857   1.460634   2.157981   2.149640
     7  H    2.572805   2.670087   2.090534   2.764956   2.947137
     8  H    3.373856   3.706946   2.097640   2.404111   2.651197
     9  O    1.202130   2.202603   2.348728   3.184876   2.581709
    10  H    1.865304   0.967062   3.132560   3.271468   3.877346
                    6          7          8          9         10
     6  N    0.000000
     7  H    1.012039   0.000000
     8  H    1.011159   1.701288   0.000000
     9  O    3.033411   2.999066   4.014245   0.000000
    10  H    3.886803   3.583087   4.664550   2.434918   0.000000
 Symmetry turned off by external request.
 Stoichiometry    C2H5NO2
 Framework group  C1[X(C2H5NO2)]
 Deg. of freedom    24
 Full point group                 C1      NOp   1
 Rotational constants (GHZ):           8.6342461           4.1885166           3.4536258
 Leave Link  202 at Wed Nov 29 12:05:12 2023, MaxMem=   134217728 cpu:               0.0 elap:               0.0
 (Enter /home/emanuele/chem_software/gaussian//gdv/l9999.exe)
 Unable to Open any file for archive entry.
 1\1\GINC-EMANUELE-XPS-13-9343\FOpt\AMBER\ZDO\C2H5N1O2\EMANUELE\29-Nov-
 2023\0\\#p Amber=(SoftFirst,Print) geom=nocrowd nosymm opt=(maxcycle=3
 00)\\Title\\0,1\C,-0.6241555941,-0.1149284062,-0.4100846403\O,-1.15307
 20046,0.209487041,0.7890528466\C,0.7206281303,-0.7840177144,-0.1780555
 877\H,0.5322879902,-1.6461065128,0.4729653865\H,0.9694827328,-1.272922
 3651,-1.127409259\N,1.7606319333,0.1202741982,0.3057822099\H,1.4081813
 218,0.9625854128,0.7422597886\H,2.5146426795,-0.3280382097,0.808700014
 5\O,-0.7389319707,0.6522035198,-1.3284807208\H,-2.1076702185,0.2778750
 363,0.6502209617\\Version=ES64L-GDVRevJ.14\HF=0.0363423\RMSD=0.000e+00
 \RMSF=3.335e-05\Dipole=-0.054063,-0.8019791,0.4629735\PG=C01 [X(C2H5N1
 O2)]\\@
 The archive entry for this job was punched.


 Human beings, who are almost unique in having the
 ability to learn from the experience of others, are
 also remarkable for their apparent disinclination to do so.
                               -- Douglas Adams,
                                Last Chance to See
 Job cpu time:       0 days  0 hours  0 minutes  0.9 seconds.
 Elapsed time:       0 days  0 hours  0 minutes  0.9 seconds.
 File lengths (MBytes):  RWF=      6 Int=      0 D2E=      0 Chk=      1 Scr=      1
 Normal termination of Gaussian DV at Wed Nov 29 12:05:12 2023.
