 Entering Gaussian System, Link 0=/home/emanuele/chem_software/gaussian//g09/g09
 Input=0_mm_90.gjf
 Output=0_mm_90.log
 Initial command:
 /home/emanuele/chem_software/gaussian//gdv/l1.exe "/home/emanuele/chem_software/gaussian/scratch/Gau-13812.inp" -scrdir="/home/emanuele/chem_software/gaussian/scratch/"
 Entering Link 1 = /home/emanuele/chem_software/gaussian//gdv/l1.exe PID=     13814.
  
 Copyright (c) 1988-2020, Gaussian, Inc.  All Rights Reserved.
  
 This is the private, development version of
 the Gaussian(R) DV system of programs. It is based on
 the Gaussian(R) 16 system (copyright 2016, Gaussian, Inc.),
 the Gaussian(R) 09 system (copyright 2009, Gaussian, Inc.),
 the Gaussian(R) 03 system (copyright 2003, Gaussian, Inc.),
 the Gaussian(R) 98 system (copyright 1998, Gaussian, Inc.),
 the Gaussian(R) 94 system (copyright 1995, Gaussian, Inc.),
 the Gaussian 92(TM) system (copyright 1992, Gaussian, Inc.),
 the Gaussian 90(TM) system (copyright 1990, Gaussian, Inc.),
 the Gaussian 88(TM) system (copyright 1988, Gaussian, Inc.),
 the Gaussian 86(TM) system (copyright 1986, Carnegie Mellon
 University), and the Gaussian 82(TM) system (copyright 1983,
 Carnegie Mellon University). Gaussian is a federally registered
 trademark of Gaussian, Inc.
  
 This software contains proprietary and confidential information,
 including trade secrets, belonging to Gaussian, Inc.
  
 This software is provided under written license and may be
 used, copied, transmitted, or stored only in accord with that
 written license.
  
 The following legend is applicable only to US Government
 contracts under FAR:
  
                    RESTRICTED RIGHTS LEGEND
  
 Use, reproduction and disclosure by the US Government is
 subject to restrictions as set forth in subparagraphs (a)
 and (c) of the Commercial Computer Software - Restricted
 Rights clause in FAR 52.227-19.
  
 Gaussian, Inc.
 340 Quinnipiac St., Bldg. 40, Wallingford CT 06492
  
  
 ---------------------------------------------------------------
 Warning -- This program may not be used in any manner that
 competes with the business of Gaussian, Inc. or will provide
 assistance to any competitor of Gaussian, Inc.  The licensee
 of this program is prohibited from giving any competitor of
 Gaussian, Inc. access to this program.  By using this program,
 the user acknowledges that Gaussian, Inc. is engaged in the
 business of creating and licensing software in the field of
 computational chemistry and represents and warrants to the
 licensee that it is not a competitor of Gaussian, Inc. and that
 it will not use this program in any manner prohibited above.
 ---------------------------------------------------------------
  

 Cite this work as:
 Gaussian Development Version, Revision J.14,
 M. J. Frisch, G. W. Trucks, H. B. Schlegel, G. E. Scuseria, 
 M. A. Robb, J. R. Cheeseman, G. Scalmani, V. Barone, 
 G. A. Petersson, H. Nakatsuji, X. Li, A. V. Marenich, M. Caricato, 
 J. Bloino, B. G. Janesko, J. Zheng, R. Gomperts, B. Mennucci, 
 H. P. Hratchian, J. V. Ortiz, A. F. Izmaylov, J. L. Sonnenberg, 
 D. Williams-Young, F. Ding, F. Lipparini, F. Egidi, J. Goings, 
 B. Peng, A. Petrone, T. Henderson, D. Ranasinghe, V. G. Zakrzewski, 
 J. Gao, N. Rega, G. Zheng, W. Liang, M. Hada, M. Ehara, K. Toyota, 
 R. Fukuda, J. Hasegawa, M. Ishida, T. Nakajima, Y. Honda, O. Kitao, 
 H. Nakai, T. Vreven, K. Throssell, J. A. Montgomery, Jr., 
 J. E. Peralta, F. Ogliaro, M. J. Bearpark, J. J. Heyd, 
 E. N. Brothers, K. N. Kudin, V. N. Staroverov, T. A. Keith, 
 R. Kobayashi, J. Normand, K. Raghavachari, A. P. Rendell, 
 J. C. Burant, S. S. Iyengar, J. Tomasi, M. Cossi, J. M. Millam, 
 M. Klene, C. Adamo, R. Cammi, J. W. Ochterski, R. L. Martin, 
 K. Morokuma, O. Farkas, J. B. Foresman, and D. J. Fox, 
 Gaussian, Inc., Wallingford CT, 2020.
 
 ******************************************
 Gaussian DV:  ES64L-GDVRevJ.14 29-Dec-2020
                29-Nov-2023 
 ******************************************
 %mem=1GB
 %nprocshared=1
 Will use up to    1 processors via shared memory.
 %chk=0_mm_90.chk
 -----------------------------------------------------------------
 #p Amber=(SoftFirst,Print) geom=nocrowd nosymm opt=(maxcycle=300)
 -----------------------------------------------------------------
 1/6=300,10=10,18=4000020,19=15,37=210000000,38=1,56=2,64=203/1,3;
 2/9=110,12=1,15=1,40=1/2;
 3/5=30,11=9,25=1,30=1,41=10030000,43=2,71=1/1;
 4/20=11,22=1001,24=3,119=11/2;
 7/30=1,44=-1/16;
 1/6=300,10=10,18=4000020,19=15,64=203/3(2);
 2/9=110,12=1,15=1/2;
 99//99;
 2/9=110,12=1,15=1/2;
 3/5=30,11=9,25=1,30=1,41=10030000,43=2,71=1/1;
 4/16=2,20=11,22=1001,24=3,119=11/2;
 7/30=1,44=-1/16;
 1/6=300,10=10,18=4000020,19=15,64=203/3(-4);
 2/9=110,12=1,15=1/2;
 99/9=10/99;
 Leave Link    1 at Wed Nov 29 12:05:19 2023, MaxMem=   134217728 cpu:               0.0 elap:               0.0
 (Enter /home/emanuele/chem_software/gaussian//gdv/l101.exe)
 -----
 Title
 -----
 Symbolic Z-matrix:
 Charge =  0 Multiplicity = 1
 C-C-+0.299289        -0.52608  -0.05212   0.21886 
 O-OH--0.289770       -1.18814   0.72522  -0.70539 
 C-CT--0.035454        0.84681  -0.40384  -0.32892 
 H-HC-+0.090426        0.6191   -1.14455  -1.14522 
 H-HC-+0.095387        1.09177   0.41675  -1.04752 
 N-N3--0.336253        1.93806  -0.60434   0.64321 
 H-H-+0.142619         2.09071   0.22952   1.20382 
 H-H-+0.128282         1.72583  -1.37128   1.27876 
 O-O2--0.308037       -1.16665  -0.58324   1.09324 
 H-HO-+0.213510       -2.1494    0.86429  -0.48588 
 
 ITRead=  3  3  3  3  3  3  3  3  3  3
 MicOpt=  0  0  0  0  0  0  0  0  0  0
 NAtoms=     10 NQM=        0 NQMF=       0 NMMI=      0 NMMIF=      0
                NMic=      10 NMicF=      0.
                    Isotopes and Nuclear Properties:
 (Nuclear quadrupole moments (NQMom) in fm**2, nuclear magnetic moments (NMagM)
  in nuclear magnetons)

  Atom         1           2           3           4           5           6           7           8           9          10
 IAtWgt=          12          16          12           1           1          14           1           1          16           1
 AtmWgt=  12.0000000  15.9949146  12.0000000   1.0078250   1.0078250  14.0030740   1.0078250   1.0078250  15.9949146   1.0078250
 NucSpn=           0           0           0           1           1           2           1           1           0           1
 AtZEff=  -0.0000000  -0.0000000  -0.0000000  -0.0000000  -0.0000000  -0.0000000  -0.0000000  -0.0000000  -0.0000000  -0.0000000
 NQMom=    0.0000000   0.0000000   0.0000000   0.0000000   0.0000000   2.0440000   0.0000000   0.0000000   0.0000000   0.0000000
 NMagM=    0.0000000   0.0000000   0.0000000   2.7928460   2.7928460   0.4037610   2.7928460   2.7928460   0.0000000   2.7928460
 AtZNuc=   6.0000000   8.0000000   6.0000000   1.0000000   1.0000000   7.0000000   1.0000000   1.0000000   8.0000000   1.0000000
 Generating MM parameters.
 I=    1 IAn=  6 Valence= 5.
          JB=  1 J=    2 IAn=  8 IBT=12 Dist= 1.38D+00
          JB=  2 J=    3 IAn=  6 IBT= 1 Dist= 1.52D+00
          JB=  3 J=    9 IAn=  8 IBT= 2 Dist= 1.21D+00
 I=    2 IAn=  8 Valence= 3.
          JB=  1 J=    1 IAn=  6 IBT=12 Dist= 1.38D+00
          JB=  2 J=   10 IAn=  1 IBT= 1 Dist= 9.96D-01
 Read MM parameter file:
 Include all MM classes

 MM sanity checks:
 All charges sum to:               -0.00000100
 Charges of atoms sum to:          -0.00000100
 WARNING -- The following centers have non-zero partial charges, but zero Vanderwaals
 parameters.  These centers can collapse onto other centers with non-zero charge.
   Center  Layer   Charge
     10 H    R    0.213510
 MMInit generated parameter data with length LenPar=        2069.
 MM Charge=             -0.0000 electrons
 MM Dipole moment (Debye):
    X=              0.4096    Y=              0.7159    Z=             -1.1670  Tot=              1.4291
 MM Quadrupole moment (Debye-Ang):
   XX=              0.5107   YY=              0.7603   ZZ=              0.2362
   XY=             -0.9521   XZ=              1.9122   YZ=              1.2916
 MM Traceless Quadrupole moment (Debye-Ang):
   XX=              0.0083   YY=              0.2579   ZZ=             -0.2662
   XY=             -0.9521   XZ=              1.9122   YZ=              1.2916
 MM Octapole moment (Debye-Ang**2):
  XXX=             -7.4428  YYY=             -1.4063  ZZZ=             -0.6665  XYY=              1.1557
  XXY=              5.7470  XXZ=             -1.7037  XZZ=              5.7346  YZZ=             -0.4502
  YYZ=              0.0146  XYZ=             -1.1496
 MM Hexadecapole moment (Debye-Ang**3):
 XXXX=             12.8798 YYYY=              2.7359 ZZZZ=              1.7090 XXXY=             -4.0968
 XXXZ=              9.1395 YYYX=             -3.5261 YYYZ=             -0.7115 ZZZX=              4.8354
 ZZZY=              0.6713 XXYY=              3.5080 XXZZ=              3.3880 YYZZ=              1.7487
 XXYZ=              0.2258 YYXZ=              2.2539 ZZXY=             -2.3485
 Leave Link  101 at Wed Nov 29 12:05:19 2023, MaxMem=   134217728 cpu:               0.2 elap:               0.2
 (Enter /home/emanuele/chem_software/gaussian//gdv/l103.exe)

 GradGradGradGradGradGradGradGradGradGradGradGradGradGradGradGradGradGrad
 Berny optimization.
 Initialization pass.
 No Z-matrix variables, so optimization will use Cartesian coordinates.
 Trust Radius=1.00D-01 FncErr=1.00D-07 GrdErr=1.00D-07 EigMax=2.50D+02 EigMin=1.00D-04
 Number of steps in this run=      2 maximum allowed number of steps=      2.
 GradGradGradGradGradGradGradGradGradGradGradGradGradGradGradGradGradGrad

 Leave Link  103 at Wed Nov 29 12:05:19 2023, MaxMem=   134217728 cpu:               0.0 elap:               0.0
 (Enter /home/emanuele/chem_software/gaussian//gdv/l202.exe)
                          Input orientation:                          
 ---------------------------------------------------------------------
 Center     Atomic      Atomic             Coordinates (Angstroms)
 Number     Number       Type             X           Y           Z
 ---------------------------------------------------------------------
      1          6    20001002       -0.526083   -0.052118    0.218857
      2          8    20001022       -1.188136    0.725217   -0.705392
      3          6    20001001        0.846814   -0.403836   -0.328923
      4          1    20001034        0.619103   -1.144546   -1.145218
      5          1    20001034        1.091774    0.416752   -1.047518
      6          7    20001020        1.938064   -0.604343    0.643211
      7          1    20001029        2.090709    0.229516    1.203820
      8          1    20001029        1.725832   -1.371284    1.278758
      9          8    20001025       -1.166652   -0.583236    1.093238
     10          1    20001031       -2.149400    0.864291   -0.485883
 ---------------------------------------------------------------------
                    Distance matrix (angstroms):
                    1          2          3          4          5
     1  C    0.000000
     2  O    1.377244   0.000000
     3  C    1.519413   2.357437   0.000000
     4  H    2.089390   2.637342   1.125540   0.000000
     5  H    2.107369   2.325982   1.117922   1.634202   0.000000
     6  N    2.560674   3.655077   1.475152   2.286910   2.148815
     7  H    2.810173   3.826439   2.073092   3.093808   2.470112
     8  H    2.816862   4.101631   2.072020   2.674307   3.001777
     9  O    1.207045   2.224316   2.471593   2.917992   3.268532
    10  H    1.992893   0.995768   3.257312   3.483498   3.319779
                    6          7          8          9         10
     6  N    0.000000
     7  H    1.016319   0.000000
     8  H    1.018411   1.643567   0.000000
     9  O    3.137233   3.359047   3.003648   0.000000
    10  H    4.487661   4.608314   4.809280   2.356852   0.000000
 Symmetry turned off by external request.
 Stoichiometry    C2H5NO2
 Framework group  C1[X(C2H5NO2)]
 Deg. of freedom    24
 Full point group                 C1      NOp   1
 Rotational constants (GHZ):           9.8504104           3.6734101           2.8402068
 Leave Link  202 at Wed Nov 29 12:05:19 2023, MaxMem=   134217728 cpu:               0.0 elap:               0.0
 (Enter /home/emanuele/chem_software/gaussian//gdv/l301.exe)
 Standard basis: Dummy (5D, 7F)
    10 basis functions,    10 primitive gaussians,    10 cartesian basis functions
     7 alpha electrons        7 beta electrons
       nuclear repulsion energy        22.5066882316 Hartrees.
 IExCor=       0 DFT=F Ex=HF Corr=None N6=None ScaHFX=  1.000000
 ScaDFX=  1.000000  1.000000  1.000000  1.000000  1.000000  0.000000
 ScaDFX=  0.000000  0.000000  0.000000  0.000000  0.000000  0.000000
 IRadAn=      5 IRanWt=     -1 IRanGd=            0 ICorTp=0 IEmpDi=  4
 NAtoms=   10 NActive=   10 NUniq=   10 SFac= 1.00D+00 NAtFMM=   60 NAOKFM=F Big=F
 Integral buffers will be    131072 words long.
 Raffenetti 1 integral format.
 Two-electron integral symmetry is turned off.
 Leave Link  301 at Wed Nov 29 12:05:19 2023, MaxMem=   134217728 cpu:               0.0 elap:               0.0
 (Enter /home/emanuele/chem_software/gaussian//gdv/l402.exe)
 AMBER calculation of energy and first derivatives.
 NRF= 0 NRA=   0 NVA=  10 HaveQM=F NVQ=       0
 Convergence limit is  0.750E-04 MaxStp= 10000 StMxLn= 3.00D-04 StpMin= 1.00D-06.
 Convergence criteria             0.00011250 0.00007500 0.00045000 0.00030000
  Step  NS  ND Rises OKQ   Scale  Max. Force  RMS Force Max. Disp.  RMS Disp.     Energy   Flag
     1   0   0   F    T  1.00D+00 0.04124527 0.01469406 0.04124527 0.01469406    0.0774119 ----
     2   0   0   F    F  7.59D-01 0.04124527 0.01469406 0.03128638 0.01114610    0.0728031 ----
     3   0   0   F    T  2.23D+00 0.02027104 0.00966384 0.05473672 0.02584015    0.0717610 ----
     4   0   0   F    F  1.22D-01 0.02027104 0.00966384 0.00666213 0.00314507    0.0682580 ----
     5   0   0   F    T  1.09D+00 0.04217760 0.01356977 0.05948690 0.02898522    0.0682155 ----
     6   0   0   F    F  2.79D-01 0.04217760 0.01356977 0.01662059 0.00809845    0.0645248 ----
     7   0   0   F    T  2.85D+00 0.02308158 0.00874006 0.06324067 0.03708367    0.0643373 ----
     8   0   0   F    F -2.20D-01 0.02308158 0.00874006 0.01392038 0.00816276    0.0619677 ----
     9   0   0   F    T  1.84D+00 0.02221196 0.00898750 0.08076894 0.02892090    0.0617558 ----
    10   0   0   F    F  6.13D-01 0.02221196 0.00898750 0.04948812 0.01772019    0.0585201 ----
    11   0   0   F    F -1.32D-02 0.02221196 0.00898750 0.00065183 0.00023340    0.0579298 ---+
    12   0   0   F    T  3.22D+00 0.02345657 0.00871494 0.12199501 0.04640770    0.0579297 ----
    13   0   0   T    F  3.34D-01 0.02345657 0.00871494 0.04078649 0.01551545    0.0616662 ----
    14   0   0   F    T  1.59D+00 0.01509771 0.00645850 0.03659286 0.01551545    0.0567014 ----
    15   0   0   F    F  2.56D-01 0.01509771 0.00645850 0.00936686 0.00397157    0.0555137 ----
    16   0   0   F    T  2.11D+00 0.01004415 0.00561359 0.04812618 0.01948701    0.0554629 ----
    17   0   0   F    F  8.02D-01 0.01004415 0.00561359 0.03859330 0.01562701    0.0540084 ----
    18   0   0   F    F -1.02D-02 0.01004415 0.00561359 0.00039211 0.00015877    0.0536442 --++
    19   0   0   F    T  3.47D+00 0.01278625 0.00541511 0.07725426 0.03495525    0.0536441 ----
    20   0   0   T    F  4.76D-01 0.01278625 0.00541511 0.03673456 0.01662129    0.0537934 ----
    21   0   0   F    T  2.07D+00 0.01168979 0.00444522 0.03727809 0.01662129    0.0529205 ----
    22   0   0   F    F -3.32D-01 0.01168979 0.00444522 0.01236228 0.00551201    0.0526114 ----
    23   0   0   F    T  1.64D+00 0.00916257 0.00370553 0.02010657 0.01110929    0.0525111 ----
    24   0   0   F    F  4.28D-01 0.00916257 0.00370553 0.00860578 0.00475487    0.0520710 ----
    25   0   0   F    T  4.51D+00 0.00610875 0.00230660 0.02878784 0.01586415    0.0520273 ----
    26   0   0   T    F  4.32D-01 0.00610875 0.00230660 0.01244574 0.00685849    0.0521381 ----
    27   0   0   F    T  2.50D+00 0.00514028 0.00177568 0.01405993 0.00685849    0.0518721 ----
    28   0   0   F    F -5.11D-02 0.00514028 0.00177568 0.00071796 0.00035023    0.0517600 ----
    29   0   0   F    T  1.24D+00 0.00632148 0.00232226 0.01547174 0.00650826    0.0517597 ----
    30   0   0   F    F  2.31D-01 0.00632148 0.00232226 0.00357751 0.00150490    0.0516401 ----
    31   0   0   F    T  3.57D+00 0.00384183 0.00136259 0.02350463 0.00801316    0.0516357 ----
    32   0   0   F    F -3.50D-01 0.00384183 0.00136259 0.00822518 0.00280412    0.0515898 ----
    33   0   0   F    T  2.23D+00 0.00224585 0.00127791 0.01712078 0.00520905    0.0515709 ----
    34   0   0   F    F  2.13D-01 0.00224585 0.00127791 0.00365169 0.00111104    0.0515069 ----
    35   0   0   F    T  2.77D+00 0.00249987 0.00117089 0.02124688 0.00632008    0.0515048 ----
    36   0   0   F    F -4.89D-01 0.00249987 0.00117089 0.01038609 0.00308944    0.0515023 ----
    37   0   0   F    T  1.49D+00 0.00234254 0.00106497 0.01084037 0.00323064    0.0514757 ----
    38   0   0   F    F  3.68D-01 0.00234254 0.00106497 0.00398629 0.00118799    0.0514435 ----
    39   0   0   F    T  2.28D+00 0.00215141 0.00093982 0.01441148 0.00441864    0.0514410 ----
    40   0   0   F    F  5.17D-01 0.00215141 0.00093982 0.00745750 0.00228651    0.0514005 ----
    41   0   0   F    T  3.99D+00 0.00173493 0.00081919 0.02037060 0.00670515    0.0513952 ----
    42   0   0   F    F -4.45D-01 0.00173493 0.00081919 0.00907227 0.00298621    0.0513872 ----
    43   0   0   F    T  1.54D+00 0.00200247 0.00093991 0.01077695 0.00371894    0.0513729 ----
    44   0   0   F    F  1.17D-01 0.00200247 0.00093991 0.00125676 0.00043369    0.0513503 ----
    45   0   0   F    T  1.76D+00 0.00252453 0.00089370 0.01167392 0.00415262    0.0513501 ----
    46   0   0   F    F  2.33D-01 0.00252453 0.00089370 0.00272318 0.00096868    0.0513250 ----
    47   0   0   F    T  3.10D+00 0.00194126 0.00070994 0.01464679 0.00512131    0.0513241 ----
    48   0   0   F    F  5.27D-02 0.00194126 0.00070994 0.00077224 0.00027002    0.0512995 ---+
    49   0   0   F    T  2.19D+00 0.00217370 0.00083799 0.01574363 0.00539132    0.0512995 ----
    50   0   0   F    F  5.11D-01 0.00217370 0.00083799 0.00804261 0.00275415    0.0512684 ----
    51   0   0   F    T  1.51D+00 0.00337219 0.00122605 0.02370553 0.00814547    0.0512643 ----
    52   0   0   F    F -1.45D-01 0.00337219 0.00122605 0.00343769 0.00118123    0.0512360 ----
    53   0   0   F    T  2.87D+00 0.00197136 0.00082271 0.01944350 0.00696424    0.0512351 ----
    54   0   0   F    F  3.71D-01 0.00197136 0.00082271 0.00721636 0.00258475    0.0511984 ----
    55   0   0   F    T  1.81D+00 0.00358626 0.00119257 0.02623669 0.00954899    0.0511955 ----
    56   0   0   F    F  1.27D+00 0.00358626 0.00119257 0.03343908 0.01217034    0.0511356 ----
    57   0   0   F    F -9.61D-03 0.00358626 0.00119257 0.00032139 0.00011697    0.0511089 --++
    58   0   0   F    T  2.86D+00 0.00300997 0.00137217 0.05913197 0.02160236    0.0511088 ----
    59   0   0   F    F -1.07D-01 0.00300997 0.00137217 0.00632213 0.00230963    0.0510360 ----
    60   0   0   F    T  1.09D+00 0.00499130 0.00211082 0.05256493 0.01929273    0.0510349 ----
    61   0   0   F    F  8.35D-01 0.00499130 0.00211082 0.04390845 0.01611557    0.0509209 ----
    62   0   0   F    F -1.77D-02 0.00499130 0.00211082 0.00077619 0.00028488    0.0508874 ---+
    63   0   0   F    T  1.79D+00 0.00548455 0.00262004 0.09412065 0.03512341    0.0508874 ----
    64   0   0   F    F  7.23D-01 0.00548455 0.00262004 0.06809356 0.02541077    0.0506165 ----
    65   0   0   F    F -1.26D-01 0.00548455 0.00262004 0.00859510 0.00320747    0.0505619 ----
    66   0   0   F    T  4.19D+00 0.00542465 0.00305452 0.14907951 0.05732671    0.0505606 ----
    67   0   0   T    F  3.65D-01 0.00542465 0.00305452 0.05444335 0.02093553    0.0509452 ----
    68   0   0   F    T  1.19D+00 0.00898589 0.00338290 0.05393210 0.02093553    0.0503510 ----
    69   0   0   F    F  2.53D+00 0.00898589 0.00338290 0.13646537 0.05297354    0.0500195 ----
    70   0   0   F    F -2.11D-01 0.00898589 0.00338290 0.02881212 0.01118438    0.0497754 ----
    71   0   0   F    F -3.40D-02 0.00898589 0.00338290 0.00097924 0.00038012    0.0497567 ----
    72   0   0   F    T  1.63D+00 0.01267630 0.00457756 0.16391685 0.06310482    0.0497567 ----
    73   0   0   F    F -6.37D-02 0.01267630 0.00457756 0.01043779 0.00401835    0.0491799 ----
    74   0   0   F    T  4.06D+00 0.01127672 0.00437576 0.16320246 0.05908647    0.0491761 ----
    75   0   0   F    F -2.82D-01 0.01127672 0.00437576 0.04600559 0.01665605    0.0484687 ----
    76   0   0   F    F -7.10D-03 0.01127672 0.00437576 0.00032669 0.00011827    0.0483434 --++
    77   0   0   F    T  1.62D+00 0.01173456 0.00597740 0.12238278 0.04254870    0.0483434 ----
    78   0   0   F    F  3.30D-01 0.01173456 0.00597740 0.04034937 0.01402822    0.0472537 ----
    79   0   0   F    F -3.59D-02 0.01173456 0.00597740 0.00144730 0.00050318    0.0471839 ----
    80   0   0   F    T  1.26D+00 0.01873720 0.00772233 0.16426526 0.05607374    0.0471838 ----
    81   0   0   F    F  2.47D-01 0.01873720 0.00772233 0.04053297 0.01383637    0.0457338 ----
    82   0   0   F    F -4.66D-02 0.01873720 0.00772233 0.00188981 0.00064511    0.0456697 ----
    83   0   0   F    T  3.82D+00 0.02059503 0.00633080 0.18269181 0.06926501    0.0456695 ----
    84   0   0   F    F -3.67D-01 0.02059503 0.00633080 0.06697449 0.02539243    0.0446747 ----
    85   0   0   F    T  2.07D+00 0.01384777 0.00641017 0.12031786 0.04387258    0.0443046 ----
    86   0   0   F    F -2.96D-01 0.01384777 0.00641017 0.03555564 0.01296497    0.0435620 ----
    87   0   0   F    T  1.11D+00 0.01574307 0.00681296 0.08926017 0.03090761    0.0434041 ----
    88   0   0   F    F  1.31D+00 0.01574307 0.00681296 0.11665338 0.04039290    0.0421352 ----
    89   0   0   F    F -6.08D-02 0.01574307 0.00681296 0.00709481 0.00245668    0.0415080 ----
    90   0   0   F    T  2.46D+00 0.01872214 0.00746795 0.17895081 0.06884382    0.0415050 ----
    91   0   0   F    F -4.54D-01 0.01872214 0.00746795 0.08132879 0.03128784    0.0411430 ----
    92   0   0   F    T  1.52D+00 0.01903664 0.00711146 0.10633097 0.03755598    0.0403973 ----
    93   0   0   F    F -1.18D-01 0.01903664 0.00711146 0.01255800 0.00443547    0.0394147 ----
    94   0   0   F    T  2.26D+00 0.01399514 0.00495794 0.08791305 0.03312051    0.0393975 ----
    95   0   0   F    F  1.75D-01 0.01399514 0.00495794 0.01540147 0.00580238    0.0384138 ----
    96   0   0   F    T  2.82D+00 0.01264614 0.00463257 0.10878336 0.03892289    0.0383907 ----
    97   0   0   T    F  4.01D-01 0.01264614 0.00463257 0.04360808 0.01560305    0.0388354 ----
    98   0   0   F    T  1.35D+00 0.00988038 0.00412840 0.04349977 0.01560305    0.0380285 ----
    99   0   0   F    F  5.88D-01 0.00988038 0.00412840 0.02556808 0.00917108    0.0375594 ----
   100   0   0   F    T  2.35D+00 0.01087418 0.00371028 0.05311752 0.02477414    0.0374865 ----
   101   0   0   F    F -2.64D-01 0.01087418 0.00371028 0.01402516 0.00654137    0.0371745 ----
   102   0   0   F    T  2.43D+00 0.00652538 0.00298533 0.03988923 0.01823277    0.0371273 ----
   103   0   0   T    F  4.23D-01 0.00652538 0.00298533 0.01685389 0.00770366    0.0372462 ----
   104   0   0   F    T  1.51D+00 0.00689277 0.00234063 0.01673829 0.00770366    0.0369898 ----
   105   0   0   F    F  6.96D-01 0.00689277 0.00234063 0.01164344 0.00535880    0.0368159 ----
   106   0   0   F    T  2.06D+00 0.00509795 0.00247425 0.02977469 0.01306246    0.0367809 ----
   107   0   0   F    F -3.00D-02 0.00509795 0.00247425 0.00089373 0.00039209    0.0365958 ----
   108   0   0   F    T  1.40D+00 0.00721443 0.00289445 0.03383836 0.01267037    0.0365956 ----
   109   0   0   F    F -1.43D-01 0.00721443 0.00289445 0.00483906 0.00181193    0.0364500 ----
   110   0   0   F    T  2.26D+00 0.00680873 0.00204082 0.02813847 0.01085844    0.0364459 ----
   111   0   0   F    F -2.13D-02 0.00680873 0.00204082 0.00060034 0.00023167    0.0363079 ---+
   112   0   0   F    T  2.36D+00 0.00516248 0.00186622 0.02564333 0.01062677    0.0363078 ----
   113   0   0   F    F -4.21D-01 0.00516248 0.00186622 0.01078886 0.00447098    0.0362743 ----
   114   0   0   F    T  1.19D+00 0.00467469 0.00193855 0.01641032 0.00615579    0.0362361 ----
   115   0   0   F    F  5.77D-01 0.00467469 0.00193855 0.00946512 0.00355053    0.0361452 ----
   116   0   0   F    T  2.79D+00 0.00523142 0.00151280 0.02262347 0.00970632    0.0361312 ----
   117   0   0   F    F -4.29D-01 0.00523142 0.00151280 0.00971131 0.00416652    0.0361074 ----
   118   0   0   F    T  2.33D+00 0.00295388 0.00115989 0.01141981 0.00553980    0.0360766 ----
   119   0   0   T    F  4.23D-01 0.00295388 0.00115989 0.00482535 0.00234080    0.0360940 ----
   120   0   0   F    T  1.42D+00 0.00199218 0.00088978 0.00510751 0.00234080    0.0360568 ----
   121   0   0   F    F  1.43D+00 0.00199218 0.00088978 0.00730534 0.00334808    0.0360300 ----
   122   0   0   F    T  2.40D+00 0.00233080 0.00101704 0.01381740 0.00568888    0.0360159 ----
   123   0   0   F    F -4.78D-01 0.00233080 0.00101704 0.00660445 0.00271917    0.0360127 ----
   124   0   0   F    T  1.36D+00 0.00248206 0.00092808 0.00761662 0.00296970    0.0359964 ----
   125   0   0   F    F  1.36D-01 0.00248206 0.00092808 0.00103340 0.00040292    0.0359767 ----
   126   0   0   F    T  2.20D+00 0.00162193 0.00072817 0.00860427 0.00337262    0.0359764 ----
   127   0   0   F    F  6.84D-02 0.00162193 0.00072817 0.00058893 0.00023084    0.0359578 ---+
   128   0   0   F    T  1.79D+00 0.00205296 0.00080140 0.00937212 0.00360347    0.0359577 ----
   129   0   0   F    F -3.21D-01 0.00205296 0.00080140 0.00300893 0.00115690    0.0359486 ----
   130   0   0   F    T  1.42D+00 0.00184475 0.00070667 0.00574896 0.00244657    0.0359460 ----
   131   0   0   F    F  3.34D-01 0.00184475 0.00070667 0.00192119 0.00081760    0.0359327 ----
   132   0   0   F    T  3.71D+00 0.00153746 0.00046349 0.00778685 0.00326417    0.0359318 ----
   133   0   0   T    F  3.96D-01 0.00153746 0.00046349 0.00308015 0.00129117    0.0359381 ----
   134   0   0   F    T  1.32D+00 0.00116361 0.00046004 0.00305219 0.00129117    0.0359270 ----
   135   0   0   F    T  1.92D+00 0.00094005 0.00035045 0.00309310 0.00129117    0.0359229 ----
   136   0   0   F    F  3.27D-01 0.00094005 0.00035045 0.00101171 0.00042232    0.0359185 ----
   137   0   0   F    T  1.92D+00 0.00103661 0.00038508 0.00461721 0.00171349    0.0359182 ----
   138   0   0   F    F -2.19D-01 0.00103661 0.00038508 0.00101272 0.00037583    0.0359151 ----
   139   0   0   F    T  1.15D+00 0.00137454 0.00042422 0.00382110 0.00133766    0.0359149 ----
   140   0   0   F    F  7.75D-01 0.00137454 0.00042422 0.00296058 0.00103642    0.0359104 ----
   141   0   0   F    T  2.04D+00 0.00084779 0.00041147 0.00714181 0.00237408    0.0359094 ----
   142   0   0   F    F  1.59D-01 0.00084779 0.00041147 0.00113246 0.00037645    0.0359035 ----
   143   0   0   F    T  2.00D+00 0.00124258 0.00043596 0.00844542 0.00275054    0.0359034 ----
   144   0   0   F    F -4.76D-01 0.00124258 0.00043596 0.00402290 0.00131019    0.0359029 ----
   145   0   0   F    T  1.61D+00 0.00084214 0.00033771 0.00456186 0.00144034    0.0359004 ----
   146   0   0   F    F  8.63D-01 0.00084214 0.00033771 0.00393724 0.00124313    0.0358964 ----
   147   0   0   F    T  1.88D+00 0.00111242 0.00041602 0.00883799 0.00268347    0.0358953 ----
   148   0   0   F    T  1.51D+00 0.00103586 0.00045429 0.00905772 0.00268347    0.0358904 ----
   149   0   0   F    F -2.02D-01 0.00103586 0.00045429 0.00182652 0.00054113    0.0358869 ----
   150   0   0   F    T  2.07D+00 0.00082942 0.00033823 0.00741592 0.00214234    0.0358867 ----
   151   0   0   F    F  2.62D-01 0.00082942 0.00033823 0.00194160 0.00056090    0.0358824 ----
   152   0   0   F    T  2.19D+00 0.00115538 0.00036216 0.00956995 0.00270324    0.0358822 ----
   153   0   0   F    F -3.34D-01 0.00115538 0.00036216 0.00319972 0.00090383    0.0358800 ----
   154   0   0   F    T  1.11D+00 0.00107088 0.00040774 0.00642020 0.00179941    0.0358793 ----
   155   0   0   F    F  1.02D+00 0.00107088 0.00040774 0.00655780 0.00183797    0.0358751 ----
   156   0   0   F    T  2.96D+00 0.00111434 0.00034716 0.01257198 0.00363738    0.0358737 ----
   157   0   0   F    F -4.69D-01 0.00111434 0.00034716 0.00589548 0.00170571    0.0358731 ----
   158   0   0   F    T  2.02D+00 0.00081094 0.00029842 0.00633672 0.00193167    0.0358709 ----
   159   0   0   F    F -4.03D-01 0.00081094 0.00029842 0.00255562 0.00077905    0.0358700 ----
   160   0   0   F    T  1.35D+00 0.00084038 0.00027484 0.00354686 0.00115262    0.0358693 ----
   161   0   0   F    F  1.42D+00 0.00084038 0.00027484 0.00501913 0.00163107    0.0358668 ----
   162   0   0   F    T  3.15D+00 0.00052320 0.00027298 0.00783021 0.00278369    0.0358656 ----
   163   0   0   T    F  3.77D-01 0.00052320 0.00027298 0.00294842 0.00104818    0.0358679 ----
   164   0   0   F    T  1.39D+00 0.00070205 0.00024509 0.00266241 0.00104818    0.0358642 ----
   165   0   0   F    F  1.68D-01 0.00070205 0.00024509 0.00044773 0.00017627    0.0358628 --++
   166   0   0   F    T  2.35D+00 0.00038444 0.00019620 0.00273230 0.00122445    0.0358628 ----
   167   0   0   F    T  1.76D+00 0.00054771 0.00022191 0.00271409 0.00122445    0.0358614 ----
   168   0   0   F    F -2.26D-01 0.00054771 0.00022191 0.00061440 0.00027719    0.0358605 ---+
   169   0   0   F    T  1.23D+00 0.00073725 0.00022577 0.00212601 0.00094727    0.0358604 ----
   170   0   0   F    F  1.14D+00 0.00073725 0.00022577 0.00242048 0.00107847    0.0358590 ----
   171   0   0   F    T  2.70D+00 0.00061297 0.00022105 0.00461709 0.00202573    0.0358584 ----
   172   0   0   F    F -2.68D-01 0.00061297 0.00022105 0.00123725 0.00054284    0.0358571 ----
   173   0   0   F    T  1.08D+00 0.00085937 0.00029605 0.00334783 0.00148289    0.0358569 ----
   174   0   0   F    F  6.15D-01 0.00085937 0.00029605 0.00205798 0.00091157    0.0358550 ----
   175   0   0   F    T  2.01D+00 0.00075439 0.00027117 0.00573080 0.00239446    0.0358547 ----
   176   0   0   F    F  1.03D-01 0.00075439 0.00027117 0.00059143 0.00024711    0.0358522 ---+
   177   0   0   F    T  2.22D+00 0.00058099 0.00026822 0.00592055 0.00264157    0.0358522 ----
   178   0   0   F    F -3.08D-01 0.00058099 0.00026822 0.00182400 0.00081381    0.0358509 ----
   179   0   0   F    T  1.14D+00 0.00094313 0.00030928 0.00380564 0.00182776    0.0358505 ----
   180   0   0   F    F  8.77D-01 0.00094313 0.00030928 0.00333884 0.00160357    0.0358482 ----
   181   0   0   F    T  2.55D+00 0.00073840 0.00027802 0.00747382 0.00343132    0.0358475 ----
   182   0   0   F    F -2.00D-01 0.00073840 0.00027802 0.00149559 0.00068665    0.0358453 ----
   183   0   0   F    T  1.67D+00 0.00069007 0.00030426 0.00656109 0.00274468    0.0358451 ----
   184   0   0   F    F -1.30D-01 0.00069007 0.00030426 0.00085460 0.00035750    0.0358431 ----
   185   0   0   F    T  1.23D+00 0.00075103 0.00032799 0.00577183 0.00238717    0.0358431 ----
   186   0   0   F    F  1.50D+00 0.00075103 0.00032799 0.00865621 0.00358013    0.0358399 ----
   187   0   0   F    T  2.50D+00 0.00075952 0.00036059 0.01476301 0.00596730    0.0358381 ----
   188   0   0   F    F -3.19D-01 0.00075952 0.00036059 0.00470227 0.00190069    0.0358355 ----
   189   0   0   F    T  1.39D+00 0.00096860 0.00040065 0.01067412 0.00406661    0.0358348 ----
   190   0   0   F    T  2.12D+00 0.00072658 0.00031746 0.01101949 0.00406661    0.0358315 ----
   191   0   0   F    F  2.31D-01 0.00072658 0.00031746 0.00254011 0.00093740    0.0358278 ----
   192   0   0   F    T  1.97D+00 0.00082918 0.00036736 0.01368300 0.00500401    0.0358276 ----
   193   0   0   F    T  1.00D+00 0.00125153 0.00051041 0.01420878 0.00501852    0.0358237 ----
   194   0   0   F    F  7.91D-01 0.00125153 0.00051041 0.01123328 0.00396758    0.0358182 ----
   195   0   0   F    T  5.90D+00 0.00081502 0.00032944 0.02774264 0.00898610    0.0358169 ----
   196   0   0   T    F  2.33D-01 0.00081502 0.00032944 0.00645854 0.00209198    0.0358384 ----
   197   0   0   F    T  1.31D+00 0.00084298 0.00033069 0.00665084 0.00209198    0.0358147 ----
   198   0   0   F    F  2.22D-01 0.00084298 0.00033069 0.00147688 0.00046454    0.0358121 ----
   199   0   0   F    T  1.93D+00 0.00083354 0.00029579 0.00867601 0.00255652    0.0358120 ----
   200   0   0   F    F  3.56D-01 0.00083354 0.00029579 0.00309242 0.00091123    0.0358088 ----
   201   0   0   F    T  2.00D+00 0.00076707 0.00033701 0.01220582 0.00346775    0.0358086 ----
   202   0   0   F    F -1.66D-01 0.00076707 0.00033701 0.00202031 0.00057398    0.0358058 ----
   203   0   0   F    T  1.24D+00 0.00104591 0.00038770 0.01005191 0.00289377    0.0358057 ----
   204   0   0   F    F  3.01D-01 0.00104591 0.00038770 0.00302257 0.00087014    0.0358023 ----
   205   0   0   F    T  2.94D+00 0.00068465 0.00028242 0.01306465 0.00376391    0.0358021 ----
   206   0   0   F    T  1.52D+00 0.00115156 0.00039166 0.01323930 0.00376391    0.0357986 ----
   207   0   0   F    F -2.60D-01 0.00115156 0.00039166 0.00344270 0.00097875    0.0357964 ----
   208   0   0   F    T  2.30D+00 0.00071061 0.00027249 0.00950201 0.00278516    0.0357961 ----
   209   0   0   F    F -2.38D-01 0.00071061 0.00027249 0.00226029 0.00066252    0.0357943 ----
   210   0   0   F    T  3.28D+00 0.00058578 0.00019164 0.00697937 0.00212264    0.0357941 ----
   211   0   0   F    F -4.75D-01 0.00058578 0.00019164 0.00331295 0.00100757    0.0357939 ----
   212   0   0   F    T  1.44D+00 0.00050894 0.00020639 0.00375426 0.00111507    0.0357932 ----
   213   0   0   F    T  1.80D+00 0.00048778 0.00017397 0.00375425 0.00111507    0.0357923 ----
   214   0   0   F    F  1.35D-01 0.00048778 0.00017397 0.00050535 0.00015010    0.0357914 ---+
   215   0   0   F    T  3.52D+00 0.00036039 0.00014167 0.00413728 0.00126517    0.0357914 ----
   216   0   0   T    F  3.84D-01 0.00036039 0.00014167 0.00158837 0.00048572    0.0357921 ----
   217   0   0   F    T  1.38D+00 0.00035862 0.00013387 0.00163083 0.00048572    0.0357910 ----
   218   0   0   F    T  3.09D+00 0.00017693 0.00008314 0.00146659 0.00048572    0.0357906 ----
   219   0   0   F    F -3.16D-01 0.00017693 0.00008314 0.00046271 0.00015324    0.0357905 ---+
   220   0   0   F    T  1.98D+00 0.00018238 0.00007981 0.00105580 0.00033247    0.0357904 ----
   221   0   0   F    T  1.00D+00 0.00031913 0.00011665 0.00137420 0.00040778    0.0357903 ----
   222   0   0   F    F  4.68D-01 0.00031913 0.00011665 0.00064328 0.00019089    0.0357901 ---+
   223   0   0   F    T  2.87D+00 0.00035363 0.00012915 0.00185043 0.00059867    0.0357901 ----
   224   0   0   T    F  3.20D-01 0.00035363 0.00012915 0.00059169 0.00019143    0.0357909 ---+
   225   0   0   F    T  1.40D+00 0.00018205 0.00008887 0.00057176 0.00019143    0.0357898 ---+
   226   0   0   F    T  3.14D+00 0.00016578 0.00004937 0.00054316 0.00019143    0.0357897 -+-+
   227   0   0   F    T  1.00D+00 0.00034937 0.00009604 0.00084694 0.00026589    0.0357896 ---+
   228   0   0   T    T  1.00D+00 0.00042421 0.00014246 0.00042421 0.00014246    0.0357897 --++
   229   0   0   F    T  2.11D+00 0.00024616 0.00008747 0.00038594 0.00014246    0.0357896 --++
   230   0   0   T    F  5.00D-01 0.00024616 0.00008747 0.00019297 0.00007123    0.0357899 --++
   231   0   0   T    F  5.00D-01 0.00024616 0.00008747 0.00009648 0.00003562    0.0357897 --++
   232   0   0   T    F  5.00D-01 0.00024616 0.00008747 0.00004824 0.00001781    0.0357896 --++
   233   0   0   T    F  5.00D-01 0.00024616 0.00008747 0.00002412 0.00000890    0.0357896 --++
   234   0   0   T    F  5.00D-01 0.00024616 0.00008747 0.00001206 0.00000445    0.0357896 --++
   235   0   0   T    F  5.00D-01 0.00024616 0.00008747 0.00000603 0.00000223    0.0357896 --++
   236   0   0   T    F  5.00D-01 0.00024616 0.00008747 0.00000302 0.00000111    0.0357896 --++
   237   0   0   T    F  5.00D-01 0.00024616 0.00008747 0.00000151 0.00000056    0.0357896 --++
   238   0   0   T    F  5.00D-01 0.00024616 0.00008747 0.00000075 0.00000028    0.0357896 --++
   239   0   0   T    T  1.00D+00 0.00024636 0.00008766 0.00023101 0.00007973    0.0357896 --++
   240   0   0   F    T  3.12D+00 0.00007431 0.00003000 0.00020961 0.00007973    0.0357895 ====
 ****************************
 MOLECULAR MECHANICS FUNCTION
 ****************************
 Atomic parameters:
 Center  VDW
      1 1.9080 0.0860000
      2 1.7210 0.2104000
      3 1.9080 0.1094000
      4 1.4870 0.0157000
      5 1.4870 0.0157000
      6 1.8750 0.1700000
      7 0.6000 0.0157000
      8 0.6000 0.0157000
      9 1.6612 0.2100000
     10 0.0000 0.0000000
 Molecular mechanics terms:
 NBDir 3 1      0      0
 HrmStr1  1- 2  431.53 1.3510
 HrmStr1  1- 3  294.15 1.5090
 HrmStr1  1- 9  946.08 1.2030
 HrmStr1  2-10  566.76 0.9680
 HrmStr1  3- 4  358.05 1.0960
 HrmStr1  3- 5  358.05 1.0960
 HrmStr1  3- 6  380.82 1.4520
 HrmStr1  6- 7  506.01 1.0110
 HrmStr1  6- 8  506.01 1.0110
 HrmBnd1  1- 2-10  56.55 107.23
 HrmBnd1  1- 3- 4  46.41 106.89
 HrmBnd1  1- 3- 5  46.41 106.89
 HrmBnd1  1- 3- 6  59.93 110.61
 HrmBnd1  2- 1- 3  67.92 111.72
 HrmBnd1  2- 1- 9  91.40 123.02
 HrmBnd1  3- 1- 9  62.83 125.24
 HrmBnd1  3- 6- 7  52.60 110.71
 HrmBnd1  3- 6- 8  52.60 110.71
 HrmBnd1  4- 3- 5  44.68 106.22
 HrmBnd1  4- 3- 6  52.45 112.94
 HrmBnd1  5- 3- 6  52.45 112.94
 HrmBnd1  7- 6- 8  47.09 108.63
 AmbTrs  3- 1- 2-10   0 180   0   0  0.0000 14.5000  0.0000  0.0000  2.0
 AmbTrs  9- 1- 2-10   0   0   0   0  0.0000 14.5000  0.0000  0.0000  2.0
 AmbTrs  2- 1- 3- 4   0   0   0   0  0.0000 14.5000  0.0000  0.0000  6.0
 AmbTrs  2- 1- 3- 5   0   0   0   0  0.0000 14.5000  0.0000  0.0000  6.0
 AmbTrs  2- 1- 3- 6   0   0   0   0  0.0000 14.5000  0.0000  0.0000  6.0
 AmbTrs  9- 1- 3- 4   0   0   0   0  0.0000 14.5000  0.0000  0.0000  6.0
 AmbTrs  9- 1- 3- 5   0   0   0   0  0.0000 14.5000  0.0000  0.0000  6.0
 AmbTrs  9- 1- 3- 6   0   0   0   0  0.0000 14.5000  0.0000  0.0000  6.0
 AmbTrs  1- 3- 6- 7   0 180   0   0  0.0000 25.6300  0.0000  0.0000  6.0
 AmbTrs  1- 3- 6- 8   0 180   0   0  0.0000 25.6300  0.0000  0.0000  6.0
 AmbTrs  4- 3- 6- 7   0   0   0   0  0.0000  0.0000  0.0000  0.0000  6.0
 AmbTrs  4- 3- 6- 8   0   0   0   0  0.0000  0.0000  0.0000  0.0000  6.0
 AmbTrs  5- 3- 6- 7   0   0   0   0  0.0000  0.0000  0.0000  0.0000  6.0
 AmbTrs  5- 3- 6- 8   0   0   0   0  0.0000  0.0000  0.0000  0.0000  6.0
 NBPair  2- 1 3 1      0      0 -1.000 -1.000
 NBPair  3- 2 3 1      0      0 -1.000 -1.000
 NBPair 10- 3 3 1      0      0 -0.500 -0.167
 NBPair  9- 2 3 1      0      0 -1.000 -1.000
 NBPair 10- 9 3 1      0      0 -0.500 -0.167
 NBPair  3- 1 3 1      0      0 -1.000 -1.000
 NBPair  4- 2 3 1      0      0 -0.500 -0.167
 NBPair  5- 2 3 1      0      0 -0.500 -0.167
 NBPair  6- 2 3 1      0      0 -0.500 -0.167
 NBPair  9- 3 3 1      0      0 -1.000 -1.000
 NBPair  9- 4 3 1      0      0 -0.500 -0.167
 NBPair  9- 5 3 1      0      0 -0.500 -0.167
 NBPair  9- 6 3 1      0      0 -0.500 -0.167
 NBPair  9- 1 3 1      0      0 -1.000 -1.000
 NBPair 10- 1 3 1      0      0 -1.000 -1.000
 NBPair 10- 2 3 1      0      0 -1.000 -1.000
 NBPair  4- 1 3 1      0      0 -1.000 -1.000
 NBPair  5- 1 3 1      0      0 -1.000 -1.000
 NBPair  6- 1 3 1      0      0 -1.000 -1.000
 NBPair  4- 3 3 1      0      0 -1.000 -1.000
 NBPair  5- 4 3 1      0      0 -1.000 -1.000
 NBPair  6- 4 3 1      0      0 -1.000 -1.000
 NBPair  5- 3 3 1      0      0 -1.000 -1.000
 NBPair  6- 5 3 1      0      0 -1.000 -1.000
 NBPair  6- 3 3 1      0      0 -1.000 -1.000
 NBPair  7- 1 3 1      0      0 -0.500 -0.167
 NBPair  8- 1 3 1      0      0 -0.500 -0.167
 NBPair  7- 4 3 1      0      0 -0.500 -0.167
 NBPair  8- 4 3 1      0      0 -0.500 -0.167
 NBPair  7- 5 3 1      0      0 -0.500 -0.167
 NBPair  8- 5 3 1      0      0 -0.500 -0.167
 NBPair  7- 3 3 1      0      0 -1.000 -1.000
 NBPair  8- 3 3 1      0      0 -1.000 -1.000
 NBPair  7- 6 3 1      0      0 -1.000 -1.000
 NBPair  8- 7 3 1      0      0 -1.000 -1.000
 NBPair  8- 6 3 1      0      0 -1.000 -1.000
 Energy per function type:
 Direct Coulomb + vdW (small)                           0.003466449
 Direct Coulomb (large)                                -0.131641086
 Direct vdW (large)                                   268.999575798
 Non-direct Coulomb + vdW (small)                      -0.011906333
 Non-direct Coulomb (large)                             0.137951254
 Non-direct vdW (large)                              -268.999575798
 Harmonic stretch I                                     0.000105863
 Harmonic bend I                                        0.004580850
 Amber torsion                                          0.033232480
 Energy per function class:
        Coulomb              -0.003654173
    Vanderwaals               0.001524456
     Stretching               0.000105863
        Bending               0.004580850
        Torsion               0.033232480
 Energy=    3.578947618E-02 NIter=   0.
 Dipole moment=       0.495789       0.184442       0.048880
 Leave Link  402 at Wed Nov 29 12:05:20 2023, MaxMem=   134217728 cpu:               0.4 elap:               0.4
 (Enter /home/emanuele/chem_software/gaussian//gdv/l716.exe)
 Dipole        = 4.95789312D-01 1.84442408D-01 4.88795750D-02
 -------------------------------------------------------------------
 Center     Atomic                   Forces (Hartrees/Bohr)
 Number     Number              X              Y              Z
 -------------------------------------------------------------------
      1        6          -0.000051234    0.000029177   -0.000043072
      2        8           0.000011138   -0.000016409    0.000044835
      3        6           0.000050013   -0.000026308   -0.000017321
      4        1           0.000000745   -0.000012331   -0.000015047
      5        1          -0.000021635    0.000028857   -0.000005225
      6        7           0.000013974    0.000008217   -0.000029132
      7        1          -0.000019259    0.000074312   -0.000002202
      8        1          -0.000016297   -0.000054520    0.000042219
      9        8           0.000010515    0.000001037    0.000005649
     10        1           0.000022038   -0.000032032    0.000019297
 -------------------------------------------------------------------
 Cartesian Forces:  Max     0.000074312 RMS     0.000029996
 Z-matrix is all fixed cartesians, so copy forces.
 Leave Link  716 at Wed Nov 29 12:05:20 2023, MaxMem=   134217728 cpu:               0.0 elap:               0.0
 (Enter /home/emanuele/chem_software/gaussian//gdv/l103.exe)

 GradGradGradGradGradGradGradGradGradGradGradGradGradGradGradGradGradGrad
 Berny optimization.
 Search for a local minimum.
 Step number   1 out of a maximum of    2
 All quantities printed in internal units (Hartrees-Bohrs-Radians)
 RMS Force = .29996D-04 SwitMx=.10000D-02 MixMth= 2
 Mixed Optimization -- En-DIIS/RFO-DIIS
 Second derivative matrix not updated -- unit matrix used.
 ITU=  0
 RFO step:  Lambda=-2.69930017D-08 EMin= 1.00000000D+00
 Linear search not attempted -- first point.
 Variable       Old X    -DE/DX   Delta X   Delta X   Delta X     New X
                                 (Linear)    (Quad)   (Total)
    X1       -1.24772  -0.00005   0.00000  -0.00005  -0.00005  -1.24777
    Y1       -0.21651   0.00003   0.00000   0.00003   0.00003  -0.21648
    Z1        0.23200  -0.00004   0.00000  -0.00004  -0.00004   0.23196
    X2       -1.87647   0.00001   0.00000   0.00001   0.00001  -1.87646
    Y2        1.89666  -0.00002   0.00000  -0.00002  -0.00002   1.89664
    Z2       -1.05149   0.00004   0.00000   0.00004   0.00004  -1.05145
    X3        1.39676   0.00005   0.00000   0.00005   0.00005   1.39681
    Y3       -1.02567  -0.00003   0.00000  -0.00003  -0.00003  -1.02570
    Z3       -0.55547  -0.00002   0.00000  -0.00002  -0.00002  -0.55548
    X4        1.28481   0.00000   0.00000   0.00000   0.00000   1.28481
    Y4       -3.06667  -0.00001   0.00000  -0.00001  -0.00001  -3.06668
    Z4       -0.90180  -0.00002   0.00000  -0.00002  -0.00002  -0.90182
    X5        1.75515  -0.00002   0.00000  -0.00002  -0.00002   1.75513
    Y5       -0.30448   0.00003   0.00000   0.00003   0.00003  -0.30446
    Z5       -2.46680  -0.00001   0.00000  -0.00001  -0.00001  -2.46680
    X6        3.31249   0.00001   0.00000   0.00001   0.00001   3.31251
    Y6       -0.35033   0.00001   0.00000   0.00001   0.00001  -0.35032
    Z6        1.30772  -0.00003   0.00000  -0.00003  -0.00003   1.30770
    X7        2.64232  -0.00002   0.00000  -0.00002  -0.00002   2.64230
    Y7       -0.10202   0.00007   0.00000   0.00007   0.00007  -0.10195
    Z7        3.08094  -0.00000   0.00000  -0.00000  -0.00000   3.08094
    X8        4.91609  -0.00002   0.00000  -0.00002  -0.00002   4.91607
    Y8       -1.38608  -0.00005   0.00000  -0.00005  -0.00005  -1.38613
    Z8        1.21259   0.00004   0.00000   0.00004   0.00004   1.21264
    X9       -2.82776   0.00001   0.00000   0.00001   0.00001  -2.82775
    Y9       -1.81564   0.00000   0.00000   0.00000   0.00000  -1.81564
    Z9        0.56120   0.00001   0.00000   0.00001   0.00001   0.56121
   X10       -3.15355   0.00002   0.00000   0.00002   0.00002  -3.15353
   Y10        2.73569  -0.00003   0.00000  -0.00003  -0.00003   2.73566
   Z10       -0.04895   0.00002   0.00000   0.00002   0.00002  -0.04893
         Item               Value     Threshold  Converged?
 Maximum Force            0.000074     0.000450     YES
 RMS     Force            0.000030     0.000300     YES
 Maximum Displacement     0.000074     0.001800     YES
 RMS     Displacement     0.000030     0.001200     YES
 Predicted change in Energy=-1.349650D-08
 Optimization completed.
    -- Stationary point found.
 Largest change from initial coordinates is atom    8       0.885 Angstoms.
 GradGradGradGradGradGradGradGradGradGradGradGradGradGradGradGradGradGrad

 Leave Link  103 at Wed Nov 29 12:05:20 2023, MaxMem=   134217728 cpu:               0.0 elap:               0.0
 (Enter /home/emanuele/chem_software/gaussian//gdv/l202.exe)
                          Input orientation:                          
 ---------------------------------------------------------------------
 Center     Atomic      Atomic             Coordinates (Angstroms)
 Number     Number       Type             X           Y           Z
 ---------------------------------------------------------------------
      1          6    20001002       -0.660266   -0.114573    0.122768
      2          8    20001022       -0.992987    1.003669   -0.556427
      3          6    20001001        0.739134   -0.542761   -0.293940
      4          1    20001034        0.679893   -1.622811   -0.477212
      5          1    20001034        0.928788   -0.161126   -1.305372
      6          7    20001020        1.752896   -0.185387    0.692018
      7          1    20001029        1.398255   -0.053987    1.630365
      8          1    20001029        2.601482   -0.733481    0.641677
      9          8    20001025       -1.496384   -0.960795    0.296976
     10          1    20001031       -1.668785    1.447667   -0.025902
 ---------------------------------------------------------------------
                    Distance matrix (angstroms):
                    1          2          3          4          5
     1  C    0.000000
     2  O    1.349990   0.000000
     3  C    1.521615   2.336790   0.000000
     4  H    2.104943   3.114996   1.097090   0.000000
     5  H    2.137017   2.368730   1.097546   1.698329   0.000000
     6  N    2.480405   3.242274   1.458610   2.141173   2.160858
     7  H    2.552259   3.408626   2.091959   2.723809   2.974967
     8  H    3.360254   4.168134   2.092867   2.394854   2.629923
     9  O    1.202304   2.200188   2.349782   2.402877   3.014705
    10  H    1.865424   0.967106   3.135558   3.892018   3.312498
                    6          7          8          9         10
     6  N    0.000000
     7  H    1.011697   0.000000
     8  H    1.011454   1.699109   0.000000
     9  O    3.363798   3.313482   4.118616   0.000000
    10  H    3.858779   3.795382   4.841306   2.436116   0.000000
 Symmetry turned off by external request.
 Stoichiometry    C2H5NO2
 Framework group  C1[X(C2H5NO2)]
 Deg. of freedom    24
 Full point group                 C1      NOp   1
 Rotational constants (GHZ):           9.4809098           3.7738645           3.0736873
 Leave Link  202 at Wed Nov 29 12:05:20 2023, MaxMem=   134217728 cpu:               0.0 elap:               0.0
 (Enter /home/emanuele/chem_software/gaussian//gdv/l9999.exe)
 Unable to Open any file for archive entry.
 1\1\GINC-EMANUELE-XPS-13-9343\FOpt\AMBER\ZDO\C2H5N1O2\EMANUELE\29-Nov-
 2023\0\\#p Amber=(SoftFirst,Print) geom=nocrowd nosymm opt=(maxcycle=3
 00)\\Title\\0,1\C,-0.6602657935,-0.1145727517,0.1227683309\O,-0.992986
 6401,1.003668842,-0.5564271038\C,0.7391337429,-0.5427614446,-0.2939404
 747\H,0.6798930803,-1.6228113905,-0.4772121422\H,0.9287875223,-0.16112
 61427,-1.3053719664\N,1.752895831,-0.1853873428,0.6920178952\H,1.39825
 51238,-0.0539874036,1.6303649907\H,2.6014817323,-0.7334807615,0.641676
 6878\O,-1.4963843183,-0.9607952267,0.2969762337\H,-1.6687852808,1.4476
 666222,-0.0259024512\\Version=ES64L-GDVRevJ.14\HF=0.0357895\RMSD=0.000
 e+00\RMSF=3.000e-05\Dipole=0.4957893,0.1844424,0.0488796\PG=C01 [X(C2H
 5N1O2)]\\@
 The archive entry for this job was punched.


 One man practicing sportsmanship is far better than 50 preaching it.
 -- Knute K. Rockne
 Job cpu time:       0 days  0 hours  0 minutes  0.9 seconds.
 Elapsed time:       0 days  0 hours  0 minutes  0.8 seconds.
 File lengths (MBytes):  RWF=      6 Int=      0 D2E=      0 Chk=      1 Scr=      1
 Normal termination of Gaussian DV at Wed Nov 29 12:05:20 2023.
