 Entering Gaussian System, Link 0=/home/emanuele/chem_software/gaussian//g09/g09
 Input=0_mm_20.gjf
 Output=0_mm_20.log
 Initial command:
 /home/emanuele/chem_software/gaussian//gdv/l1.exe "/home/emanuele/chem_software/gaussian/scratch/Gau-13788.inp" -scrdir="/home/emanuele/chem_software/gaussian/scratch/"
 Entering Link 1 = /home/emanuele/chem_software/gaussian//gdv/l1.exe PID=     13790.
  
 Copyright (c) 1988-2020, Gaussian, Inc.  All Rights Reserved.
  
 This is the private, development version of
 the Gaussian(R) DV system of programs. It is based on
 the Gaussian(R) 16 system (copyright 2016, Gaussian, Inc.),
 the Gaussian(R) 09 system (copyright 2009, Gaussian, Inc.),
 the Gaussian(R) 03 system (copyright 2003, Gaussian, Inc.),
 the Gaussian(R) 98 system (copyright 1998, Gaussian, Inc.),
 the Gaussian(R) 94 system (copyright 1995, Gaussian, Inc.),
 the Gaussian 92(TM) system (copyright 1992, Gaussian, Inc.),
 the Gaussian 90(TM) system (copyright 1990, Gaussian, Inc.),
 the Gaussian 88(TM) system (copyright 1988, Gaussian, Inc.),
 the Gaussian 86(TM) system (copyright 1986, Carnegie Mellon
 University), and the Gaussian 82(TM) system (copyright 1983,
 Carnegie Mellon University). Gaussian is a federally registered
 trademark of Gaussian, Inc.
  
 This software contains proprietary and confidential information,
 including trade secrets, belonging to Gaussian, Inc.
  
 This software is provided under written license and may be
 used, copied, transmitted, or stored only in accord with that
 written license.
  
 The following legend is applicable only to US Government
 contracts under FAR:
  
                    RESTRICTED RIGHTS LEGEND
  
 Use, reproduction and disclosure by the US Government is
 subject to restrictions as set forth in subparagraphs (a)
 and (c) of the Commercial Computer Software - Restricted
 Rights clause in FAR 52.227-19.
  
 Gaussian, Inc.
 340 Quinnipiac St., Bldg. 40, Wallingford CT 06492
  
  
 ---------------------------------------------------------------
 Warning -- This program may not be used in any manner that
 competes with the business of Gaussian, Inc. or will provide
 assistance to any competitor of Gaussian, Inc.  The licensee
 of this program is prohibited from giving any competitor of
 Gaussian, Inc. access to this program.  By using this program,
 the user acknowledges that Gaussian, Inc. is engaged in the
 business of creating and licensing software in the field of
 computational chemistry and represents and warrants to the
 licensee that it is not a competitor of Gaussian, Inc. and that
 it will not use this program in any manner prohibited above.
 ---------------------------------------------------------------
  

 Cite this work as:
 Gaussian Development Version, Revision J.14,
 M. J. Frisch, G. W. Trucks, H. B. Schlegel, G. E. Scuseria, 
 M. A. Robb, J. R. Cheeseman, G. Scalmani, V. Barone, 
 G. A. Petersson, H. Nakatsuji, X. Li, A. V. Marenich, M. Caricato, 
 J. Bloino, B. G. Janesko, J. Zheng, R. Gomperts, B. Mennucci, 
 H. P. Hratchian, J. V. Ortiz, A. F. Izmaylov, J. L. Sonnenberg, 
 D. Williams-Young, F. Ding, F. Lipparini, F. Egidi, J. Goings, 
 B. Peng, A. Petrone, T. Henderson, D. Ranasinghe, V. G. Zakrzewski, 
 J. Gao, N. Rega, G. Zheng, W. Liang, M. Hada, M. Ehara, K. Toyota, 
 R. Fukuda, J. Hasegawa, M. Ishida, T. Nakajima, Y. Honda, O. Kitao, 
 H. Nakai, T. Vreven, K. Throssell, J. A. Montgomery, Jr., 
 J. E. Peralta, F. Ogliaro, M. J. Bearpark, J. J. Heyd, 
 E. N. Brothers, K. N. Kudin, V. N. Staroverov, T. A. Keith, 
 R. Kobayashi, J. Normand, K. Raghavachari, A. P. Rendell, 
 J. C. Burant, S. S. Iyengar, J. Tomasi, M. Cossi, J. M. Millam, 
 M. Klene, C. Adamo, R. Cammi, J. W. Ochterski, R. L. Martin, 
 K. Morokuma, O. Farkas, J. B. Foresman, and D. J. Fox, 
 Gaussian, Inc., Wallingford CT, 2020.
 
 ******************************************
 Gaussian DV:  ES64L-GDVRevJ.14 29-Dec-2020
                29-Nov-2023 
 ******************************************
 %mem=1GB
 %nprocshared=1
 Will use up to    1 processors via shared memory.
 %chk=0_mm_20.chk
 -----------------------------------------------------------------
 #p Amber=(SoftFirst,Print) geom=nocrowd nosymm opt=(maxcycle=300)
 -----------------------------------------------------------------
 1/6=300,10=10,18=4000020,19=15,37=210000000,38=1,56=2,64=203/1,3;
 2/9=110,12=1,15=1,40=1/2;
 3/5=30,11=9,25=1,30=1,41=10030000,43=2,71=1/1;
 4/20=11,22=1001,24=3,119=11/2;
 7/30=1,44=-1/16;
 1/6=300,10=10,18=4000020,19=15,64=203/3(2);
 2/9=110,12=1,15=1/2;
 99//99;
 2/9=110,12=1,15=1/2;
 3/5=30,11=9,25=1,30=1,41=10030000,43=2,71=1/1;
 4/16=2,20=11,22=1001,24=3,119=11/2;
 7/30=1,44=-1/16;
 1/6=300,10=10,18=4000020,19=15,64=203/3(-4);
 2/9=110,12=1,15=1/2;
 99/9=10/99;
 Leave Link    1 at Wed Nov 29 12:05:12 2023, MaxMem=   134217728 cpu:               0.0 elap:               0.0
 (Enter /home/emanuele/chem_software/gaussian//gdv/l101.exe)
 -----
 Title
 -----
 Symbolic Z-matrix:
 Charge =  0 Multiplicity = 1
 C-C-+0.299289        -0.53624  -0.02124  -0.27744 
 O-OH--0.289770       -1.35264  -0.36572   0.77662 
 C-CT--0.035454        0.77199  -0.78391  -0.13936 
 H-HC-+0.090426        0.49017  -1.78827   0.27344 
 H-HC-+0.095387        0.92351  -1.19126  -1.17174 
 N-N3--0.336253        1.96026  -0.03286   0.30158 
 H-H-+0.142619         2.1046    0.79558  -0.27241 
 H-H-+0.128282         1.86926   0.2681    1.26782 
 O-O2--0.308037       -0.77446   1.00342  -0.86874 
 H-HO-+0.213510       -2.17441   0.19257   0.83517 
 
 ITRead=  3  3  3  3  3  3  3  3  3  3
 MicOpt=  0  0  0  0  0  0  0  0  0  0
 NAtoms=     10 NQM=        0 NQMF=       0 NMMI=      0 NMMIF=      0
                NMic=      10 NMicF=      0.
                    Isotopes and Nuclear Properties:
 (Nuclear quadrupole moments (NQMom) in fm**2, nuclear magnetic moments (NMagM)
  in nuclear magnetons)

  Atom         1           2           3           4           5           6           7           8           9          10
 IAtWgt=          12          16          12           1           1          14           1           1          16           1
 AtmWgt=  12.0000000  15.9949146  12.0000000   1.0078250   1.0078250  14.0030740   1.0078250   1.0078250  15.9949146   1.0078250
 NucSpn=           0           0           0           1           1           2           1           1           0           1
 AtZEff=  -0.0000000  -0.0000000  -0.0000000  -0.0000000  -0.0000000  -0.0000000  -0.0000000  -0.0000000  -0.0000000  -0.0000000
 NQMom=    0.0000000   0.0000000   0.0000000   0.0000000   0.0000000   2.0440000   0.0000000   0.0000000   0.0000000   0.0000000
 NMagM=    0.0000000   0.0000000   0.0000000   2.7928460   2.7928460   0.4037610   2.7928460   2.7928460   0.0000000   2.7928460
 AtZNuc=   6.0000000   8.0000000   6.0000000   1.0000000   1.0000000   7.0000000   1.0000000   1.0000000   8.0000000   1.0000000
 Generating MM parameters.
 I=    1 IAn=  6 Valence= 5.
          JB=  1 J=    2 IAn=  8 IBT=12 Dist= 1.38D+00
          JB=  2 J=    3 IAn=  6 IBT= 1 Dist= 1.52D+00
          JB=  3 J=    9 IAn=  8 IBT= 2 Dist= 1.21D+00
 I=    2 IAn=  8 Valence= 3.
          JB=  1 J=    1 IAn=  6 IBT=12 Dist= 1.38D+00
          JB=  2 J=   10 IAn=  1 IBT= 1 Dist= 9.95D-01
 Read MM parameter file:
 Include all MM classes

 MM sanity checks:
 All charges sum to:               -0.00000100
 Charges of atoms sum to:          -0.00000100
 WARNING -- The following centers have non-zero partial charges, but zero Vanderwaals
 parameters.  These centers can collapse onto other centers with non-zero charge.
   Center  Layer   Charge
     10 H    R    0.213510
 MMInit generated parameter data with length LenPar=        2069.
 MM Charge=             -0.0000 electrons
 MM Dipole moment (Debye):
    X=             -0.0402    Y=             -1.2344    Z=              0.3752  Tot=              1.2908
 MM Quadrupole moment (Debye-Ang):
   XX=              1.2028   YY=              0.7734   ZZ=              0.4224
   XY=              0.8264   XZ=             -1.4884   YZ=              2.3440
 MM Traceless Quadrupole moment (Debye-Ang):
   XX=              0.4033   YY=             -0.0261   ZZ=             -0.3771
   XY=              0.8264   XZ=             -1.4884   YZ=              2.3440
 MM Octapole moment (Debye-Ang**2):
  XXX=             -8.0547  YYY=             -4.2388  ZZZ=              1.3546  XYY=              3.5149
  XXY=              3.5884  XXZ=              2.3443  XZZ=              2.6502  YZZ=             -1.1721
  YYZ=              0.7512  XYZ=             -1.3142
 MM Hexadecapole moment (Debye-Ang**3):
 XXXX=             15.2652 YYYY=              4.0543 ZZZZ=              1.6068 XXXY=              3.5036
 XXXZ=             -7.3700 YYYX=             -0.0715 YYYZ=              1.4956 ZZZX=              0.4032
 ZZZY=              2.5164 XXYY=              1.8403 XXZZ=              4.8718 YYZZ=             -0.1123
 XXYZ=              2.8982 YYXZ=             -1.5265 ZZXY=              0.0267
 Leave Link  101 at Wed Nov 29 12:05:12 2023, MaxMem=   134217728 cpu:               0.3 elap:               0.2
 (Enter /home/emanuele/chem_software/gaussian//gdv/l103.exe)

 GradGradGradGradGradGradGradGradGradGradGradGradGradGradGradGradGradGrad
 Berny optimization.
 Initialization pass.
 No Z-matrix variables, so optimization will use Cartesian coordinates.
 Trust Radius=1.00D-01 FncErr=1.00D-07 GrdErr=1.00D-07 EigMax=2.50D+02 EigMin=1.00D-04
 Number of steps in this run=      2 maximum allowed number of steps=      2.
 GradGradGradGradGradGradGradGradGradGradGradGradGradGradGradGradGradGrad

 Leave Link  103 at Wed Nov 29 12:05:12 2023, MaxMem=   134217728 cpu:               0.0 elap:               0.0
 (Enter /home/emanuele/chem_software/gaussian//gdv/l202.exe)
                          Input orientation:                          
 ---------------------------------------------------------------------
 Center     Atomic      Atomic             Coordinates (Angstroms)
 Number     Number       Type             X           Y           Z
 ---------------------------------------------------------------------
      1          6    20001002       -0.536238   -0.021239   -0.277438
      2          8    20001022       -1.352643   -0.365721    0.776622
      3          6    20001001        0.771985   -0.783909   -0.139360
      4          1    20001034        0.490171   -1.788265    0.273439
      5          1    20001034        0.923507   -1.191256   -1.171736
      6          7    20001020        1.960255   -0.032863    0.301583
      7          1    20001029        2.104605    0.795576   -0.272408
      8          1    20001029        1.869257    0.268101    1.267824
      9          8    20001025       -0.774464    1.003422   -0.868740
     10          1    20001031       -2.174411    0.192567    0.835165
 ---------------------------------------------------------------------
                    Distance matrix (angstroms):
                    1          2          3          4          5
     1  C    0.000000
     2  O    1.377036   0.000000
     3  C    1.520585   2.351159   0.000000
     4  H    2.116450   2.381762   1.121853   0.000000
     5  H    2.073539   3.107807   1.120130   1.622569   0.000000
     6  N    2.562787   3.363294   1.473257   2.289842   2.141819
     7  H    2.764284   3.794949   2.070833   3.095251   2.480178
     8  H    2.873666   3.320188   2.071448   2.668206   2.995934
     9  O    1.206781   2.217219   2.473470   3.270687   2.791330
    10  H    1.991785   0.995196   3.253376   3.367377   3.942044
                    6          7          8          9         10
     6  N    0.000000
     7  H    1.018142   0.000000
     8  H    1.016111   1.644972   0.000000
     9  O    3.149957   2.947516   3.477767   0.000000
    10  H    4.175044   4.460977   4.067450   2.349602   0.000000
 Symmetry turned off by external request.
 Stoichiometry    C2H5NO2
 Framework group  C1[X(C2H5NO2)]
 Deg. of freedom    24
 Full point group                 C1      NOp   1
 Rotational constants (GHZ):           8.8748282           3.8292516           3.0951089
 Leave Link  202 at Wed Nov 29 12:05:12 2023, MaxMem=   134217728 cpu:               0.0 elap:               0.0
 (Enter /home/emanuele/chem_software/gaussian//gdv/l301.exe)
 Standard basis: Dummy (5D, 7F)
    10 basis functions,    10 primitive gaussians,    10 cartesian basis functions
     7 alpha electrons        7 beta electrons
       nuclear repulsion energy        22.5597451297 Hartrees.
 IExCor=       0 DFT=F Ex=HF Corr=None N6=None ScaHFX=  1.000000
 ScaDFX=  1.000000  1.000000  1.000000  1.000000  1.000000  0.000000
 ScaDFX=  0.000000  0.000000  0.000000  0.000000  0.000000  0.000000
 IRadAn=      5 IRanWt=     -1 IRanGd=            0 ICorTp=0 IEmpDi=  4
 NAtoms=   10 NActive=   10 NUniq=   10 SFac= 1.00D+00 NAtFMM=   60 NAOKFM=F Big=F
 Integral buffers will be    131072 words long.
 Raffenetti 1 integral format.
 Two-electron integral symmetry is turned off.
 Leave Link  301 at Wed Nov 29 12:05:12 2023, MaxMem=   134217728 cpu:               0.0 elap:               0.0
 (Enter /home/emanuele/chem_software/gaussian//gdv/l402.exe)
 AMBER calculation of energy and first derivatives.
 NRF= 0 NRA=   0 NVA=  10 HaveQM=F NVQ=       0
 Convergence limit is  0.750E-04 MaxStp= 10000 StMxLn= 3.00D-04 StpMin= 1.00D-06.
 Convergence criteria             0.00011250 0.00007500 0.00045000 0.00030000
  Step  NS  ND Rises OKQ   Scale  Max. Force  RMS Force Max. Disp.  RMS Disp.     Energy   Flag
     1   0   0   F    T  1.00D+00 0.04748544 0.01607232 0.04748544 0.01607232    0.0739052 ----
     2   0   0   F    F  6.03D-01 0.04748544 0.01607232 0.02863680 0.00969265    0.0685595 ----
     3   0   0   F    T  2.65D+00 0.02101686 0.00857942 0.05973323 0.02576497    0.0676741 ----
     4   0   0   F    F  5.48D-01 0.02101686 0.00857942 0.03272490 0.01411536    0.0637048 ----
     5   0   0   F    T  2.80D+00 0.02264629 0.00905381 0.09481278 0.03988033    0.0631356 ----
     6   0   0   F    F -4.59D-01 0.02264629 0.00905381 0.04352003 0.01830548    0.0626353 ----
     7   0   0   F    T  1.61D+00 0.02521542 0.00794035 0.04578015 0.02157485    0.0612686 ----
     8   0   0   F    F  5.59D-02 0.02521542 0.00794035 0.00255864 0.00120581    0.0596652 ----
     9   0   0   F    T  1.27D+00 0.01855539 0.00868895 0.06081326 0.02278067    0.0596607 ----
    10   0   0   F    F  1.21D+00 0.01855539 0.00868895 0.07365610 0.02759160    0.0573776 ----
    11   0   0   F    F -3.41D-02 0.01855539 0.00868895 0.00251420 0.00094182    0.0563688 ----
    12   0   0   F    T  5.06D+00 0.01910471 0.00635558 0.14768150 0.04943045    0.0563675 ----
    13   0   0   T    F  4.48D-01 0.01910471 0.00635558 0.06615147 0.02214154    0.0572281 ----
    14   0   0   F    T  2.86D+00 0.01114029 0.00519363 0.05565456 0.02214154    0.0549784 ----
    15   0   0   F    F  4.68D-01 0.01114029 0.00519363 0.02604974 0.01036359    0.0534144 ----
    16   0   0   F    T  3.40D+00 0.01241948 0.00548008 0.08415495 0.03250514    0.0532309 ----
    17   0   0   F    F -3.09D-01 0.01241948 0.00548008 0.02599086 0.01003906    0.0523882 ----
    18   0   0   F    T  3.01D+00 0.01207425 0.00450868 0.04891432 0.02246608    0.0521837 ----
    19   0   0   F    F -2.64D-01 0.01207425 0.00450868 0.01289742 0.00592371    0.0515939 ----
    20   0   0   F    T  1.71D+00 0.01213576 0.00475909 0.03471302 0.01654237    0.0515065 ----
    21   0   0   F    F -3.53D-01 0.01213576 0.00475909 0.01225250 0.00583889    0.0512426 ----
    22   0   0   F    T  2.30D+00 0.00560115 0.00293776 0.02575376 0.01070348    0.0511292 ----
    23   0   0   F    F  3.70D-01 0.00560115 0.00293776 0.00953818 0.00396415    0.0507520 ----
    24   0   0   F    T  2.94D+00 0.00681711 0.00277795 0.03242158 0.01466763    0.0507225 ----
    25   0   0   F    F  1.69D-02 0.00681711 0.00277795 0.00054860 0.00024819    0.0503752 ---+
    26   0   0   F    T  4.41D+00 0.00525226 0.00204412 0.03510396 0.01491582    0.0503751 ----
    27   0   0   T    F  4.08D-01 0.00525226 0.00204412 0.01431777 0.00608368    0.0504993 ----
    28   0   0   F    T  1.99D+00 0.00552923 0.00176273 0.01430880 0.00608368    0.0502624 ----
    29   0   0   F    F -2.93D-01 0.00552923 0.00176273 0.00419382 0.00178309    0.0502082 ----
    30   0   0   F    T  1.38D+00 0.00511920 0.00163683 0.00956252 0.00430059    0.0501970 ----
    31   0   0   F    F  5.48D-01 0.00511920 0.00163683 0.00523711 0.00235531    0.0501217 ----
    32   0   0   F    T  5.18D+00 0.00212090 0.00088896 0.01522457 0.00665590    0.0501109 ----
    33   0   0   F    F -2.01D-01 0.00212090 0.00088896 0.00305872 0.00133721    0.0500649 ----
    34   0   0   F    T  2.06D+00 0.00282165 0.00118937 0.01186360 0.00531868    0.0500618 ----
    35   0   0   F    F  4.01D-01 0.00282165 0.00118937 0.00475378 0.00213122    0.0500057 ----
    36   0   0   F    T  4.60D+00 0.00173113 0.00086852 0.02001530 0.00744990    0.0500007 ----
    37   0   0   T    F  3.99D-01 0.00173113 0.00086852 0.00798277 0.00297127    0.0500269 ----
    38   0   0   F    T  1.08D+00 0.00321565 0.00108252 0.00777015 0.00297127    0.0499799 ----
    39   0   0   F    F  1.28D+00 0.00321565 0.00108252 0.00992990 0.00379715    0.0499503 ----
    40   0   0   F    T  1.96D+00 0.00275837 0.00117198 0.01896406 0.00676842    0.0499367 ----
    41   0   0   F    F  2.52D-01 0.00275837 0.00117198 0.00478406 0.00170747    0.0498879 ----
    42   0   0   F    T  3.78D+00 0.00201359 0.00090753 0.02286318 0.00847589    0.0498858 ----
    43   0   0   F    T  3.63D+00 0.00167182 0.00089545 0.02258586 0.00847589    0.0498388 ----
    44   0   0   F    F -1.71D-01 0.00167182 0.00089545 0.00385479 0.00144660    0.0498037 ----
    45   0   0   F    T  2.68D+00 0.00224202 0.00090853 0.01560083 0.00702929    0.0498021 ----
    46   0   0   F    F  1.84D-01 0.00224202 0.00090853 0.00287141 0.00129378    0.0497638 ----
    47   0   0   F    T  1.38D+00 0.00402540 0.00136447 0.01691643 0.00832306    0.0497629 ----
    48   0   0   F    F -2.56D-02 0.00402540 0.00136447 0.00043248 0.00021278    0.0497253 --++
    49   0   0   F    T  2.99D+00 0.00214563 0.00088971 0.01581448 0.00811028    0.0497253 ----
    50   0   0   F    F -2.34D-01 0.00214563 0.00088971 0.00370376 0.00189943    0.0497007 ----
    51   0   0   F    T  2.96D+00 0.00164378 0.00075716 0.01365347 0.00621085    0.0496981 ----
    52   0   0   F    F  5.12D-01 0.00164378 0.00075716 0.00698934 0.00317939    0.0496640 ----
    53   0   0   F    T  4.42D+00 0.00140655 0.00074330 0.02080350 0.00939024    0.0496596 ----
    54   0   0   F    F -4.87D-02 0.00140655 0.00074330 0.00101287 0.00045719    0.0496248 ----
    55   0   0   F    T  2.10D+00 0.00232781 0.00103983 0.02043179 0.00893305    0.0496247 ----
    56   0   0   F    F  3.52D-01 0.00232781 0.00103983 0.00720187 0.00314876    0.0495822 ----
    57   0   0   F    T  1.16D+00 0.00515061 0.00160818 0.02813335 0.01208181    0.0495791 ----
    58   0   0   F    F  4.51D-01 0.00515061 0.00160818 0.01267545 0.00544345    0.0495195 ----
    59   0   0   F    T  4.02D+00 0.00282389 0.00102792 0.03973136 0.01752525    0.0495130 ----
    60   0   0   F    F -4.87D-01 0.00282389 0.00102792 0.01935863 0.00853897    0.0495100 ----
    61   0   0   F    T  3.02D+00 0.00247569 0.00085044 0.02086570 0.00898628    0.0494803 ----
    62   0   0   F    F  8.21D-01 0.00247569 0.00085044 0.01713833 0.00738101    0.0494328 ----
    63   0   0   F    T  6.22D+00 0.00184760 0.00077653 0.03732868 0.01636729    0.0494207 ----
    64   0   0   T    F  4.79D-01 0.00184760 0.00077653 0.01788025 0.00783985    0.0494251 ----
    65   0   0   F    T  2.28D+00 0.00214389 0.00086907 0.01938474 0.00783985    0.0493939 ----
    66   0   0   F    F  1.51D-01 0.00214389 0.00086907 0.00291805 0.00118016    0.0493643 ----
    67   0   0   F    T  2.12D+00 0.00242210 0.00095930 0.02311448 0.00902001    0.0493638 ----
    68   0   0   F    F -3.57D-01 0.00242210 0.00095930 0.00824353 0.00321689    0.0493507 ----
    69   0   0   F    T  1.62D+00 0.00199087 0.00086085 0.01547584 0.00580312    0.0493451 ----
    70   0   0   F    F  1.04D+00 0.00199087 0.00086085 0.01616328 0.00606089    0.0493178 ----
    71   0   0   F    T  3.91D+00 0.00184643 0.00075782 0.03039896 0.01186401    0.0493080 ----
    72   0   0   F    F -4.24D-01 0.00184643 0.00075782 0.01289157 0.00503128    0.0492992 ----
    73   0   0   F    T  4.12D+00 0.00155144 0.00054869 0.01575007 0.00683273    0.0492887 ----
    74   0   0   F    F -3.79D-01 0.00155144 0.00054869 0.00597483 0.00259201    0.0492814 ----
    75   0   0   F    T  1.93D+00 0.00205082 0.00061997 0.01122046 0.00424072    0.0492771 ----
    76   0   0   F    F -3.81D-01 0.00205082 0.00061997 0.00426999 0.00161382    0.0492728 ----
    77   0   0   F    T  2.56D+00 0.00092771 0.00040412 0.00632723 0.00262689    0.0492702 ----
    78   0   0   F    F -1.99D-01 0.00092771 0.00040412 0.00126173 0.00052383    0.0492655 ----
    79   0   0   F    T  2.65D+00 0.00074397 0.00033778 0.00562018 0.00210306    0.0492652 ----
    80   0   0   F    F  4.77D-01 0.00074397 0.00033778 0.00267824 0.00100219    0.0492592 ----
    81   0   0   F    T  5.62D+00 0.00075888 0.00026395 0.00997852 0.00310525    0.0492585 ----
    82   0   0   T    F  2.53D-01 0.00075888 0.00026395 0.00252482 0.00078571    0.0492700 ----
    83   0   0   F    T  1.98D+00 0.00064056 0.00020678 0.00204392 0.00078571    0.0492570 ----
    84   0   0   F    F -3.80D-01 0.00064056 0.00020678 0.00077571 0.00029819    0.0492565 ---+
    85   0   0   F    T  2.13D+00 0.00030783 0.00013993 0.00142628 0.00048751    0.0492562 ----
    86   0   0   F    F  4.06D-01 0.00030783 0.00013993 0.00057973 0.00019816    0.0492554 ---+
    87   0   0   F    T  2.78D+00 0.00031741 0.00013299 0.00162364 0.00068567    0.0492554 ----
    88   0   0   F    T  2.87D+00 0.00028285 0.00011973 0.00202836 0.00068567    0.0492547 ----
    89   0   0   F    F -2.21D-01 0.00028285 0.00011973 0.00044768 0.00015133    0.0492542 --++
    90   0   0   F    T  1.45D+00 0.00039915 0.00014615 0.00171801 0.00053434    0.0492542 ----
    91   0   0   F    T  2.45D+00 0.00020988 0.00010735 0.00184480 0.00053434    0.0492537 ----
    92   0   0   F    F  6.63D-01 0.00020988 0.00010735 0.00122232 0.00035404    0.0492531 ----
    93   0   0   F    T  1.75D+00 0.00037425 0.00015357 0.00311216 0.00088837    0.0492529 ----
    94   0   0   F    F  4.84D-01 0.00037425 0.00015357 0.00150562 0.00042978    0.0492521 ----
    95   0   0   F    T  2.98D+00 0.00045231 0.00014846 0.00469234 0.00131816    0.0492520 ----
    96   0   0   T    F  4.54D-01 0.00045231 0.00014846 0.00212875 0.00059800    0.0492522 ----
    97   0   0   F    T  1.53D+00 0.00039446 0.00013506 0.00213043 0.00059800    0.0492516 ----
    98   0   0   F    F  1.25D+00 0.00039446 0.00013506 0.00266323 0.00074756    0.0492509 ----
    99   0   0   F    T  2.70D+00 0.00029260 0.00014905 0.00441391 0.00134556    0.0492506 ----
   100   0   0   F    F -2.38D-01 0.00029260 0.00014905 0.00104973 0.00032001    0.0492500 ----
   101   0   0   F    T  2.07D+00 0.00037125 0.00014491 0.00307894 0.00102556    0.0492500 ----
   102   0   0   F    F  3.32D-01 0.00037125 0.00014491 0.00102123 0.00034016    0.0492491 ----
   103   0   0   F    T  1.00D+00 0.00055680 0.00024242 0.00415231 0.00140252    0.0492491 ----
   104   0   0   F    F  6.17D+00 0.00055680 0.00024242 0.02562912 0.00865671    0.0492474 ----
   105   0   0   F    F -1.60D-02 0.00055680 0.00024242 0.00040916 0.00013820    0.0492425 --++
   106   0   0   F    T  1.29D+00 0.00131061 0.00057725 0.02969755 0.00992103    0.0492425 ----
   107   0   0   F    F  2.64D+00 0.00131061 0.00057725 0.07845255 0.02620856    0.0492311 ----
   108   0   0   F    F -3.26D-01 0.00131061 0.00057725 0.02556922 0.00854188    0.0492244 ----
   109   0   0   F    F -1.27D-02 0.00131061 0.00057725 0.00032565 0.00010879    0.0492208 --++
   110   0   0   F    T  1.76D+00 0.00201836 0.00102956 0.08465343 0.02769649    0.0492208 ----
   111   0   0   F    F  2.80D-01 0.00201836 0.00102956 0.02366282 0.00774189    0.0491765 ----
   112   0   0   F    F -8.90D-02 0.00201836 0.00102956 0.00210652 0.00068920    0.0491735 ----
   113   0   0   F    T  1.37D+00 0.00478649 0.00182119 0.10907399 0.03474918    0.0491734 ----
   114   0   0   F    F  1.32D-01 0.00478649 0.00182119 0.01441919 0.00459372    0.0490729 ----
   115   0   0   F    F -3.95D-02 0.00478649 0.00182119 0.00056941 0.00018140    0.0490708 ---+
   116   0   0   F    T  1.44D+00 0.00763687 0.00296528 0.12700520 0.03916149    0.0490708 ----
   117   0   0   F    F  5.23D-01 0.00763687 0.00296528 0.06646362 0.02049376    0.0487689 ----
   118   0   0   F    F -1.68D-01 0.00763687 0.00296528 0.01116121 0.00344151    0.0487256 ----
   119   0   0   F    T  2.56D+00 0.01389069 0.00438145 0.18713197 0.05621374    0.0487233 ----
   120   0   0   F    F  4.92D+00 0.01389069 0.00438145 0.91989925 0.27633427    0.0476235 ----
   121   0   0   T    F  1.22D-01 0.01389069 0.00438145 0.11193325 0.03362433    0.1081914 ----
   122   0   0   F    F  2.20D-01 0.01389069 0.00438145 0.02463623 0.00740063    0.0472975 ----
   123   0   0   F    F -3.53D-02 0.01389069 0.00438145 0.00086974 0.00026127    0.0472841 ---+
   124   0   0   F    T  6.12D+00 0.01761166 0.00560494 0.30026912 0.09697743    0.0472841 ----
   125   0   0   F    F -4.98D-01 0.01761166 0.00560494 0.14958107 0.04830996    0.0471127 ----
   126   0   0   F    T  1.01D+00 0.02522509 0.00942958 0.14843622 0.04866747    0.0459206 ----
   127   0   0   F    F  1.45D+00 0.02522509 0.00942958 0.21592281 0.07079416    0.0437403 ----
   128   0   0   F    F -3.20D-01 0.02522509 0.00942958 0.06905131 0.02263971    0.0430961 ----
   129   0   0   F    F -8.56D-03 0.02522509 0.00942958 0.00059114 0.00019382    0.0428172 ---+
   130   0   0   F    T  2.95D+00 0.01446081 0.00717606 0.28719024 0.09701574    0.0428172 ----
   131   0   0   F    F -4.46D-01 0.01446081 0.00717606 0.12820543 0.04330908    0.0426319 ----
   132   0   0   F    F -5.68D-03 0.01446081 0.00717606 0.00072781 0.00024586    0.0414666 ---+
   133   0   0   F    T  3.26D+00 0.02170769 0.00702149 0.18369930 0.05395252    0.0414666 ----
   134   0   0   F    F -2.46D-01 0.02170769 0.00702149 0.04514731 0.01325977    0.0399083 ----
   135   0   0   F    T  2.49D+00 0.01850301 0.00611266 0.14409350 0.04069275    0.0397550 ----
   136   0   0   F    F -3.07D-02 0.01850301 0.00611266 0.00443039 0.00125116    0.0384225 ----
   137   0   0   F    T  2.04D+00 0.01428923 0.00593052 0.14333493 0.03944159    0.0384213 ----
   138   0   0   F    F -3.38D-01 0.01428923 0.00593052 0.04844444 0.01333049    0.0378957 ----
   139   0   0   F    T  1.86D+00 0.01201585 0.00478269 0.09262955 0.02611109    0.0377084 ----
   140   0   0   F    F -2.94D-01 0.01201585 0.00478269 0.02721566 0.00767175    0.0373343 ----
   141   0   0   F    T  4.62D+00 0.00632544 0.00233673 0.04960780 0.01843934    0.0372555 ----
   142   0   0   T    F  4.39D-01 0.00632544 0.00233673 0.02180152 0.00810368    0.0373582 ----
   143   0   0   F    T  1.36D+00 0.00765970 0.00269429 0.01928631 0.00810368    0.0370895 ----
   144   0   0   F    F -4.74D-02 0.00765970 0.00269429 0.00091394 0.00038402    0.0369493 ----
   145   0   0   F    T  1.76D+00 0.00473929 0.00214440 0.01907863 0.00771966    0.0369490 ----
   146   0   0   F    F  2.42D-01 0.00473929 0.00214440 0.00461263 0.00186638    0.0368039 ----
   147   0   0   F    T  2.82D+00 0.00446075 0.00174325 0.02520493 0.00958604    0.0367982 ----
   148   0   0   F    F -4.35D-01 0.00446075 0.00174325 0.01095222 0.00416539    0.0367686 ----
   149   0   0   F    T  1.54D+00 0.00440568 0.00167080 0.01410820 0.00542065    0.0367253 ----
   150   0   0   F    F -2.65D-01 0.00440568 0.00167080 0.00373664 0.00143569    0.0366841 ----
   151   0   0   F    T  2.24D+00 0.00252260 0.00106362 0.00868245 0.00398496    0.0366780 ----
   152   0   0   F    F  7.72D-02 0.00252260 0.00106362 0.00066986 0.00030745    0.0366372 ----
   153   0   0   F    T  2.11D+00 0.00239618 0.00104934 0.01037984 0.00429240    0.0366370 ----
   154   0   0   F    F -1.75D-01 0.00239618 0.00104934 0.00181557 0.00075080    0.0366095 ----
   155   0   0   F    T  1.19D+00 0.00341698 0.00121093 0.00811833 0.00354161    0.0366082 ----
   156   0   0   F    F  3.29D-01 0.00341698 0.00121093 0.00266805 0.00116393    0.0365755 ----
   157   0   0   F    T  2.14D+00 0.00185055 0.00098190 0.01221916 0.00470554    0.0365734 ----
   158   0   0   F    F  2.59D-01 0.00185055 0.00098190 0.00316173 0.00121757    0.0365358 ----
   159   0   0   F    T  2.42D+00 0.00242762 0.00099549 0.01391171 0.00592311    0.0365342 ----
   160   0   0   T    F  4.88D-01 0.00242762 0.00099549 0.00679518 0.00289314    0.0365359 ----
   161   0   0   F    T  1.46D+00 0.00212721 0.00085539 0.00679021 0.00289314    0.0365166 ----
   162   0   0   F    F  3.39D-01 0.00212721 0.00085539 0.00229948 0.00097975    0.0364966 ----
   163   0   0   F    T  1.91D+00 0.00203271 0.00082303 0.00949744 0.00387289    0.0364953 ----
   164   0   0   F    F  3.62D-01 0.00203271 0.00082303 0.00343420 0.00140041    0.0364707 ----
   165   0   0   F    T  1.95D+00 0.00222428 0.00091882 0.01467810 0.00527330    0.0364688 ----
   166   0   0   F    F -2.30D-01 0.00222428 0.00091882 0.00337127 0.00121117    0.0364515 ----
   167   0   0   F    T  1.43D+00 0.00254894 0.00091682 0.01198254 0.00406213    0.0364498 ----
   168   0   0   F    F  3.54D-02 0.00254894 0.00091682 0.00042377 0.00014366    0.0364311 --++
   169   0   0   F    T  3.09D+00 0.00143781 0.00060454 0.01134877 0.00420578    0.0364311 ----
   170   0   0   F    F -2.64D-01 0.00143781 0.00060454 0.00300118 0.00111222    0.0364203 ----
   171   0   0   F    T  2.08D+00 0.00168875 0.00060289 0.00841384 0.00309357    0.0364187 ----
   172   0   0   F    F -4.70D-01 0.00168875 0.00060289 0.00395751 0.00145508    0.0364174 ----
   173   0   0   F    T  1.60D+00 0.00099752 0.00047133 0.00471795 0.00163849    0.0364127 ----
   174   0   0   F    F  1.53D-01 0.00099752 0.00047133 0.00072079 0.00025032    0.0364066 ---+
   175   0   0   F    T  3.58D+00 0.00072907 0.00030691 0.00541714 0.00188881    0.0364065 ----
   176   0   0   T    F  4.91D-01 0.00072907 0.00030691 0.00265934 0.00092724    0.0364067 ----
   177   0   0   F    T  1.36D+00 0.00087829 0.00032693 0.00249340 0.00092724    0.0364040 ----
   178   0   0   F    T  1.65D+00 0.00070131 0.00027678 0.00232749 0.00092724    0.0364019 ----
   179   0   0   F    F  4.62D-01 0.00070131 0.00027678 0.00107431 0.00042799    0.0363994 ----
   180   0   0   F    T  2.26D+00 0.00064500 0.00026960 0.00363617 0.00135523    0.0363991 ----
   181   0   0   F    F -1.01D-01 0.00064500 0.00026960 0.00036789 0.00013712    0.0363969 --++
   182   0   0   F    T  1.31D+00 0.00078243 0.00032510 0.00280125 0.00121811    0.0363969 ----
   183   0   0   F    T  1.98D+00 0.00053214 0.00026484 0.00308864 0.00121811    0.0363946 ----
   184   0   0   F    F  7.53D-01 0.00053214 0.00026484 0.00232669 0.00091761    0.0363914 ----
   185   0   0   F    T  1.93D+00 0.00064685 0.00032920 0.00537590 0.00213572    0.0363907 ----
   186   0   0   F    F -2.00D-01 0.00064685 0.00032920 0.00107358 0.00042651    0.0363884 ----
   187   0   0   F    T  1.29D+00 0.00110699 0.00036237 0.00414581 0.00170921    0.0363882 ----
   188   0   0   F    F  4.92D-01 0.00110699 0.00036237 0.00204147 0.00084165    0.0363848 ----
   189   0   0   F    T  2.05D+00 0.00117167 0.00034440 0.00620622 0.00255086    0.0363844 ----
   190   0   0   F    F  7.63D-02 0.00117167 0.00034440 0.00047371 0.00019470    0.0363805 ---+
   191   0   0   F    T  2.18D+00 0.00097221 0.00033897 0.00726896 0.00274557    0.0363805 ----
   192   0   0   F    T  1.00D+00 0.00131474 0.00050283 0.00769611 0.00286737    0.0363769 ----
   193   0   0   F    F  8.61D-01 0.00131474 0.00050283 0.00662760 0.00246927    0.0363715 ----
   194   0   0   F    T  4.75D+00 0.00079932 0.00034918 0.01255943 0.00533663    0.0363700 ----
   195   0   0   T    F  3.69D-01 0.00079932 0.00034918 0.00462841 0.00196666    0.0363763 ----
   196   0   0   F    T  1.51D+00 0.00097698 0.00036751 0.00541536 0.00196666    0.0363668 ----
   197   0   0   F    F -1.58D-01 0.00097698 0.00036751 0.00085787 0.00031155    0.0363644 ----
   198   0   0   F    T  2.05D+00 0.00084090 0.00027951 0.00400099 0.00165511    0.0363643 ----
   199   0   0   F    T  2.04D+00 0.00075076 0.00027269 0.00324946 0.00165511    0.0363618 ----
   200   0   0   F    F  1.10D-01 0.00075076 0.00027269 0.00035672 0.00018170    0.0363593 --++
   201   0   0   F    T  1.73D+00 0.00080732 0.00030404 0.00485254 0.00183681    0.0363593 ----
   202   0   0   F    F -3.91D-01 0.00080732 0.00030404 0.00189845 0.00071861    0.0363584 ----
   203   0   0   F    T  2.03D+00 0.00052719 0.00021203 0.00292904 0.00111820    0.0363578 ----
   204   0   0   F    F  5.91D-01 0.00052719 0.00021203 0.00173018 0.00066052    0.0363560 ----
   205   0   0   F    T  2.81D+00 0.00063182 0.00021985 0.00362192 0.00177872    0.0363557 ----
   206   0   0   T    F  4.40D-01 0.00063182 0.00021985 0.00159276 0.00078220    0.0363562 ----
   207   0   0   F    T  1.26D+00 0.00068021 0.00021070 0.00170792 0.00078220    0.0363548 ----
   208   0   0   F    F  7.59D-01 0.00068021 0.00021070 0.00129565 0.00059339    0.0363536 ----
   209   0   0   F    T  1.99D+00 0.00066791 0.00021712 0.00295972 0.00137559    0.0363533 ----
   210   0   0   F    F  1.23D-01 0.00066791 0.00021712 0.00036536 0.00016981    0.0363517 --++
   211   0   0   F    T  2.28D+00 0.00061596 0.00020954 0.00338187 0.00154540    0.0363517 ----
   212   0   0   F    F -4.48D-01 0.00061596 0.00020954 0.00151557 0.00069256    0.0363514 ----
   213   0   0   F    T  1.40D+00 0.00052038 0.00019401 0.00176534 0.00085284    0.0363509 ----
   214   0   0   F    F  3.93D-01 0.00052038 0.00019401 0.00069300 0.00033479    0.0363499 ----
   215   0   0   F    T  2.51D+00 0.00037057 0.00016534 0.00251849 0.00118762    0.0363498 ----
   216   0   0   F    F  3.42D-01 0.00037057 0.00016534 0.00086196 0.00040647    0.0363485 ----
   217   0   0   F    T  1.15D+00 0.00089902 0.00027971 0.00345251 0.00159409    0.0363484 ----
   218   0   0   F    F  2.49D-01 0.00089902 0.00027971 0.00085946 0.00039683    0.0363468 ----
   219   0   0   F    T  2.03D+00 0.00047709 0.00023297 0.00415277 0.00199092    0.0363467 ----
   220   0   0   F    F -1.07D-01 0.00047709 0.00023297 0.00044481 0.00021325    0.0363452 --++
   221   0   0   F    T  3.32D+00 0.00045575 0.00016743 0.00403346 0.00177767    0.0363452 ----
   222   0   0   T    F  4.77D-01 0.00045575 0.00016743 0.00192220 0.00084717    0.0363454 ----
   223   0   0   F    T  1.47D+00 0.00045412 0.00016982 0.00160499 0.00084717    0.0363446 ----
   224   0   0   F    T  1.72D+00 0.00039807 0.00015069 0.00191582 0.00084717    0.0363439 ----
   225   0   0   F    F  3.88D-01 0.00039807 0.00015069 0.00074405 0.00032902    0.0363432 ----
   226   0   0   F    T  2.51D+00 0.00032480 0.00014832 0.00305057 0.00117620    0.0363431 ----
   227   0   0   F    F -3.53D-01 0.00032480 0.00014832 0.00107667 0.00041513    0.0363428 ----
   228   0   0   F    T  1.43D+00 0.00040525 0.00015360 0.00153709 0.00076107    0.0363426 ----
   229   0   0   F    T  1.91D+00 0.00029699 0.00012403 0.00160020 0.00076107    0.0363421 ----
   230   0   0   F    F  5.35D-01 0.00029699 0.00012403 0.00085589 0.00040707    0.0363416 ----
   231   0   0   F    T  4.04D+00 0.00036194 0.00011339 0.00310068 0.00116814    0.0363415 ----
   232   0   0   T    F  1.90D-01 0.00036194 0.00011339 0.00058868 0.00022178    0.0363441 ---+
   233   0   0   F    T  2.35D+00 0.00011520 0.00005681 0.00054748 0.00022178    0.0363414 -+-+
   234   0   0   F    T  1.84D+00 0.00013140 0.00005446 0.00051286 0.00022178    0.0363413 -+-+
   235   0   0   F    T  2.33D+00 0.00013554 0.00006372 0.00043659 0.00022178    0.0363413 -+++
   236   0   0   F    T  1.20D+00 0.00018291 0.00007854 0.00040435 0.00022178    0.0363412 --++
   237   0   0   T    T  1.00D+00 0.00021548 0.00008640 0.00021548 0.00008640    0.0363413 --++
   238   0   0   F    T  1.25D+00 0.00013622 0.00006046 0.00022498 0.00008640    0.0363412 -+++
   239   0   0   T    T  1.00D+00 0.00024115 0.00010451 0.00024115 0.00010451    0.0363413 --++
   240   0   0   T    F  5.00D-01 0.00024115 0.00010451 0.00012058 0.00005225    0.0363415 --++
   241   0   0   T    F  5.00D-01 0.00024115 0.00010451 0.00006029 0.00002613    0.0363413 --++
   242   0   0   T    F  5.00D-01 0.00024115 0.00010451 0.00003014 0.00001306    0.0363412 --++
   243   0   0   T    F  5.00D-01 0.00024115 0.00010451 0.00001507 0.00000653    0.0363412 --++
   244   0   0   T    F  5.00D-01 0.00024115 0.00010451 0.00000754 0.00000327    0.0363412 --++
   245   0   0   T    F  5.00D-01 0.00024115 0.00010451 0.00000377 0.00000163    0.0363412 --++
   246   0   0   T    F  5.00D-01 0.00024115 0.00010451 0.00000188 0.00000082    0.0363412 --++
   247   0   0   T    F  5.00D-01 0.00024115 0.00010451 0.00000094 0.00000041    0.0363412 --++
   248   0   0   T    T  1.00D+00 0.00013803 0.00006074 0.00012390 0.00006016    0.0363412 -+++
   249   0   0   F    T  1.27D+00 0.00009428 0.00003148 0.00014125 0.00006016    0.0363412 ====
 ****************************
 MOLECULAR MECHANICS FUNCTION
 ****************************
 Atomic parameters:
 Center  VDW
      1 1.9080 0.0860000
      2 1.7210 0.2104000
      3 1.9080 0.1094000
      4 1.4870 0.0157000
      5 1.4870 0.0157000
      6 1.8750 0.1700000
      7 0.6000 0.0157000
      8 0.6000 0.0157000
      9 1.6612 0.2100000
     10 0.0000 0.0000000
 Molecular mechanics terms:
 NBDir 3 1      0      0
 HrmStr1  1- 2  431.53 1.3510
 HrmStr1  1- 3  294.15 1.5090
 HrmStr1  1- 9  946.08 1.2030
 HrmStr1  2-10  566.76 0.9680
 HrmStr1  3- 4  358.05 1.0960
 HrmStr1  3- 5  358.05 1.0960
 HrmStr1  3- 6  380.82 1.4520
 HrmStr1  6- 7  506.01 1.0110
 HrmStr1  6- 8  506.01 1.0110
 HrmBnd1  1- 2-10  56.55 107.23
 HrmBnd1  1- 3- 4  46.41 106.89
 HrmBnd1  1- 3- 5  46.41 106.89
 HrmBnd1  1- 3- 6  59.93 110.61
 HrmBnd1  2- 1- 3  67.92 111.72
 HrmBnd1  2- 1- 9  91.40 123.02
 HrmBnd1  3- 1- 9  62.83 125.24
 HrmBnd1  3- 6- 7  52.60 110.71
 HrmBnd1  3- 6- 8  52.60 110.71
 HrmBnd1  4- 3- 5  44.68 106.22
 HrmBnd1  4- 3- 6  52.45 112.94
 HrmBnd1  5- 3- 6  52.45 112.94
 HrmBnd1  7- 6- 8  47.09 108.63
 AmbTrs  3- 1- 2-10   0 180   0   0  0.0000 14.5000  0.0000  0.0000  2.0
 AmbTrs  9- 1- 2-10   0   0   0   0  0.0000 14.5000  0.0000  0.0000  2.0
 AmbTrs  2- 1- 3- 4   0   0   0   0  0.0000 14.5000  0.0000  0.0000  6.0
 AmbTrs  2- 1- 3- 5   0   0   0   0  0.0000 14.5000  0.0000  0.0000  6.0
 AmbTrs  2- 1- 3- 6   0   0   0   0  0.0000 14.5000  0.0000  0.0000  6.0
 AmbTrs  9- 1- 3- 4   0   0   0   0  0.0000 14.5000  0.0000  0.0000  6.0
 AmbTrs  9- 1- 3- 5   0   0   0   0  0.0000 14.5000  0.0000  0.0000  6.0
 AmbTrs  9- 1- 3- 6   0   0   0   0  0.0000 14.5000  0.0000  0.0000  6.0
 AmbTrs  1- 3- 6- 7   0 180   0   0  0.0000 25.6300  0.0000  0.0000  6.0
 AmbTrs  1- 3- 6- 8   0 180   0   0  0.0000 25.6300  0.0000  0.0000  6.0
 AmbTrs  4- 3- 6- 7   0   0   0   0  0.0000  0.0000  0.0000  0.0000  6.0
 AmbTrs  4- 3- 6- 8   0   0   0   0  0.0000  0.0000  0.0000  0.0000  6.0
 AmbTrs  5- 3- 6- 7   0   0   0   0  0.0000  0.0000  0.0000  0.0000  6.0
 AmbTrs  5- 3- 6- 8   0   0   0   0  0.0000  0.0000  0.0000  0.0000  6.0
 NBPair  2- 1 3 1      0      0 -1.000 -1.000
 NBPair  3- 2 3 1      0      0 -1.000 -1.000
 NBPair 10- 3 3 1      0      0 -0.500 -0.167
 NBPair  9- 2 3 1      0      0 -1.000 -1.000
 NBPair 10- 9 3 1      0      0 -0.500 -0.167
 NBPair  3- 1 3 1      0      0 -1.000 -1.000
 NBPair  4- 2 3 1      0      0 -0.500 -0.167
 NBPair  5- 2 3 1      0      0 -0.500 -0.167
 NBPair  6- 2 3 1      0      0 -0.500 -0.167
 NBPair  9- 3 3 1      0      0 -1.000 -1.000
 NBPair  9- 4 3 1      0      0 -0.500 -0.167
 NBPair  9- 5 3 1      0      0 -0.500 -0.167
 NBPair  9- 6 3 1      0      0 -0.500 -0.167
 NBPair  9- 1 3 1      0      0 -1.000 -1.000
 NBPair 10- 1 3 1      0      0 -1.000 -1.000
 NBPair 10- 2 3 1      0      0 -1.000 -1.000
 NBPair  4- 1 3 1      0      0 -1.000 -1.000
 NBPair  5- 1 3 1      0      0 -1.000 -1.000
 NBPair  6- 1 3 1      0      0 -1.000 -1.000
 NBPair  4- 3 3 1      0      0 -1.000 -1.000
 NBPair  5- 4 3 1      0      0 -1.000 -1.000
 NBPair  6- 4 3 1      0      0 -1.000 -1.000
 NBPair  5- 3 3 1      0      0 -1.000 -1.000
 NBPair  6- 5 3 1      0      0 -1.000 -1.000
 NBPair  6- 3 3 1      0      0 -1.000 -1.000
 NBPair  7- 1 3 1      0      0 -0.500 -0.167
 NBPair  8- 1 3 1      0      0 -0.500 -0.167
 NBPair  7- 4 3 1      0      0 -0.500 -0.167
 NBPair  8- 4 3 1      0      0 -0.500 -0.167
 NBPair  7- 5 3 1      0      0 -0.500 -0.167
 NBPair  8- 5 3 1      0      0 -0.500 -0.167
 NBPair  7- 3 3 1      0      0 -1.000 -1.000
 NBPair  8- 3 3 1      0      0 -1.000 -1.000
 NBPair  7- 6 3 1      0      0 -1.000 -1.000
 NBPair  8- 7 3 1      0      0 -1.000 -1.000
 NBPair  8- 6 3 1      0      0 -1.000 -1.000
 Energy per function type:
 Direct Coulomb + vdW (small)                           0.002777189
 Direct Coulomb (large)                                -0.129726488
 Direct vdW (large)                                   269.754940221
 Non-direct Coulomb + vdW (small)                      -0.012437770
 Non-direct Coulomb (large)                             0.137787341
 Non-direct vdW (large)                              -269.754940221
 Harmonic stretch I                                     0.000104873
 Harmonic bend I                                        0.004729018
 Amber torsion                                          0.033106999
 Energy per function class:
        Coulomb              -0.002750502
    Vanderwaals               0.001150773
     Stretching               0.000104873
        Bending               0.004729018
        Torsion               0.033106999
 Energy=    3.634116112E-02 NIter=   0.
 Dipole moment=      -0.038856      -0.806196       0.458341
 Leave Link  402 at Wed Nov 29 12:05:12 2023, MaxMem=   134217728 cpu:               0.4 elap:               0.4
 (Enter /home/emanuele/chem_software/gaussian//gdv/l716.exe)
 Dipole        =-3.88556122D-02-8.06195751D-01 4.58341149D-01
 -------------------------------------------------------------------
 Center     Atomic                   Forces (Hartrees/Bohr)
 Number     Number              X              Y              Z
 -------------------------------------------------------------------
      1        6           0.000002542    0.000062874   -0.000094283
      2        8          -0.000012203    0.000020164    0.000030620
      3        6           0.000041613   -0.000001867    0.000024827
      4        1           0.000003993   -0.000002892   -0.000028527
      5        1           0.000001104   -0.000001748   -0.000003709
      6        7          -0.000035587   -0.000015933    0.000034804
      7        1           0.000014568   -0.000008253   -0.000012677
      8        1          -0.000018193    0.000011892   -0.000009613
      9        8          -0.000013431   -0.000068059    0.000058119
     10        1           0.000015594    0.000003822    0.000000440
 -------------------------------------------------------------------
 Cartesian Forces:  Max     0.000094283 RMS     0.000031483
 Z-matrix is all fixed cartesians, so copy forces.
 Leave Link  716 at Wed Nov 29 12:05:12 2023, MaxMem=   134217728 cpu:               0.0 elap:               0.0
 (Enter /home/emanuele/chem_software/gaussian//gdv/l103.exe)

 GradGradGradGradGradGradGradGradGradGradGradGradGradGradGradGradGradGrad
 Berny optimization.
 Search for a local minimum.
 Step number   1 out of a maximum of    2
 All quantities printed in internal units (Hartrees-Bohrs-Radians)
 RMS Force = .31483D-04 SwitMx=.10000D-02 MixMth= 2
 Mixed Optimization -- En-DIIS/RFO-DIIS
 Second derivative matrix not updated -- unit matrix used.
 ITU=  0
 RFO step:  Lambda=-2.97353519D-08 EMin= 1.00000000D+00
 Linear search not attempted -- first point.
 Variable       Old X    -DE/DX   Delta X   Delta X   Delta X     New X
                                 (Linear)    (Quad)   (Total)
    X1       -1.19882   0.00000   0.00000   0.00000   0.00000  -1.19881
    Y1       -0.22029   0.00006   0.00000   0.00006   0.00006  -0.22023
    Z1       -0.73808  -0.00009   0.00000  -0.00009  -0.00009  -0.73817
    X2       -2.15370  -0.00001   0.00000  -0.00001  -0.00001  -2.15372
    Y2        0.37143   0.00002   0.00000   0.00002   0.00002   0.37145
    Z2        1.55263   0.00003   0.00000   0.00003   0.00003   1.55266
    X3        1.35946   0.00004   0.00000   0.00004   0.00004   1.35950
    Y3       -1.47092  -0.00000   0.00000  -0.00000  -0.00000  -1.47092
    Z3       -0.36269   0.00002   0.00000   0.00002   0.00002  -0.36267
    X4        1.03812   0.00000   0.00000   0.00000   0.00000   1.03813
    Y4       -3.11653  -0.00000   0.00000  -0.00000  -0.00000  -3.11653
    Z4        0.85506  -0.00003   0.00000  -0.00003  -0.00003   0.85504
    X5        1.80133   0.00000   0.00000   0.00000   0.00000   1.80133
    Y5       -2.37063  -0.00000   0.00000  -0.00000  -0.00000  -2.37064
    Z5       -2.17598  -0.00000   0.00000  -0.00000  -0.00000  -2.17598
    X6        3.33229  -0.00004   0.00000  -0.00004  -0.00004   3.33225
    Y6        0.23957  -0.00002   0.00000  -0.00002  -0.00002   0.23956
    Z6        0.53240   0.00003   0.00000   0.00003   0.00003   0.53243
    X7        2.67260   0.00001   0.00000   0.00001   0.00001   2.67262
    Y7        1.81684  -0.00001   0.00000  -0.00001  -0.00001   1.81684
    Z7        1.38946  -0.00001   0.00000  -0.00001  -0.00001   1.38945
    X8        4.77886  -0.00002   0.00000  -0.00002  -0.00002   4.77884
    Y8       -0.61095   0.00001   0.00000   0.00001   0.00001  -0.61094
    Z8        1.44653  -0.00001   0.00000  -0.00001  -0.00001   1.44652
    X9       -1.46407  -0.00001   0.00000  -0.00001  -0.00001  -1.46408
    Y9        1.23792  -0.00007   0.00000  -0.00007  -0.00007   1.23786
    Z9       -2.45990   0.00006   0.00000   0.00006   0.00006  -2.45984
   X10       -3.96394   0.00002   0.00000   0.00002   0.00002  -3.96393
   Y10        0.48850   0.00000   0.00000   0.00000   0.00000   0.48850
   Z10        1.33052   0.00000   0.00000   0.00000   0.00000   1.33052
         Item               Value     Threshold  Converged?
 Maximum Force            0.000094     0.000450     YES
 RMS     Force            0.000031     0.000300     YES
 Maximum Displacement     0.000094     0.001800     YES
 RMS     Displacement     0.000031     0.001200     YES
 Predicted change in Energy=-1.486768D-08
 Optimization completed.
    -- Stationary point found.
 Largest change from initial coordinates is atom    7       0.166 Angstoms.
 GradGradGradGradGradGradGradGradGradGradGradGradGradGradGradGradGradGrad

 Leave Link  103 at Wed Nov 29 12:05:12 2023, MaxMem=   134217728 cpu:               0.0 elap:               0.0
 (Enter /home/emanuele/chem_software/gaussian//gdv/l202.exe)
                          Input orientation:                          
 ---------------------------------------------------------------------
 Center     Atomic      Atomic             Coordinates (Angstroms)
 Number     Number       Type             X           Y           Z
 ---------------------------------------------------------------------
      1          6    20001002       -0.634386   -0.116572   -0.390575
      2          8    20001022       -1.139691    0.196554    0.821616
      3          6    20001001        0.719395   -0.778376   -0.191928
      4          1    20001034        0.549351   -1.649197    0.452480
      5          1    20001034        0.953222   -1.254486   -1.151479
      6          7    20001020        1.763371    0.126777    0.281733
      7          1    20001029        1.414280    0.961432    0.735273
      8          1    20001029        2.528862   -0.323301    0.765472
      9          8    20001025       -0.774752    0.655081   -1.301723
     10          1    20001031       -2.097627    0.258501    0.704082
 ---------------------------------------------------------------------
                    Distance matrix (angstroms):
                    1          2          3          4          5
     1  C    0.000000
     2  O    1.350107   0.000000
     3  C    1.519924   2.331086   0.000000
     4  H    2.112088   2.529016   1.096588   0.000000
     5  H    2.096264   3.221631   1.096400   1.700469   0.000000
     6  N    2.502090   2.953661   1.460665   2.158027   2.149029
     7  H    2.574230   2.667445   2.090335   2.764681   2.946642
     8  H    3.374214   3.705628   2.097112   2.403004   2.650367
     9  O    1.202224   2.202725   2.349239   3.184364   2.579712
    10  H    1.865483   0.967106   3.132660   3.272477   3.878133
                    6          7          8          9         10
     6  N    0.000000
     7  H    1.012034   0.000000
     8  H    1.011212   1.701100   0.000000
     9  O    3.037846   3.005838   4.018008   0.000000
    10  H    3.886262   3.581701   4.663332   2.435268   0.000000
 Symmetry turned off by external request.
 Stoichiometry    C2H5NO2
 Framework group  C1[X(C2H5NO2)]
 Deg. of freedom    24
 Full point group                 C1      NOp   1
 Rotational constants (GHZ):           8.6370196           4.1860834           3.4504559
 Leave Link  202 at Wed Nov 29 12:05:12 2023, MaxMem=   134217728 cpu:               0.0 elap:               0.0
 (Enter /home/emanuele/chem_software/gaussian//gdv/l9999.exe)
 Unable to Open any file for archive entry.
 1\1\GINC-EMANUELE-XPS-13-9343\FOpt\AMBER\ZDO\C2H5N1O2\EMANUELE\29-Nov-
 2023\0\\#p Amber=(SoftFirst,Print) geom=nocrowd nosymm opt=(maxcycle=3
 00)\\Title\\0,1\C,-0.6343860791,-0.1165717608,-0.3905754574\O,-1.13969
 11742,0.1965537887,0.8216161841\C,0.7193950391,-0.7783764573,-0.191927
 6425\H,0.5493507719,-1.6491970674,0.452480265\H,0.9532221085,-1.254485
 9337,-1.151478846\N,1.7633707896,0.1267765847,0.2817331957\H,1.4142801
 531,0.9614321972,0.7352725057\H,2.5288616107,-0.323300551,0.7654721746
 \O,-0.7747519585,0.6550814842,-1.3017231284\H,-2.097627261,0.258500715
 7,0.7040817487\\Version=ES64L-GDVRevJ.14\HF=0.0363412\RMSD=0.000e+00\R
 MSF=3.148e-05\Dipole=-0.0388556,-0.8061958,0.4583411\PG=C01 [X(C2H5N1O
 2)]\\@
 The archive entry for this job was punched.


 THERE IS NO SCIENCE WITHOUT FANCY, NOR ART WITHOUT FACTS.
     -- VLADIMIR NABAKOV
 Job cpu time:       0 days  0 hours  0 minutes  0.9 seconds.
 Elapsed time:       0 days  0 hours  0 minutes  0.9 seconds.
 File lengths (MBytes):  RWF=      6 Int=      0 D2E=      0 Chk=      1 Scr=      1
 Normal termination of Gaussian DV at Wed Nov 29 12:05:13 2023.
