 Entering Gaussian System, Link 0=/home/emanuele/chem_software/gaussian//g09/g09
 Input=0_mm_70.gjf
 Output=0_mm_70.log
 Initial command:
 /home/emanuele/chem_software/gaussian//gdv/l1.exe "/home/emanuele/chem_software/gaussian/scratch/Gau-13806.inp" -scrdir="/home/emanuele/chem_software/gaussian/scratch/"
 Entering Link 1 = /home/emanuele/chem_software/gaussian//gdv/l1.exe PID=     13808.
  
 Copyright (c) 1988-2020, Gaussian, Inc.  All Rights Reserved.
  
 This is the private, development version of
 the Gaussian(R) DV system of programs. It is based on
 the Gaussian(R) 16 system (copyright 2016, Gaussian, Inc.),
 the Gaussian(R) 09 system (copyright 2009, Gaussian, Inc.),
 the Gaussian(R) 03 system (copyright 2003, Gaussian, Inc.),
 the Gaussian(R) 98 system (copyright 1998, Gaussian, Inc.),
 the Gaussian(R) 94 system (copyright 1995, Gaussian, Inc.),
 the Gaussian 92(TM) system (copyright 1992, Gaussian, Inc.),
 the Gaussian 90(TM) system (copyright 1990, Gaussian, Inc.),
 the Gaussian 88(TM) system (copyright 1988, Gaussian, Inc.),
 the Gaussian 86(TM) system (copyright 1986, Carnegie Mellon
 University), and the Gaussian 82(TM) system (copyright 1983,
 Carnegie Mellon University). Gaussian is a federally registered
 trademark of Gaussian, Inc.
  
 This software contains proprietary and confidential information,
 including trade secrets, belonging to Gaussian, Inc.
  
 This software is provided under written license and may be
 used, copied, transmitted, or stored only in accord with that
 written license.
  
 The following legend is applicable only to US Government
 contracts under FAR:
  
                    RESTRICTED RIGHTS LEGEND
  
 Use, reproduction and disclosure by the US Government is
 subject to restrictions as set forth in subparagraphs (a)
 and (c) of the Commercial Computer Software - Restricted
 Rights clause in FAR 52.227-19.
  
 Gaussian, Inc.
 340 Quinnipiac St., Bldg. 40, Wallingford CT 06492
  
  
 ---------------------------------------------------------------
 Warning -- This program may not be used in any manner that
 competes with the business of Gaussian, Inc. or will provide
 assistance to any competitor of Gaussian, Inc.  The licensee
 of this program is prohibited from giving any competitor of
 Gaussian, Inc. access to this program.  By using this program,
 the user acknowledges that Gaussian, Inc. is engaged in the
 business of creating and licensing software in the field of
 computational chemistry and represents and warrants to the
 licensee that it is not a competitor of Gaussian, Inc. and that
 it will not use this program in any manner prohibited above.
 ---------------------------------------------------------------
  

 Cite this work as:
 Gaussian Development Version, Revision J.14,
 M. J. Frisch, G. W. Trucks, H. B. Schlegel, G. E. Scuseria, 
 M. A. Robb, J. R. Cheeseman, G. Scalmani, V. Barone, 
 G. A. Petersson, H. Nakatsuji, X. Li, A. V. Marenich, M. Caricato, 
 J. Bloino, B. G. Janesko, J. Zheng, R. Gomperts, B. Mennucci, 
 H. P. Hratchian, J. V. Ortiz, A. F. Izmaylov, J. L. Sonnenberg, 
 D. Williams-Young, F. Ding, F. Lipparini, F. Egidi, J. Goings, 
 B. Peng, A. Petrone, T. Henderson, D. Ranasinghe, V. G. Zakrzewski, 
 J. Gao, N. Rega, G. Zheng, W. Liang, M. Hada, M. Ehara, K. Toyota, 
 R. Fukuda, J. Hasegawa, M. Ishida, T. Nakajima, Y. Honda, O. Kitao, 
 H. Nakai, T. Vreven, K. Throssell, J. A. Montgomery, Jr., 
 J. E. Peralta, F. Ogliaro, M. J. Bearpark, J. J. Heyd, 
 E. N. Brothers, K. N. Kudin, V. N. Staroverov, T. A. Keith, 
 R. Kobayashi, J. Normand, K. Raghavachari, A. P. Rendell, 
 J. C. Burant, S. S. Iyengar, J. Tomasi, M. Cossi, J. M. Millam, 
 M. Klene, C. Adamo, R. Cammi, J. W. Ochterski, R. L. Martin, 
 K. Morokuma, O. Farkas, J. B. Foresman, and D. J. Fox, 
 Gaussian, Inc., Wallingford CT, 2020.
 
 ******************************************
 Gaussian DV:  ES64L-GDVRevJ.14 29-Dec-2020
                29-Nov-2023 
 ******************************************
 %mem=1GB
 %nprocshared=1
 Will use up to    1 processors via shared memory.
 %chk=0_mm_70.chk
 -----------------------------------------------------------------
 #p Amber=(SoftFirst,Print) geom=nocrowd nosymm opt=(maxcycle=300)
 -----------------------------------------------------------------
 1/6=300,10=10,18=4000020,19=15,37=210000000,38=1,56=2,64=203/1,3;
 2/9=110,12=1,15=1,40=1/2;
 3/5=30,11=9,25=1,30=1,41=10030000,43=2,71=1/1;
 4/20=11,22=1001,24=3,119=11/2;
 7/30=1,44=-1/16;
 1/6=300,10=10,18=4000020,19=15,64=203/3(2);
 2/9=110,12=1,15=1/2;
 99//99;
 2/9=110,12=1,15=1/2;
 3/5=30,11=9,25=1,30=1,41=10030000,43=2,71=1/1;
 4/16=2,20=11,22=1001,24=3,119=11/2;
 7/30=1,44=-1/16;
 1/6=300,10=10,18=4000020,19=15,64=203/3(-4);
 2/9=110,12=1,15=1/2;
 99/9=10/99;
 Leave Link    1 at Wed Nov 29 12:05:17 2023, MaxMem=   134217728 cpu:               0.0 elap:               0.0
 (Enter /home/emanuele/chem_software/gaussian//gdv/l101.exe)
 -----
 Title
 -----
 Symbolic Z-matrix:
 Charge =  0 Multiplicity = 1
 C-C-+0.299289        -0.61736  -0.34085   0.05632 
 O-OH--0.289770       -0.83927   1.02128  -0.0019 
 C-CT--0.035454        0.82483  -0.621    -0.33313 
 H-HC-+0.090426        0.76788  -1.58857  -0.90269 
 H-HC-+0.095387        0.95939  -0.01381  -1.26563 
 N-N3--0.336253        1.89586  -0.32186   0.63474 
 H-H-+0.142619         1.8512    0.65133   0.93218 
 H-H-+0.128282         1.81626  -0.90466   1.46423 
 O-O2--0.308037       -1.57731  -1.06961   0.04374 
 H-HO-+0.213510       -1.79946   1.26416   0.0971 
 
 ITRead=  3  3  3  3  3  3  3  3  3  3
 MicOpt=  0  0  0  0  0  0  0  0  0  0
 NAtoms=     10 NQM=        0 NQMF=       0 NMMI=      0 NMMIF=      0
                NMic=      10 NMicF=      0.
                    Isotopes and Nuclear Properties:
 (Nuclear quadrupole moments (NQMom) in fm**2, nuclear magnetic moments (NMagM)
  in nuclear magnetons)

  Atom         1           2           3           4           5           6           7           8           9          10
 IAtWgt=          12          16          12           1           1          14           1           1          16           1
 AtmWgt=  12.0000000  15.9949146  12.0000000   1.0078250   1.0078250  14.0030740   1.0078250   1.0078250  15.9949146   1.0078250
 NucSpn=           0           0           0           1           1           2           1           1           0           1
 AtZEff=  -0.0000000  -0.0000000  -0.0000000  -0.0000000  -0.0000000  -0.0000000  -0.0000000  -0.0000000  -0.0000000  -0.0000000
 NQMom=    0.0000000   0.0000000   0.0000000   0.0000000   0.0000000   2.0440000   0.0000000   0.0000000   0.0000000   0.0000000
 NMagM=    0.0000000   0.0000000   0.0000000   2.7928460   2.7928460   0.4037610   2.7928460   2.7928460   0.0000000   2.7928460
 AtZNuc=   6.0000000   8.0000000   6.0000000   1.0000000   1.0000000   7.0000000   1.0000000   1.0000000   8.0000000   1.0000000
 Generating MM parameters.
 I=    1 IAn=  6 Valence= 5.
          JB=  1 J=    2 IAn=  8 IBT=12 Dist= 1.38D+00
          JB=  2 J=    3 IAn=  6 IBT= 1 Dist= 1.52D+00
          JB=  3 J=    9 IAn=  8 IBT= 2 Dist= 1.21D+00
 I=    2 IAn=  8 Valence= 3.
          JB=  1 J=    1 IAn=  6 IBT=12 Dist= 1.38D+00
          JB=  2 J=   10 IAn=  1 IBT= 1 Dist= 9.95D-01
 Read MM parameter file:
 Include all MM classes

 MM sanity checks:
 All charges sum to:               -0.00000100
 Charges of atoms sum to:          -0.00000100
 WARNING -- The following centers have non-zero partial charges, but zero Vanderwaals
 parameters.  These centers can collapse onto other centers with non-zero charge.
   Center  Layer   Charge
     10 H    R    0.213510
 MMInit generated parameter data with length LenPar=        2069.
 MM Charge=             -0.0000 electrons
 MM Dipole moment (Debye):
    X=              0.7268    Y=              0.7856    Z=             -0.2811  Tot=              1.1066
 MM Quadrupole moment (Debye-Ang):
   XX=             -1.6558   YY=              0.3196   ZZ=              2.3459
   XY=             -2.9832   XZ=             -0.0627   YZ=              0.6955
 MM Traceless Quadrupole moment (Debye-Ang):
   XX=             -1.9923   YY=             -0.0170   ZZ=              2.0093
   XY=             -2.9832   XZ=             -0.0627   YZ=              0.6955
 MM Octapole moment (Debye-Ang**2):
  XXX=             -2.1475  YYY=              0.4294  ZZZ=              0.8352  XYY=              2.7603
  XXY=              8.1652  XXZ=              0.9476  XZZ=              3.2122  YZZ=             -1.1449
  YYZ=              0.0327  XYZ=              0.0491
 MM Hexadecapole moment (Debye-Ang**3):
 XXXX=             -4.5420 YYYY=              2.4471 ZZZZ=              4.5493 XXXY=            -10.0343
 XXXZ=              1.4662 YYYX=             -6.9840 YYYZ=              1.3808 ZZZX=              2.6244
 ZZZY=             -0.7378 XXYY=              2.7964 XXZZ=              4.9562 YYZZ=              2.1650
 XXYZ=              0.8407 YYXZ=              0.7217 ZZXY=             -1.5134
 Leave Link  101 at Wed Nov 29 12:05:17 2023, MaxMem=   134217728 cpu:               0.3 elap:               0.2
 (Enter /home/emanuele/chem_software/gaussian//gdv/l103.exe)

 GradGradGradGradGradGradGradGradGradGradGradGradGradGradGradGradGradGrad
 Berny optimization.
 Initialization pass.
 No Z-matrix variables, so optimization will use Cartesian coordinates.
 Trust Radius=1.00D-01 FncErr=1.00D-07 GrdErr=1.00D-07 EigMax=2.50D+02 EigMin=1.00D-04
 Number of steps in this run=      2 maximum allowed number of steps=      2.
 GradGradGradGradGradGradGradGradGradGradGradGradGradGradGradGradGradGrad

 Leave Link  103 at Wed Nov 29 12:05:17 2023, MaxMem=   134217728 cpu:               0.0 elap:               0.0
 (Enter /home/emanuele/chem_software/gaussian//gdv/l202.exe)
                          Input orientation:                          
 ---------------------------------------------------------------------
 Center     Atomic      Atomic             Coordinates (Angstroms)
 Number     Number       Type             X           Y           Z
 ---------------------------------------------------------------------
      1          6    20001002       -0.617355   -0.340849    0.056316
      2          8    20001022       -0.839271    1.021285   -0.001900
      3          6    20001001        0.824832   -0.621004   -0.333126
      4          1    20001034        0.767880   -1.588571   -0.902694
      5          1    20001034        0.959392   -0.013814   -1.265632
      6          7    20001020        1.895864   -0.321856    0.634740
      7          1    20001029        1.851201    0.651327    0.932183
      8          1    20001029        1.816255   -0.904659    1.464227
      9          8    20001025       -1.577309   -1.069611    0.043737
     10          1    20001031       -1.799463    1.264164    0.097100
 ---------------------------------------------------------------------
                    Distance matrix (angstroms):
                    1          2          3          4          5
     1  C    0.000000
     2  O    1.381320   0.000000
     3  C    1.519887   2.361369   0.000000
     4  H    2.096518   3.194638   1.124205   0.000000
     5  H    2.083418   2.429740   1.120872   1.627348   0.000000
     6  N    2.578993   3.112925   1.474233   2.289240   2.140860
     7  H    2.800951   2.871937   2.067188   3.091521   2.463357
     8  H    2.867499   3.593133   2.072163   2.677525   2.996656
     9  O    1.205307   2.217798   2.472560   2.581659   3.043683
    10  H    1.993768   0.995369   3.259736   3.965972   3.331898
                    6          7          8          9         10
     6  N    0.000000
     7  H    1.018603   0.000000
     8  H    1.016880   1.644805   0.000000
     9  O    3.601576   3.937721   3.682564   0.000000
    10  H    4.057087   3.794770   4.432409   2.344932   0.000000
 Symmetry turned off by external request.
 Stoichiometry    C2H5NO2
 Framework group  C1[X(C2H5NO2)]
 Deg. of freedom    24
 Full point group                 C1      NOp   1
 Rotational constants (GHZ):           9.4219867           3.6809816           2.9549083
 Leave Link  202 at Wed Nov 29 12:05:17 2023, MaxMem=   134217728 cpu:               0.0 elap:               0.0
 (Enter /home/emanuele/chem_software/gaussian//gdv/l301.exe)
 Standard basis: Dummy (5D, 7F)
    10 basis functions,    10 primitive gaussians,    10 cartesian basis functions
     7 alpha electrons        7 beta electrons
       nuclear repulsion energy        22.5391366837 Hartrees.
 IExCor=       0 DFT=F Ex=HF Corr=None N6=None ScaHFX=  1.000000
 ScaDFX=  1.000000  1.000000  1.000000  1.000000  1.000000  0.000000
 ScaDFX=  0.000000  0.000000  0.000000  0.000000  0.000000  0.000000
 IRadAn=      5 IRanWt=     -1 IRanGd=            0 ICorTp=0 IEmpDi=  4
 NAtoms=   10 NActive=   10 NUniq=   10 SFac= 1.00D+00 NAtFMM=   60 NAOKFM=F Big=F
 Integral buffers will be    131072 words long.
 Raffenetti 1 integral format.
 Two-electron integral symmetry is turned off.
 Leave Link  301 at Wed Nov 29 12:05:17 2023, MaxMem=   134217728 cpu:               0.1 elap:               0.1
 (Enter /home/emanuele/chem_software/gaussian//gdv/l402.exe)
 AMBER calculation of energy and first derivatives.
 NRF= 0 NRA=   0 NVA=  10 HaveQM=F NVQ=       0
 Convergence limit is  0.750E-04 MaxStp= 10000 StMxLn= 3.00D-04 StpMin= 1.00D-06.
 Convergence criteria             0.00011250 0.00007500 0.00045000 0.00030000
  Step  NS  ND Rises OKQ   Scale  Max. Force  RMS Force Max. Disp.  RMS Disp.     Energy   Flag
     1   0   0   F    T  1.00D+00 0.04318304 0.01543085 0.04318304 0.01543085    0.0741970 ----
     2   0   0   F    F  5.41D-01 0.04318304 0.01543085 0.02336890 0.00835055    0.0693814 ----
     3   0   0   F    T  2.38D+00 0.01700967 0.00870171 0.04261073 0.02378140    0.0687068 ----
     4   0   0   F    F  3.49D-01 0.01700967 0.00870171 0.01485427 0.00829029    0.0653196 ----
     5   0   0   F    T  1.39D+00 0.04070425 0.01211058 0.06958699 0.03207169    0.0650793 ----
     6   0   0   F    F -1.00D-01 0.04070425 0.01211058 0.00698338 0.00321854    0.0623274 ----
     7   0   0   F    T  1.83D+00 0.01925787 0.00928469 0.07608634 0.02885315    0.0622915 ----
     8   0   0   F    F  2.10D-01 0.01925787 0.00928469 0.01601179 0.00607192    0.0594231 ----
     9   0   0   F    T  2.00D+00 0.02121590 0.00955989 0.08904993 0.03492507    0.0593289 ----
    10   0   0   F    F  6.08D-01 0.02121590 0.00955989 0.05418113 0.02124965    0.0554688 ----
    11   0   0   F    F -4.03D-02 0.02121590 0.00955989 0.00218551 0.00085715    0.0548201 ----
    12   0   0   F    T  5.48D+00 0.01494492 0.00769549 0.09688403 0.05531757    0.0548189 ----
    13   0   0   T    F  2.70D-01 0.01494492 0.00769549 0.02617946 0.01494760    0.0629254 ----
    14   0   0   F    T  1.65D+00 0.01651431 0.00620934 0.03170840 0.01494760    0.0535108 ----
    15   0   0   F    F -2.47D-01 0.01651431 0.00620934 0.00783701 0.00369443    0.0528710 ----
    16   0   0   F    T  1.53D+00 0.01427478 0.00484392 0.02311192 0.01125317    0.0527939 ----
    17   0   0   F    F  1.56D+00 0.01427478 0.00484392 0.03610035 0.01757722    0.0519167 ----
    18   0   0   F    T  3.93D+00 0.01052137 0.00436859 0.06502925 0.02883039    0.0513891 ----
    19   0   0   F    F -4.49D-01 0.01052137 0.00436859 0.02920337 0.01294717    0.0511728 ----
    20   0   0   F    T  3.33D+00 0.00643319 0.00307655 0.03983059 0.01588322    0.0507762 ----
    21   0   0   F    F -2.39D-02 0.00643319 0.00307655 0.00095307 0.00038006    0.0503102 ----
    22   0   0   F    T  3.53D+00 0.00605017 0.00263690 0.03830013 0.01550317    0.0503099 ----
    23   0   0   F    F -4.41D-01 0.00605017 0.00263690 0.01688879 0.00683626    0.0502307 ----
    24   0   0   F    T  5.42D+00 0.00311423 0.00124881 0.01787455 0.00866690    0.0501047 ----
    25   0   0   F    F -2.41D-01 0.00311423 0.00124881 0.00430101 0.00208545    0.0500179 ----
    26   0   0   F    T  1.41D+00 0.00508700 0.00202449 0.01359671 0.00658145    0.0500081 ----
    27   0   0   F    F -7.76D-02 0.00508700 0.00202449 0.00105497 0.00051066    0.0499287 ----
    28   0   0   F    T  2.18D+00 0.00323221 0.00145293 0.01667947 0.00607080    0.0499281 ----
    29   0   0   F    F -1.79D-01 0.00323221 0.00145293 0.00297739 0.00108367    0.0498741 ----
    30   0   0   F    T  3.26D+00 0.00190062 0.00094572 0.01360952 0.00498712    0.0498714 ----
    31   0   0   F    F  3.05D-01 0.00190062 0.00094572 0.00414757 0.00151985    0.0498174 ----
    32   0   0   F    T  2.53D+00 0.00345166 0.00116040 0.01786733 0.00650697    0.0498143 ----
    33   0   0   F    F  2.89D-01 0.00345166 0.00116040 0.00515606 0.00187775    0.0497519 ----
    34   0   0   F    T  3.64D+00 0.00254996 0.00103405 0.02246486 0.00838472    0.0497486 ----
    35   0   0   F    F -8.89D-02 0.00254996 0.00103405 0.00199622 0.00074506    0.0496960 ----
    36   0   0   F    T  3.56D+00 0.00308070 0.00094204 0.01999998 0.00763966    0.0496955 ----
    37   0   0   F    F -2.49D-01 0.00308070 0.00094204 0.00497887 0.00190185    0.0496638 ----
    38   0   0   F    T  4.15D+00 0.00189069 0.00070377 0.01411526 0.00573781    0.0496599 ----
    39   0   0   T    F  2.28D-01 0.00189069 0.00070377 0.00321220 0.00130575    0.0497336 ----
    40   0   0   F    T  1.61D+00 0.00120843 0.00048201 0.00319455 0.00130575    0.0496529 ----
    41   0   0   F    F  8.72D-01 0.00120843 0.00048201 0.00278428 0.00113805    0.0496446 ----
    42   0   0   F    T  2.88D+00 0.00084565 0.00045388 0.00661647 0.00244380    0.0496423 ----
    43   0   0   F    F -4.88D-02 0.00084565 0.00045388 0.00032288 0.00011925    0.0496339 --++
    44   0   0   F    T  3.54D+00 0.00107210 0.00036393 0.00692967 0.00232454    0.0496339 ----
    45   0   0   F    F -1.63D-01 0.00107210 0.00036393 0.00113042 0.00037920    0.0496282 ----
    46   0   0   F    T  3.51D+00 0.00072450 0.00030583 0.00558984 0.00194535    0.0496280 ----
    47   0   0   F    F -4.14D-01 0.00072450 0.00030583 0.00231560 0.00080586    0.0496265 ----
    48   0   0   F    T  5.50D+00 0.00038827 0.00015332 0.00277251 0.00113948    0.0496251 ----
    49   0   0   T    F  3.51D-01 0.00038827 0.00015332 0.00097286 0.00039984    0.0496267 ----
    50   0   0   F    T  1.09D+00 0.00047928 0.00018926 0.00098238 0.00039984    0.0496244 ----
    51   0   0   F    F  5.62D-01 0.00047928 0.00018926 0.00055212 0.00022472    0.0496236 ---+
    52   0   0   F    T  2.74D+00 0.00041925 0.00013394 0.00147786 0.00062456    0.0496235 ----
    53   0   0   F    T  2.89D+00 0.00023776 0.00011966 0.00125469 0.00062456    0.0496227 ----
    54   0   0   F    F  3.70D-01 0.00023776 0.00011966 0.00046453 0.00023123    0.0496219 ---+
    55   0   0   F    T  2.12D+00 0.00041488 0.00015574 0.00173343 0.00085579    0.0496219 ----
    56   0   0   F    F  7.20D-01 0.00041488 0.00015574 0.00124825 0.00061626    0.0496208 ----
    57   0   0   F    T  6.08D+00 0.00021679 0.00011578 0.00361961 0.00147205    0.0496206 ----
    58   0   0   F    F -4.33D-01 0.00021679 0.00011578 0.00156588 0.00063683    0.0496203 ----
    59   0   0   F    T  1.66D+00 0.00037753 0.00016228 0.00191254 0.00083523    0.0496199 ----
    60   0   0   F    T  1.60D+00 0.00039815 0.00016948 0.00194006 0.00083523    0.0496191 ----
    61   0   0   F    F  4.33D-01 0.00039815 0.00016948 0.00083944 0.00036139    0.0496181 ----
    62   0   0   F    T  2.20D+00 0.00034101 0.00014744 0.00322606 0.00119662    0.0496180 ----
    63   0   0   F    F  1.68D+00 0.00034101 0.00014744 0.00543430 0.00201570    0.0496169 ----
    64   0   0   F    T  1.14D+00 0.00070034 0.00034536 0.00900453 0.00321232    0.0496161 ----
    65   0   0   F    F  2.03D+00 0.00070034 0.00034536 0.01824923 0.00651032    0.0496127 ----
    66   0   0   F    T  1.23D+00 0.00165353 0.00058613 0.02779161 0.00972263    0.0496098 ----
    67   0   0   F    F  1.06D+00 0.00165353 0.00058613 0.02946420 0.01030777    0.0495991 ----
    68   0   0   F    F -3.06D-02 0.00165353 0.00058613 0.00090192 0.00031553    0.0495945 ----
    69   0   0   F    T  1.15D+00 0.00208316 0.00101395 0.05687202 0.01971488    0.0495945 ----
    70   0   0   F    F  4.86D-01 0.00208316 0.00101395 0.02763023 0.00957811    0.0495629 ----
    71   0   0   F    F  5.74D-02 0.00208316 0.00101395 0.00158534 0.00054956    0.0495566 ----
    72   0   0   F    T  1.00D+00 0.00465611 0.00197326 0.09534093 0.03303499    0.0495566 ----
    73   0   0   F    F -8.89D-02 0.00465611 0.00197326 0.00847803 0.00293758    0.0494910 ----
    74   0   0   F    T  1.27D+00 0.00730887 0.00284728 0.08560385 0.03009741    0.0494900 ----
    75   0   0   F    F  1.48D+00 0.00730887 0.00284728 0.12675373 0.04456527    0.0492340 ----
    76   0   0   F    F -3.48D-01 0.00730887 0.00284728 0.04415015 0.01552273    0.0491696 ----
    77   0   0   F    F -7.31D-03 0.00730887 0.00284728 0.00032263 0.00011343    0.0491236 --++
    78   0   0   F    T  3.71D+00 0.01054079 0.00382803 0.16318177 0.05925338    0.0491236 ----
    79   0   0   F    F  3.31D-01 0.01054079 0.00382803 0.05406817 0.01963284    0.0483022 ----
    80   0   0   F    F -3.40D-01 0.01054079 0.00382803 0.01837495 0.00667218    0.0482843 ----
    81   0   0   F    T  1.50D+00 0.01823359 0.00651632 0.20574260 0.07221405    0.0482775 ----
    82   0   0   F    F -3.49D-01 0.01823359 0.00651632 0.07190014 0.02523639    0.0478627 ----
    83   0   0   F    F -9.94D-03 0.01823359 0.00651632 0.00071466 0.00025084    0.0475786 ---+
    84   0   0   F    T  4.48D+00 0.01360976 0.00398967 0.14240127 0.04722850    0.0475785 ----
    85   0   0   F    F  2.05D-01 0.01360976 0.00398967 0.02919983 0.00968435    0.0463383 ----
    86   0   0   F    F -5.16D-02 0.01360976 0.00398967 0.00150736 0.00049993    0.0463036 ----
    87   0   0   F    T  1.77D+00 0.01640610 0.00707311 0.17453896 0.05641293    0.0463035 ----
    88   0   0   F    F  2.57D-01 0.01640610 0.00707311 0.04481225 0.01448381    0.0446387 ----
    89   0   0   F    F -9.47D-02 0.01640610 0.00707311 0.00424280 0.00137132    0.0445680 ----
    90   0   0   F    T  2.36D+00 0.02022686 0.00726932 0.20361079 0.06952542    0.0445671 ----
    91   0   0   F    F -3.95D-01 0.02022686 0.00726932 0.08049670 0.02748659    0.0439223 ----
    92   0   0   F    F -6.83D-03 0.02022686 0.00726932 0.00055003 0.00018781    0.0434396 ---+
    93   0   0   F    T  1.65D+00 0.01670831 0.00686323 0.11210753 0.04222664    0.0434396 ----
    94   0   0   F    F  8.35D-01 0.01670831 0.00686323 0.09362273 0.03526412    0.0418989 ----
    95   0   0   F    F -1.40D-01 0.01670831 0.00686323 0.01307855 0.00492619    0.0416051 ----
    96   0   0   F    T  3.20D+00 0.01132848 0.00544762 0.19897982 0.07256457    0.0415974 ----
    97   0   0   T    F  5.02D-01 0.01132848 0.00544762 0.09997133 0.03645785    0.0417591 ----
    98   0   0   F    T  2.03D+00 0.01306080 0.00490936 0.09610077 0.03645785    0.0408453 ----
    99   0   0   F    F -2.15D-02 0.01306080 0.00490936 0.00206856 0.00078475    0.0401005 ----
   100   0   0   F    T  2.13D+00 0.01277283 0.00518430 0.10507147 0.03567310    0.0401001 ----
   101   0   0   F    F  1.86D-01 0.01277283 0.00518430 0.01950137 0.00662096    0.0391484 ----
   102   0   0   F    F -1.71D-02 0.01277283 0.00518430 0.00033288 0.00011302    0.0391267 --++
   103   0   0   F    T  2.60D+00 0.01173948 0.00495762 0.12323868 0.04218105    0.0391267 ----
   104   0   0   F    F -2.84D-01 0.01173948 0.00495762 0.03504308 0.01199424    0.0385506 ----
   105   0   0   F    T  1.95D+00 0.01656024 0.00446013 0.08424043 0.03018681    0.0384452 ----
   106   0   0   F    F -3.00D-01 0.01656024 0.00446013 0.02525446 0.00904971    0.0381126 ----
   107   0   0   F    T  2.61D+00 0.00757146 0.00296069 0.05181194 0.02113710    0.0380399 ----
   108   0   0   F    F -2.40D-01 0.00757146 0.00296069 0.01241909 0.00506647    0.0378068 ----
   109   0   0   F    T  2.92D+00 0.00506893 0.00221943 0.03851303 0.01607063    0.0377818 ----
   110   0   0   F    F  3.10D-01 0.00506893 0.00221943 0.01194406 0.00498399    0.0375093 ----
   111   0   0   F    T  4.28D+00 0.00424594 0.00202649 0.05034506 0.02105462    0.0374925 ----
   112   0   0   F    F -1.93D-01 0.00424594 0.00202649 0.00970036 0.00405675    0.0372926 ----
   113   0   0   F    T  3.28D+00 0.00533623 0.00203120 0.04197825 0.01699787    0.0372807 ----
   114   0   0   F    F -3.57D-01 0.00533623 0.00203120 0.01499266 0.00607084    0.0371902 ----
   115   0   0   F    T  3.90D+00 0.00333275 0.00136497 0.02881151 0.01092703    0.0371505 ----
   116   0   0   F    F -6.75D-02 0.00333275 0.00136497 0.00194567 0.00073791    0.0370487 ----
   117   0   0   F    T  1.28D+00 0.00714843 0.00225723 0.02697131 0.01018911    0.0370481 ----
   118   0   0   F    F  5.53D-01 0.00714843 0.00225723 0.01490247 0.00562980    0.0369160 ----
   119   0   0   F    T  1.65D+00 0.00850219 0.00245093 0.04154838 0.01581891    0.0368970 ----
   120   0   0   F    F  5.43D-02 0.00850219 0.00245093 0.00225480 0.00085848    0.0367399 ----
   121   0   0   F    T  5.54D+00 0.00312129 0.00127252 0.04185004 0.01667739    0.0367395 ----
   122   0   0   T    F  4.25D-01 0.00312129 0.00127252 0.01779747 0.00709236    0.0367864 ----
   123   0   0   F    T  2.86D+00 0.00228833 0.00109347 0.01847293 0.00709236    0.0366823 ----
   124   0   0   F    F  5.56D-02 0.00228833 0.00109347 0.00102685 0.00039424    0.0366284 ----
   125   0   0   F    T  1.51D+00 0.00377431 0.00150753 0.02157378 0.00748660    0.0366283 ----
   126   0   0   F    F  1.96D-01 0.00377431 0.00150753 0.00422548 0.00146634    0.0365681 ----
   127   0   0   F    T  1.87D+00 0.00411375 0.00144152 0.02746447 0.00895293    0.0365664 ----
   128   0   0   F    F -1.25D-01 0.00411375 0.00144152 0.00342251 0.00111568    0.0365160 ----
   129   0   0   F    T  2.97D+00 0.00257113 0.00105420 0.02446961 0.00783726    0.0365149 ----
   130   0   0   F    F  4.54D-02 0.00257113 0.00105420 0.00111188 0.00035612    0.0364635 ----
   131   0   0   F    T  3.57D+00 0.00205422 0.00094300 0.02825724 0.00819338    0.0364634 ----
   132   0   0   F    F -1.26D-01 0.00205422 0.00094300 0.00356517 0.00103374    0.0364227 ----
   133   0   0   F    T  2.17D+00 0.00243913 0.00109420 0.02565215 0.00715963    0.0364218 ----
   134   0   0   F    F -2.08D-01 0.00243913 0.00109420 0.00534184 0.00149093    0.0363931 ----
   135   0   0   F    T  1.64D+00 0.00340644 0.00109438 0.02020905 0.00566870    0.0363909 ----
   136   0   0   F    F  1.25D-01 0.00340644 0.00109438 0.00252904 0.00070940    0.0363582 ----
   137   0   0   F    T  2.01D+00 0.00236019 0.00102380 0.02169006 0.00637811    0.0363577 ----
   138   0   0   F    F  2.59D-01 0.00236019 0.00102380 0.00561047 0.00164980    0.0363197 ----
   139   0   0   F    T  3.99D+00 0.00160920 0.00078616 0.02382415 0.00802790    0.0363181 ----
   140   0   0   F    F  3.85D-02 0.00160920 0.00078616 0.00091681 0.00030893    0.0362796 ----
   141   0   0   F    T  2.59D+00 0.00245631 0.00096631 0.02373982 0.00833684    0.0362795 ----
   142   0   0   F    F -2.07D-01 0.00245631 0.00096631 0.00490994 0.00172425    0.0362528 ----
   143   0   0   F    T  2.10D+00 0.00239163 0.00092635 0.01797245 0.00661259    0.0362509 ----
   144   0   0   F    F -2.75D-01 0.00239163 0.00092635 0.00495070 0.00182151    0.0362341 ----
   145   0   0   F    T  1.40D+00 0.00193186 0.00094574 0.01338930 0.00479108    0.0362312 ----
   146   0   0   F    F  1.68D+00 0.00193186 0.00094574 0.02243851 0.00802915    0.0362008 ----
   147   0   0   F    T  3.40D+00 0.00267800 0.00098774 0.03466101 0.01282024    0.0361813 ----
   148   0   0   F    F -2.52D-01 0.00267800 0.00098774 0.00873102 0.00322939    0.0361483 ----
   149   0   0   F    T  3.76D+00 0.00221221 0.00080160 0.02560382 0.00959085    0.0361441 ----
   150   0   0   F    F -1.97D-01 0.00221221 0.00080160 0.00504063 0.00188815    0.0361167 ----
   151   0   0   F    T  2.97D+00 0.00155845 0.00079136 0.02132664 0.00770270    0.0361150 ----
   152   0   0   F    F -1.05D-01 0.00155845 0.00079136 0.00224298 0.00081011    0.0360904 ----
   153   0   0   F    T  1.36D+00 0.00335214 0.00108953 0.01899069 0.00689258    0.0360901 ----
   154   0   0   F    T  3.27D+00 0.00157895 0.00067591 0.02026411 0.00689258    0.0360659 ----
   155   0   0   F    F -2.86D-01 0.00157895 0.00067591 0.00580240 0.00197362    0.0360526 ----
   156   0   0   F    T  2.40D+00 0.00174290 0.00065312 0.01522615 0.00491897    0.0360501 ----
   157   0   0   F    F  5.98D-01 0.00174290 0.00065312 0.00910792 0.00294241    0.0360290 ----
   158   0   0   F    T  4.09D+00 0.00185692 0.00060818 0.02399105 0.00786138    0.0360255 ----
   159   0   0   T    F  4.73D-01 0.00185692 0.00060818 0.01134898 0.00371883    0.0360282 ----
   160   0   0   F    T  3.69D+00 0.00105103 0.00042297 0.01110661 0.00371883    0.0360148 ----
   161   0   0   T    F  4.43D-01 0.00105103 0.00042297 0.00492268 0.00164826    0.0360173 ----
   162   0   0   F    T  1.27D+00 0.00144236 0.00046421 0.00461586 0.00164826    0.0360104 ----
   163   0   0   F    F  6.19D-01 0.00144236 0.00046421 0.00285623 0.00101992    0.0360047 ----
   164   0   0   F    T  2.30D+00 0.00086835 0.00042341 0.00704513 0.00266818    0.0360038 ----
   165   0   0   F    F  4.27D-01 0.00086835 0.00042341 0.00300822 0.00113930    0.0359957 ----
   166   0   0   F    T  2.81D+00 0.00103181 0.00044606 0.00966027 0.00380748    0.0359949 ----
   167   0   0   F    F -7.33D-02 0.00103181 0.00044606 0.00070851 0.00027925    0.0359872 ---+
   168   0   0   F    T  3.36D+00 0.00084855 0.00037904 0.00867661 0.00352823    0.0359872 ----
   169   0   0   F    F  1.29D-01 0.00084855 0.00037904 0.00111771 0.00045450    0.0359791 ----
   170   0   0   F    T  2.00D+00 0.00116902 0.00051224 0.00975548 0.00398273    0.0359790 ----
   171   0   0   F    F -1.20D-01 0.00116902 0.00051224 0.00116655 0.00047625    0.0359722 ----
   172   0   0   F    T  1.28D+00 0.00151776 0.00059019 0.00916032 0.00350648    0.0359721 ----
   173   0   0   F    F  1.00D+00 0.00151776 0.00059019 0.00915609 0.00350486    0.0359620 ----
   174   0   0   F    T  2.37D+00 0.00124678 0.00060456 0.01950276 0.00701134    0.0359586 ----
   175   0   0   F    T  3.95D+00 0.00136542 0.00046981 0.02112233 0.00701134    0.0359456 ----
   176   0   0   F    F -8.15D-02 0.00136542 0.00046981 0.00172099 0.00057126    0.0359339 ----
   177   0   0   F    T  2.53D+00 0.00119054 0.00055904 0.02004926 0.00644007    0.0359338 ----
   178   0   0   F    F  6.68D-01 0.00119054 0.00055904 0.01338974 0.00430096    0.0359171 ----
   179   0   0   F    T  1.32D+00 0.00302954 0.00099278 0.03364872 0.01074103    0.0359139 ----
   180   0   0   F    F -8.04D-02 0.00302954 0.00099278 0.00270496 0.00086345    0.0358961 ----
   181   0   0   F    T  4.62D+00 0.00125281 0.00052756 0.03123207 0.00987758    0.0358960 ----
   182   0   0   T    F  4.44D-01 0.00125281 0.00052756 0.01385968 0.00438332    0.0359009 ----
   183   0   0   F    T  2.94D+00 0.00113600 0.00043181 0.01361634 0.00438332    0.0358874 ----
   184   0   0   F    F  9.54D-02 0.00113600 0.00043181 0.00129963 0.00041837    0.0358785 ----
   185   0   0   F    T  2.89D+00 0.00120296 0.00044581 0.01428756 0.00480169    0.0358784 ----
   186   0   0   F    F -2.68D-01 0.00120296 0.00044581 0.00383526 0.00128894    0.0358730 ----
   187   0   0   F    T  1.33D+00 0.00173820 0.00055267 0.01013885 0.00351276    0.0358722 ----
   188   0   0   F    F  1.41D-01 0.00173820 0.00055267 0.00142530 0.00049382    0.0358653 ----
   189   0   0   F    T  2.86D+00 0.00107305 0.00039686 0.01085651 0.00400657    0.0358652 ----
   190   0   0   F    F  4.31D-02 0.00107305 0.00039686 0.00046774 0.00017262    0.0358581 ---+
   191   0   0   F    T  2.80D+00 0.00151790 0.00040367 0.01064574 0.00417919    0.0358581 ----
   192   0   0   F    T  3.21D+00 0.00097233 0.00036789 0.00980314 0.00417919    0.0358513 ----
   193   0   0   T    F  4.23D-01 0.00097233 0.00036789 0.00414691 0.00176787    0.0358537 ----
   194   0   0   F    T  1.37D+00 0.00106312 0.00035956 0.00394081 0.00176787    0.0358486 ----
   195   0   0   F    F  7.20D-01 0.00106312 0.00035956 0.00283822 0.00127324    0.0358448 ----
   196   0   0   F    T  2.62D+00 0.00084008 0.00033352 0.00730570 0.00304112    0.0358440 ----
   197   0   0   F    F -1.63D-01 0.00084008 0.00033352 0.00118753 0.00049433    0.0358404 ----
   198   0   0   F    T  3.48D+00 0.00042579 0.00025741 0.00617255 0.00254679    0.0358403 ----
   199   0   0   F    F -9.16D-02 0.00042579 0.00025741 0.00056536 0.00023327    0.0358372 ---+
   200   0   0   F    T  2.45D+00 0.00062035 0.00028535 0.00554563 0.00231352    0.0358372 ----
   201   0   0   F    F -4.44D-01 0.00062035 0.00028535 0.00246416 0.00102800    0.0358366 ----
   202   0   0   F    T  1.36D+00 0.00070746 0.00027937 0.00355959 0.00128552    0.0358355 ----
   203   0   0   F    F  1.11D+00 0.00070746 0.00027937 0.00393667 0.00142170    0.0358331 ----
   204   0   0   F    T  2.31D+00 0.00081328 0.00030527 0.00743194 0.00270723    0.0358322 ----
   205   0   0   F    F  8.15D-01 0.00081328 0.00030527 0.00605406 0.00220531    0.0358275 ----
   206   0   0   F    T  2.50D+00 0.00128414 0.00039245 0.01297262 0.00491254    0.0358263 ----
   207   0   0   F    F -1.66D-01 0.00128414 0.00039245 0.00215704 0.00081684    0.0358217 ----
   208   0   0   F    T  2.89D+00 0.00072524 0.00032855 0.01012526 0.00409570    0.0358215 ----
   209   0   0   T    F  4.21D-01 0.00072524 0.00032855 0.00426619 0.00172569    0.0358232 ----
   210   0   0   F    T  1.68D+00 0.00065026 0.00027404 0.00404912 0.00172569    0.0358195 ----
   211   0   0   F    F  4.39D-01 0.00065026 0.00027404 0.00177700 0.00075733    0.0358170 ----
   212   0   0   F    T  2.16D+00 0.00085166 0.00028572 0.00590532 0.00248302    0.0358168 ----
   213   0   0   F    F  1.53D+00 0.00085166 0.00028572 0.00903653 0.00379961    0.0358125 ----
   214   0   0   F    T  3.22D+00 0.00089878 0.00036876 0.01423000 0.00628263    0.0358101 ----
   215   0   0   T    F  4.75D-01 0.00089878 0.00036876 0.00675900 0.00298414    0.0358108 ----
   216   0   0   F    T  2.85D+00 0.00082237 0.00026628 0.00744573 0.00298414    0.0358070 ----
   217   0   0   T    F  3.98D-01 0.00082237 0.00026628 0.00296345 0.00118771    0.0358085 ----
   218   0   0   F    T  1.90D+00 0.00056123 0.00019993 0.00340382 0.00118771    0.0358058 ----
   219   0   0   F    F  5.62D-01 0.00056123 0.00019993 0.00191363 0.00066773    0.0358042 ----
   220   0   0   F    T  2.17D+00 0.00044168 0.00022953 0.00568159 0.00185544    0.0358040 ----
   221   0   0   F    F  6.90D-01 0.00044168 0.00022953 0.00392103 0.00128049    0.0358016 ----
   222   0   0   F    T  4.79D+00 0.00052569 0.00019803 0.00998384 0.00313593    0.0358011 ----
   223   0   0   T    F  3.31D-01 0.00052569 0.00019803 0.00330911 0.00103939    0.0358039 ----
   224   0   0   F    T  1.45D+00 0.00066142 0.00020265 0.00342705 0.00103939    0.0358002 ----
   225   0   0   F    T  2.89D+00 0.00029075 0.00014195 0.00353287 0.00103939    0.0357992 ----
   226   0   0   F    F  4.09D-01 0.00029075 0.00014195 0.00144563 0.00042531    0.0357981 ----
   227   0   0   F    T  1.89D+00 0.00055521 0.00020103 0.00511728 0.00146471    0.0357980 ----
   228   0   0   F    F  6.62D-01 0.00055521 0.00020103 0.00338916 0.00097007    0.0357964 ----
   229   0   0   F    T  2.66D+00 0.00067609 0.00022061 0.00876527 0.00243478    0.0357961 ----
   230   0   0   F    F -4.57D-01 0.00067609 0.00022061 0.00400537 0.00111260    0.0357957 ----
   231   0   0   F    T  1.60D+00 0.00060172 0.00020659 0.00481308 0.00132218    0.0357950 ----
   232   0   0   F    T  3.94D+00 0.00023605 0.00012366 0.00485252 0.00132218    0.0357940 ----
   233   0   0   F    F -3.60D-01 0.00023605 0.00012366 0.00174662 0.00047591    0.0357936 ----
   234   0   0   F    T  3.11D+00 0.00024605 0.00010895 0.00293651 0.00084628    0.0357934 ----
   235   0   0   F    T  3.13D+00 0.00024111 0.00010476 0.00258733 0.00084628    0.0357929 ----
   236   0   0   T    F  4.95D-01 0.00024111 0.00010476 0.00127970 0.00041857    0.0357929 ----
   237   0   0   F    T  1.27D+00 0.00029424 0.00011031 0.00121553 0.00041857    0.0357926 ----
   238   0   0   F    F  7.03D-01 0.00029424 0.00011031 0.00085445 0.00029423    0.0357923 ---+
   239   0   0   F    T  2.31D+00 0.00024424 0.00010599 0.00224684 0.00071280    0.0357922 ----
   240   0   0   F    T  3.21D+00 0.00021656 0.00008535 0.00245388 0.00071280    0.0357918 ----
   241   0   0   F    F -2.31D-01 0.00021656 0.00008535 0.00056739 0.00016481    0.0357916 ---+
   242   0   0   F    T  2.33D+00 0.00027875 0.00008629 0.00199406 0.00054798    0.0357916 ----
   243   0   0   T    F  4.70D-01 0.00027875 0.00008629 0.00093712 0.00025753    0.0357916 ---+
   244   0   0   F    T  1.68D+00 0.00014049 0.00006577 0.00100124 0.00025753    0.0357914 -+-+
   245   0   0   F    F  1.16D+00 0.00014049 0.00006577 0.00115794 0.00029784    0.0357913 -+-+
   246   0   0   F    T  2.38D+00 0.00023126 0.00007873 0.00218062 0.00055537    0.0357912 ----
   247   0   0   F    F  6.79D-01 0.00023126 0.00007873 0.00148039 0.00037703    0.0357909 ----
   248   0   0   F    T  2.33D+00 0.00023080 0.00010115 0.00356948 0.00093240    0.0357908 ----
   249   0   0   F    F -2.18D-01 0.00023080 0.00010115 0.00077985 0.00020371    0.0357906 ---+
   250   0   0   F    T  1.86D+00 0.00024476 0.00009851 0.00269119 0.00072869    0.0357905 ----
   251   0   0   F    F -2.16D-01 0.00024476 0.00009851 0.00058029 0.00015712    0.0357903 ---+
   252   0   0   F    T  1.73D+00 0.00029051 0.00008897 0.00201284 0.00057157    0.0357903 ----
   253   0   0   F    F  6.46D-01 0.00029051 0.00008897 0.00129957 0.00036903    0.0357900 ----
   254   0   0   F    T  4.50D+00 0.00019648 0.00006858 0.00297534 0.00094059    0.0357900 -+--
   255   0   0   F    F -3.87D-01 0.00019648 0.00006858 0.00115286 0.00036445    0.0357899 -+--
   256   0   0   F    T  2.68D+00 0.00014731 0.00006782 0.00166295 0.00057614    0.0357898 -+--
   257   0   0   F    F -4.03D-01 0.00014731 0.00006782 0.00066978 0.00023205    0.0357897 -+-+
   258   0   0   F    T  1.27D+00 0.00017728 0.00007480 0.00092219 0.00034409    0.0357897 -+--
   259   0   0   F    F  8.77D-01 0.00017728 0.00007480 0.00080831 0.00030160    0.0357895 -+--
   260   0   0   F    T  2.12D+00 0.00021686 0.00007782 0.00158849 0.00064569    0.0357895 ----
   261   0   0   F    F  3.09D-01 0.00021686 0.00007782 0.00049041 0.00019934    0.0357893 ---+
   262   0   0   F    T  4.19D+00 0.00015495 0.00006177 0.00179802 0.00084503    0.0357892 -+--
   263   0   0   T    F  4.67D-01 0.00015495 0.00006177 0.00083886 0.00039425    0.0357893 -+--
   264   0   0   F    T  2.42D+00 0.00010132 0.00005386 0.00098094 0.00039425    0.0357891 ++--
   265   0   0   F    T  1.00D+00 0.00027149 0.00008938 0.00128607 0.00051382    0.0357891 ----
   266   0   0   F    T  4.25D+00 0.00025370 0.00009414 0.00112921 0.00051382    0.0357890 ----
   267   0   0   T    T  1.00D+00 0.00164195 0.00053385 0.00164195 0.00053385    0.0357912 ----
   268   0   0   T    F  5.00D-01 0.00164195 0.00053385 0.00082098 0.00026692    0.0357982 ---+
   269   0   0   T    F  5.00D-01 0.00164195 0.00053385 0.00041049 0.00013346    0.0357916 --++
   270   0   0   T    F  5.00D-01 0.00164195 0.00053385 0.00020524 0.00006673    0.0357898 --++
   271   0   0   T    F  5.00D-01 0.00164195 0.00053385 0.00010262 0.00003337    0.0357893 --++
   272   0   0   T    F  5.00D-01 0.00164195 0.00053385 0.00005131 0.00001668    0.0357891 --++
   273   0   0   T    F  5.00D-01 0.00164195 0.00053385 0.00002566 0.00000834    0.0357891 --++
   274   0   0   T    F  5.00D-01 0.00164195 0.00053385 0.00001283 0.00000417    0.0357890 --++
   275   0   0   T    F  5.00D-01 0.00164195 0.00053385 0.00000641 0.00000209    0.0357890 --++
   276   0   0   T    F  5.00D-01 0.00164195 0.00053385 0.00000321 0.00000104    0.0357890 --++
   277   0   0   T    F  5.00D-01 0.00164195 0.00053385 0.00000160 0.00000052    0.0357890 --++
   278   0   0   T    F  5.00D-01 0.00164195 0.00053385 0.00000080 0.00000026    0.0357890 --++
   279   0   0   T    T  1.00D+00 0.00025518 0.00009455 0.00008776 0.00004626    0.0357890 --++
   280   0   0   F    T  1.00D+00 0.00027517 0.00009145 0.00027450 0.00009140    0.0357890 --++
   281   0   0   F    T  1.14D+00 0.00021858 0.00007736 0.00020138 0.00009140    0.0357889 --++
   282   0   0   T    F  5.00D-01 0.00021858 0.00007736 0.00010069 0.00004570    0.0357891 --++
   283   0   0   T    F  5.00D-01 0.00021858 0.00007736 0.00005035 0.00002285    0.0357890 --++
   284   0   0   T    F  5.00D-01 0.00021858 0.00007736 0.00002517 0.00001143    0.0357889 --++
   285   0   0   T    F  5.00D-01 0.00021858 0.00007736 0.00001259 0.00000571    0.0357889 --++
   286   0   0   T    F  5.00D-01 0.00021858 0.00007736 0.00000629 0.00000286    0.0357889 --++
   287   0   0   T    F  5.00D-01 0.00021858 0.00007736 0.00000315 0.00000143    0.0357889 --++
   288   0   0   T    F  5.00D-01 0.00021858 0.00007736 0.00000157 0.00000071    0.0357889 --++
   289   0   0   T    F  5.00D-01 0.00021858 0.00007736 0.00000079 0.00000036    0.0357889 --++
   290   0   0   T    T  1.00D+00 0.00021976 0.00007770 0.00020836 0.00007351    0.0357889 --++
   291   0   0   F    T  1.96D+00 0.00012684 0.00004439 0.00016364 0.00007351    0.0357889 -+++
   292   0   0   T    F  5.00D-01 0.00012684 0.00004439 0.00008182 0.00003675    0.0357889 -+++
   293   0   0   T    F  5.00D-01 0.00012684 0.00004439 0.00004091 0.00001838    0.0357889 -+++
   294   0   0   T    F  5.00D-01 0.00012684 0.00004439 0.00002046 0.00000919    0.0357889 -+++
   295   0   0   T    F  5.00D-01 0.00012684 0.00004439 0.00001023 0.00000459    0.0357889 -+++
   296   0   0   T    F  5.00D-01 0.00012684 0.00004439 0.00000511 0.00000230    0.0357889 -+++
   297   0   0   T    F  5.00D-01 0.00012684 0.00004439 0.00000256 0.00000115    0.0357889 -+++
   298   0   0   T    F  5.00D-01 0.00012684 0.00004439 0.00000128 0.00000057    0.0357889 -+++
   299   0   0   T    F  5.00D-01 0.00012684 0.00004439 0.00000064 0.00000029    0.0357889 -+++
   300   0   0   T    T  1.00D+00 0.00012764 0.00004460 0.00012354 0.00004446    0.0357889 -+++
   301   0   0   F    T  1.09D+00 0.00009321 0.00003656 0.00009103 0.00004446    0.0357889 ====
 ****************************
 MOLECULAR MECHANICS FUNCTION
 ****************************
 Atomic parameters:
 Center  VDW
      1 1.9080 0.0860000
      2 1.7210 0.2104000
      3 1.9080 0.1094000
      4 1.4870 0.0157000
      5 1.4870 0.0157000
      6 1.8750 0.1700000
      7 0.6000 0.0157000
      8 0.6000 0.0157000
      9 1.6612 0.2100000
     10 0.0000 0.0000000
 Molecular mechanics terms:
 NBDir 3 1      0      0
 HrmStr1  1- 2  431.53 1.3510
 HrmStr1  1- 3  294.15 1.5090
 HrmStr1  1- 9  946.08 1.2030
 HrmStr1  2-10  566.76 0.9680
 HrmStr1  3- 4  358.05 1.0960
 HrmStr1  3- 5  358.05 1.0960
 HrmStr1  3- 6  380.82 1.4520
 HrmStr1  6- 7  506.01 1.0110
 HrmStr1  6- 8  506.01 1.0110
 HrmBnd1  1- 2-10  56.55 107.23
 HrmBnd1  1- 3- 4  46.41 106.89
 HrmBnd1  1- 3- 5  46.41 106.89
 HrmBnd1  1- 3- 6  59.93 110.61
 HrmBnd1  2- 1- 3  67.92 111.72
 HrmBnd1  2- 1- 9  91.40 123.02
 HrmBnd1  3- 1- 9  62.83 125.24
 HrmBnd1  3- 6- 7  52.60 110.71
 HrmBnd1  3- 6- 8  52.60 110.71
 HrmBnd1  4- 3- 5  44.68 106.22
 HrmBnd1  4- 3- 6  52.45 112.94
 HrmBnd1  5- 3- 6  52.45 112.94
 HrmBnd1  7- 6- 8  47.09 108.63
 AmbTrs  3- 1- 2-10   0 180   0   0  0.0000 14.5000  0.0000  0.0000  2.0
 AmbTrs  9- 1- 2-10   0   0   0   0  0.0000 14.5000  0.0000  0.0000  2.0
 AmbTrs  2- 1- 3- 4   0   0   0   0  0.0000 14.5000  0.0000  0.0000  6.0
 AmbTrs  2- 1- 3- 5   0   0   0   0  0.0000 14.5000  0.0000  0.0000  6.0
 AmbTrs  2- 1- 3- 6   0   0   0   0  0.0000 14.5000  0.0000  0.0000  6.0
 AmbTrs  9- 1- 3- 4   0   0   0   0  0.0000 14.5000  0.0000  0.0000  6.0
 AmbTrs  9- 1- 3- 5   0   0   0   0  0.0000 14.5000  0.0000  0.0000  6.0
 AmbTrs  9- 1- 3- 6   0   0   0   0  0.0000 14.5000  0.0000  0.0000  6.0
 AmbTrs  1- 3- 6- 7   0 180   0   0  0.0000 25.6300  0.0000  0.0000  6.0
 AmbTrs  1- 3- 6- 8   0 180   0   0  0.0000 25.6300  0.0000  0.0000  6.0
 AmbTrs  4- 3- 6- 7   0   0   0   0  0.0000  0.0000  0.0000  0.0000  6.0
 AmbTrs  4- 3- 6- 8   0   0   0   0  0.0000  0.0000  0.0000  0.0000  6.0
 AmbTrs  5- 3- 6- 7   0   0   0   0  0.0000  0.0000  0.0000  0.0000  6.0
 AmbTrs  5- 3- 6- 8   0   0   0   0  0.0000  0.0000  0.0000  0.0000  6.0
 NBPair  2- 1 3 1      0      0 -1.000 -1.000
 NBPair  3- 2 3 1      0      0 -1.000 -1.000
 NBPair 10- 3 3 1      0      0 -0.500 -0.167
 NBPair  9- 2 3 1      0      0 -1.000 -1.000
 NBPair 10- 9 3 1      0      0 -0.500 -0.167
 NBPair  3- 1 3 1      0      0 -1.000 -1.000
 NBPair  4- 2 3 1      0      0 -0.500 -0.167
 NBPair  5- 2 3 1      0      0 -0.500 -0.167
 NBPair  6- 2 3 1      0      0 -0.500 -0.167
 NBPair  9- 3 3 1      0      0 -1.000 -1.000
 NBPair  9- 4 3 1      0      0 -0.500 -0.167
 NBPair  9- 5 3 1      0      0 -0.500 -0.167
 NBPair  9- 6 3 1      0      0 -0.500 -0.167
 NBPair  9- 1 3 1      0      0 -1.000 -1.000
 NBPair 10- 1 3 1      0      0 -1.000 -1.000
 NBPair 10- 2 3 1      0      0 -1.000 -1.000
 NBPair  4- 1 3 1      0      0 -1.000 -1.000
 NBPair  5- 1 3 1      0      0 -1.000 -1.000
 NBPair  6- 1 3 1      0      0 -1.000 -1.000
 NBPair  4- 3 3 1      0      0 -1.000 -1.000
 NBPair  5- 4 3 1      0      0 -1.000 -1.000
 NBPair  6- 4 3 1      0      0 -1.000 -1.000
 NBPair  5- 3 3 1      0      0 -1.000 -1.000
 NBPair  6- 5 3 1      0      0 -1.000 -1.000
 NBPair  6- 3 3 1      0      0 -1.000 -1.000
 NBPair  7- 1 3 1      0      0 -0.500 -0.167
 NBPair  8- 1 3 1      0      0 -0.500 -0.167
 NBPair  7- 4 3 1      0      0 -0.500 -0.167
 NBPair  8- 4 3 1      0      0 -0.500 -0.167
 NBPair  7- 5 3 1      0      0 -0.500 -0.167
 NBPair  8- 5 3 1      0      0 -0.500 -0.167
 NBPair  7- 3 3 1      0      0 -1.000 -1.000
 NBPair  8- 3 3 1      0      0 -1.000 -1.000
 NBPair  7- 6 3 1      0      0 -1.000 -1.000
 NBPair  8- 7 3 1      0      0 -1.000 -1.000
 NBPair  8- 6 3 1      0      0 -1.000 -1.000
 Energy per function type:
 Direct Coulomb + vdW (small)                           0.003417535
 Direct Coulomb (large)                                -0.131629996
 Direct vdW (large)                                   269.112277534
 Non-direct Coulomb + vdW (small)                      -0.011887788
 Non-direct Coulomb (large)                             0.137957143
 Non-direct vdW (large)                              -269.112277534
 Harmonic stretch I                                     0.000104842
 Harmonic bend I                                        0.004568313
 Amber torsion                                          0.033258806
 Energy per function class:
        Coulomb              -0.003643228
    Vanderwaals               0.001500123
     Stretching               0.000104842
        Bending               0.004568313
        Torsion               0.033258806
 Energy=    3.578885642E-02 NIter=   0.
 Dipole moment=       0.493751       0.176869       0.089616
 Leave Link  402 at Wed Nov 29 12:05:18 2023, MaxMem=   134217728 cpu:               0.5 elap:               0.5
 (Enter /home/emanuele/chem_software/gaussian//gdv/l716.exe)
 Dipole        = 4.93750633D-01 1.76868951D-01 8.96160669D-02
 -------------------------------------------------------------------
 Center     Atomic                   Forces (Hartrees/Bohr)
 Number     Number              X              Y              Z
 -------------------------------------------------------------------
      1        6           0.000087672    0.000093212   -0.000009961
      2        8           0.000007922   -0.000029743    0.000015503
      3        6          -0.000016726   -0.000007560    0.000001760
      4        1          -0.000007655    0.000000306   -0.000023791
      5        1          -0.000016886    0.000039461    0.000014406
      6        7           0.000023644   -0.000008516   -0.000001177
      7        1          -0.000000914    0.000031218   -0.000012796
      8        1           0.000011673   -0.000032242    0.000023020
      9        8          -0.000080267   -0.000091786    0.000018190
     10        1          -0.000008463    0.000005650   -0.000025153
 -------------------------------------------------------------------
 Cartesian Forces:  Max     0.000093212 RMS     0.000036555
 Z-matrix is all fixed cartesians, so copy forces.
 Leave Link  716 at Wed Nov 29 12:05:18 2023, MaxMem=   134217728 cpu:               0.0 elap:               0.0
 (Enter /home/emanuele/chem_software/gaussian//gdv/l103.exe)

 GradGradGradGradGradGradGradGradGradGradGradGradGradGradGradGradGradGrad
 Berny optimization.
 Search for a local minimum.
 Step number   1 out of a maximum of    2
 All quantities printed in internal units (Hartrees-Bohrs-Radians)
 RMS Force = .36555D-04 SwitMx=.10000D-02 MixMth= 2
 Mixed Optimization -- En-DIIS/RFO-DIIS
 Second derivative matrix not updated -- unit matrix used.
 ITU=  0
 RFO step:  Lambda=-4.00887811D-08 EMin= 1.00000000D+00
 Linear search not attempted -- first point.
 Variable       Old X    -DE/DX   Delta X   Delta X   Delta X     New X
                                 (Linear)    (Quad)   (Total)
    X1       -1.25322   0.00009   0.00000   0.00009   0.00009  -1.25313
    Y1       -0.23471   0.00009   0.00000   0.00009   0.00009  -0.23462
    Z1        0.16218  -0.00001   0.00000  -0.00001  -0.00001   0.16217
    X2       -1.82399   0.00001   0.00000   0.00001   0.00001  -1.82398
    Y2        1.96218  -0.00003   0.00000  -0.00003  -0.00003   1.96215
    Z2       -1.00183   0.00002   0.00000   0.00002   0.00002  -1.00182
    X3        1.42316  -0.00002   0.00000  -0.00002  -0.00002   1.42315
    Y3       -0.99631  -0.00001   0.00000  -0.00001  -0.00001  -0.99632
    Z3       -0.56151   0.00000   0.00000   0.00000   0.00000  -0.56151
    X4        1.33694  -0.00001   0.00000  -0.00001  -0.00001   1.33693
    Y4       -3.02173   0.00000   0.00000   0.00000   0.00000  -3.02173
    Z4       -0.99574  -0.00002   0.00000  -0.00002  -0.00002  -0.99577
    X5        1.84591  -0.00002   0.00000  -0.00002  -0.00002   1.84589
    Y5       -0.19170   0.00004   0.00000   0.00004   0.00004  -0.19166
    Z5       -2.42581   0.00001   0.00000   0.00001   0.00001  -2.42579
    X6        3.26361   0.00002   0.00000   0.00002   0.00002   3.26363
    Y6       -0.39577  -0.00001   0.00000  -0.00001  -0.00001  -0.39578
    Z6        1.40056  -0.00000   0.00000  -0.00000  -0.00000   1.40056
    X7        2.52534  -0.00000   0.00000  -0.00000  -0.00000   2.52534
    Y7       -0.22247   0.00003   0.00000   0.00003   0.00003  -0.22243
    Z7        3.15560  -0.00001   0.00000  -0.00001  -0.00001   3.15558
    X8        4.87358   0.00001   0.00000   0.00001   0.00001   4.87359
    Y8       -1.42307  -0.00003   0.00000  -0.00003  -0.00003  -1.42310
    Z8        1.32386   0.00002   0.00000   0.00002   0.00002   1.32389
    X9       -2.84648  -0.00008   0.00000  -0.00008  -0.00008  -2.84656
    Y9       -1.84719  -0.00009   0.00000  -0.00009  -0.00009  -1.84728
    Z9        0.31328   0.00002   0.00000   0.00002   0.00002   0.31329
   X10       -3.14272  -0.00001   0.00000  -0.00001  -0.00001  -3.14273
   Y10        2.73572   0.00001   0.00000   0.00001   0.00001   2.73572
   Z10       -0.00062  -0.00003   0.00000  -0.00003  -0.00003  -0.00065
         Item               Value     Threshold  Converged?
 Maximum Force            0.000093     0.000450     YES
 RMS     Force            0.000037     0.000300     YES
 Maximum Displacement     0.000093     0.001800     YES
 RMS     Displacement     0.000037     0.001200     YES
 Predicted change in Energy=-2.004439D-08
 Optimization completed.
    -- Stationary point found.
 Largest change from initial coordinates is atom    7       0.249 Angstoms.
 GradGradGradGradGradGradGradGradGradGradGradGradGradGradGradGradGradGrad

 Leave Link  103 at Wed Nov 29 12:05:18 2023, MaxMem=   134217728 cpu:               0.0 elap:               0.0
 (Enter /home/emanuele/chem_software/gaussian//gdv/l202.exe)
                          Input orientation:                          
 ---------------------------------------------------------------------
 Center     Atomic      Atomic             Coordinates (Angstroms)
 Number     Number       Type             X           Y           Z
 ---------------------------------------------------------------------
      1          6    20001002       -0.663174   -0.124205    0.085823
      2          8    20001022       -0.965212    1.038339   -0.530148
      3          6    20001001        0.753105   -0.527226   -0.297139
      4          1    20001034        0.707478   -1.599029   -0.526925
      5          1    20001034        0.976811   -0.101443   -1.283683
      6          7    20001020        1.727028   -0.209431    0.741145
      7          1    20001029        1.336353   -0.117724    1.669870
      8          1    20001029        2.578986   -0.753058    0.700558
      9          8    20001025       -1.506294   -0.977491    0.165778
     10          1    20001031       -1.663055    1.447679   -0.000329
 ---------------------------------------------------------------------
                    Distance matrix (angstroms):
                    1          2          3          4          5
     1  C    0.000000
     2  O    1.349873   0.000000
     3  C    1.521490   2.336215   0.000000
     4  H    2.104579   3.123077   1.097108   0.000000
     5  H    2.136730   2.374526   1.097545   1.699408   0.000000
     6  N    2.479874   3.228200   1.458613   2.139736   2.162040
     7  H    2.550952   3.387294   2.092127   2.723171   2.975400
     8  H    3.359309   4.157533   2.092902   2.392682   2.632257
     9  O    1.202223   2.200148   2.349875   2.401443   3.005696
    10  H    1.864941   0.967084   3.134673   3.896044   3.318986
                    6          7          8          9         10
     6  N    0.000000
     7  H    1.011714   0.000000
     8  H    1.011440   1.699221   0.000000
     9  O    3.372733   3.328983   4.126242   0.000000
    10  H    3.845577   3.773129   4.830052   2.435901   0.000000
 Symmetry turned off by external request.
 Stoichiometry    C2H5NO2
 Framework group  C1[X(C2H5NO2)]
 Deg. of freedom    24
 Full point group                 C1      NOp   1
 Rotational constants (GHZ):           9.4762263           3.7793942           3.0758697
 Leave Link  202 at Wed Nov 29 12:05:18 2023, MaxMem=   134217728 cpu:               0.0 elap:               0.0
 (Enter /home/emanuele/chem_software/gaussian//gdv/l9999.exe)
 Unable to Open any file for archive entry.
 1\1\GINC-EMANUELE-XPS-13-9343\FOpt\AMBER\ZDO\C2H5N1O2\EMANUELE\29-Nov-
 2023\0\\#p Amber=(SoftFirst,Print) geom=nocrowd nosymm opt=(maxcycle=3
 00)\\Title\\0,1\C,-0.6631738481,-0.1242051456,0.0858231881\O,-0.965212
 3548,1.0383390604,-0.5301477086\C,0.7531051243,-0.5272257569,-0.297138
 8745\H,0.7074775439,-1.5990289758,-0.5269254611\H,0.9768112796,-0.1014
 427396,-1.2836825318\N,1.7270278185,-0.2094311095,0.7411454974\H,1.336
 3532674,-0.1177236959,1.6698697752\H,2.5789860745,-0.7530576097,0.7005
 581147\O,-1.5062935366,-0.9774906414,0.165778356\H,-1.6630553685,1.447
 6786141,-0.0003293557\\Version=ES64L-GDVRevJ.14\HF=0.0357889\RMSD=0.00
 0e+00\RMSF=3.656e-05\Dipole=0.4937506,0.176869,0.0896161\PG=C01 [X(C2H
 5N1O2)]\\@
 The archive entry for this job was punched.


 WHEN YOU REACH FOR THE STARS, YOU MAY NOT QUITE GET ONE,
 BUT YOU WON'T COME UP WITH A HANDFUL OF MUD, EITHER.

                                         -- LEO BURNETT (AD AGENCY HEAD)
 Job cpu time:       0 days  0 hours  0 minutes  1.1 seconds.
 Elapsed time:       0 days  0 hours  0 minutes  1.0 seconds.
 File lengths (MBytes):  RWF=      6 Int=      0 D2E=      0 Chk=      1 Scr=      1
 Normal termination of Gaussian DV at Wed Nov 29 12:05:18 2023.
