 Entering Gaussian System, Link 0=/home/emanuele/chem_software/gaussian//g09/g09
 Input=0_mm_0.gjf
 Output=0_mm_0.log
 Initial command:
 /home/emanuele/chem_software/gaussian//gdv/l1.exe "/home/emanuele/chem_software/gaussian/scratch/Gau-13782.inp" -scrdir="/home/emanuele/chem_software/gaussian/scratch/"
 Entering Link 1 = /home/emanuele/chem_software/gaussian//gdv/l1.exe PID=     13784.
  
 Copyright (c) 1988-2020, Gaussian, Inc.  All Rights Reserved.
  
 This is the private, development version of
 the Gaussian(R) DV system of programs. It is based on
 the Gaussian(R) 16 system (copyright 2016, Gaussian, Inc.),
 the Gaussian(R) 09 system (copyright 2009, Gaussian, Inc.),
 the Gaussian(R) 03 system (copyright 2003, Gaussian, Inc.),
 the Gaussian(R) 98 system (copyright 1998, Gaussian, Inc.),
 the Gaussian(R) 94 system (copyright 1995, Gaussian, Inc.),
 the Gaussian 92(TM) system (copyright 1992, Gaussian, Inc.),
 the Gaussian 90(TM) system (copyright 1990, Gaussian, Inc.),
 the Gaussian 88(TM) system (copyright 1988, Gaussian, Inc.),
 the Gaussian 86(TM) system (copyright 1986, Carnegie Mellon
 University), and the Gaussian 82(TM) system (copyright 1983,
 Carnegie Mellon University). Gaussian is a federally registered
 trademark of Gaussian, Inc.
  
 This software contains proprietary and confidential information,
 including trade secrets, belonging to Gaussian, Inc.
  
 This software is provided under written license and may be
 used, copied, transmitted, or stored only in accord with that
 written license.
  
 The following legend is applicable only to US Government
 contracts under FAR:
  
                    RESTRICTED RIGHTS LEGEND
  
 Use, reproduction and disclosure by the US Government is
 subject to restrictions as set forth in subparagraphs (a)
 and (c) of the Commercial Computer Software - Restricted
 Rights clause in FAR 52.227-19.
  
 Gaussian, Inc.
 340 Quinnipiac St., Bldg. 40, Wallingford CT 06492
  
  
 ---------------------------------------------------------------
 Warning -- This program may not be used in any manner that
 competes with the business of Gaussian, Inc. or will provide
 assistance to any competitor of Gaussian, Inc.  The licensee
 of this program is prohibited from giving any competitor of
 Gaussian, Inc. access to this program.  By using this program,
 the user acknowledges that Gaussian, Inc. is engaged in the
 business of creating and licensing software in the field of
 computational chemistry and represents and warrants to the
 licensee that it is not a competitor of Gaussian, Inc. and that
 it will not use this program in any manner prohibited above.
 ---------------------------------------------------------------
  

 Cite this work as:
 Gaussian Development Version, Revision J.14,
 M. J. Frisch, G. W. Trucks, H. B. Schlegel, G. E. Scuseria, 
 M. A. Robb, J. R. Cheeseman, G. Scalmani, V. Barone, 
 G. A. Petersson, H. Nakatsuji, X. Li, A. V. Marenich, M. Caricato, 
 J. Bloino, B. G. Janesko, J. Zheng, R. Gomperts, B. Mennucci, 
 H. P. Hratchian, J. V. Ortiz, A. F. Izmaylov, J. L. Sonnenberg, 
 D. Williams-Young, F. Ding, F. Lipparini, F. Egidi, J. Goings, 
 B. Peng, A. Petrone, T. Henderson, D. Ranasinghe, V. G. Zakrzewski, 
 J. Gao, N. Rega, G. Zheng, W. Liang, M. Hada, M. Ehara, K. Toyota, 
 R. Fukuda, J. Hasegawa, M. Ishida, T. Nakajima, Y. Honda, O. Kitao, 
 H. Nakai, T. Vreven, K. Throssell, J. A. Montgomery, Jr., 
 J. E. Peralta, F. Ogliaro, M. J. Bearpark, J. J. Heyd, 
 E. N. Brothers, K. N. Kudin, V. N. Staroverov, T. A. Keith, 
 R. Kobayashi, J. Normand, K. Raghavachari, A. P. Rendell, 
 J. C. Burant, S. S. Iyengar, J. Tomasi, M. Cossi, J. M. Millam, 
 M. Klene, C. Adamo, R. Cammi, J. W. Ochterski, R. L. Martin, 
 K. Morokuma, O. Farkas, J. B. Foresman, and D. J. Fox, 
 Gaussian, Inc., Wallingford CT, 2020.
 
 ******************************************
 Gaussian DV:  ES64L-GDVRevJ.14 29-Dec-2020
                29-Nov-2023 
 ******************************************
 %mem=1GB
 %nprocshared=1
 Will use up to    1 processors via shared memory.
 %chk=0_mm_0.chk
 -----------------------------------------------------------------
 #p Amber=(SoftFirst,Print) geom=nocrowd nosymm opt=(maxcycle=300)
 -----------------------------------------------------------------
 1/6=300,10=10,18=4000020,19=15,37=210000000,38=1,56=2,64=203/1,3;
 2/9=110,12=1,15=1,40=1/2;
 3/5=30,11=9,25=1,30=1,41=10030000,43=2,71=1/1;
 4/20=11,22=1001,24=3,119=11/2;
 7/30=1,44=-1/16;
 1/6=300,10=10,18=4000020,19=15,64=203/3(2);
 2/9=110,12=1,15=1/2;
 99//99;
 2/9=110,12=1,15=1/2;
 3/5=30,11=9,25=1,30=1,41=10030000,43=2,71=1/1;
 4/16=2,20=11,22=1001,24=3,119=11/2;
 7/30=1,44=-1/16;
 1/6=300,10=10,18=4000020,19=15,64=203/3(-4);
 2/9=110,12=1,15=1/2;
 99/9=10/99;
 Leave Link    1 at Wed Nov 29 12:05:10 2023, MaxMem=   134217728 cpu:               0.0 elap:               0.0
 (Enter /home/emanuele/chem_software/gaussian//gdv/l101.exe)
 -----
 Title
 -----
 Symbolic Z-matrix:
 Charge =  0 Multiplicity = 1
 C-C-+0.299289        -0.4734    0.1584    0.00625 
 O-OH--0.289770       -1.58872  -0.64638   0.07761 
 C-CT--0.035454        0.76353  -0.71989   0.03565 
 H-HC-+0.090426        0.48346  -1.55665   0.73293 
 H-HC-+0.095387        0.66151  -1.37352  -0.86608 
 N-N3--0.336253        2.07997  -0.05712   0.06895 
 H-H-+0.142619         2.19661   0.56438  -0.72813 
 H-H-+0.128282         2.1806    0.50999   0.90898 
 O-O2--0.308037       -0.59128   1.33117   0.26895 
 H-HO-+0.213510       -2.43026  -0.13397   0.21985 
 
 ITRead=  3  3  3  3  3  3  3  3  3  3
 MicOpt=  0  0  0  0  0  0  0  0  0  0
 NAtoms=     10 NQM=        0 NQMF=       0 NMMI=      0 NMMIF=      0
                NMic=      10 NMicF=      0.
                    Isotopes and Nuclear Properties:
 (Nuclear quadrupole moments (NQMom) in fm**2, nuclear magnetic moments (NMagM)
  in nuclear magnetons)

  Atom         1           2           3           4           5           6           7           8           9          10
 IAtWgt=          12          16          12           1           1          14           1           1          16           1
 AtmWgt=  12.0000000  15.9949146  12.0000000   1.0078250   1.0078250  14.0030740   1.0078250   1.0078250  15.9949146   1.0078250
 NucSpn=           0           0           0           1           1           2           1           1           0           1
 AtZEff=  -0.0000000  -0.0000000  -0.0000000  -0.0000000  -0.0000000  -0.0000000  -0.0000000  -0.0000000  -0.0000000  -0.0000000
 NQMom=    0.0000000   0.0000000   0.0000000   0.0000000   0.0000000   2.0440000   0.0000000   0.0000000   0.0000000   0.0000000
 NMagM=    0.0000000   0.0000000   0.0000000   2.7928460   2.7928460   0.4037610   2.7928460   2.7928460   0.0000000   2.7928460
 AtZNuc=   6.0000000   8.0000000   6.0000000   1.0000000   1.0000000   7.0000000   1.0000000   1.0000000   8.0000000   1.0000000
 Generating MM parameters.
 I=    1 IAn=  6 Valence= 5.
          JB=  1 J=    2 IAn=  8 IBT=12 Dist= 1.38D+00
          JB=  2 J=    3 IAn=  6 IBT= 1 Dist= 1.52D+00
          JB=  3 J=    9 IAn=  8 IBT= 2 Dist= 1.21D+00
 I=    2 IAn=  8 Valence= 3.
          JB=  1 J=    1 IAn=  6 IBT=12 Dist= 1.38D+00
          JB=  2 J=   10 IAn=  1 IBT= 1 Dist= 9.95D-01
 Read MM parameter file:
 Include all MM classes

 MM sanity checks:
 All charges sum to:               -0.00000100
 Charges of atoms sum to:          -0.00000100
 WARNING -- The following centers have non-zero partial charges, but zero Vanderwaals
 parameters.  These centers can collapse onto other centers with non-zero charge.
   Center  Layer   Charge
     10 H    R    0.213510
 MMInit generated parameter data with length LenPar=        2069.
 MM Charge=             -0.0000 electrons
 MM Dipole moment (Debye):
    X=             -0.2148    Y=             -1.3693    Z=             -0.4061  Tot=              1.4443
 MM Quadrupole moment (Debye-Ang):
   XX=              1.7995   YY=             -0.9471   ZZ=              1.3756
   XY=              1.0382   XZ=             -0.3645   YZ=             -0.4243
 MM Traceless Quadrupole moment (Debye-Ang):
   XX=              1.0568   YY=             -1.6897   ZZ=              0.6329
   XY=              1.0382   XZ=             -0.3645   YZ=             -0.4243
 MM Octapole moment (Debye-Ang**2):
  XXX=             -9.7637  YYY=             -5.6678  ZZZ=              0.0526  XYY=              4.2433
  XXY=              4.2185  XXZ=              0.5938  XZZ=              2.1880  YZZ=             -0.5137
  YYZ=             -0.7399  XYZ=              0.4170
 MM Hexadecapole moment (Debye-Ang**3):
 XXXX=             26.5025 YYYY=             -0.6412 ZZZZ=              0.9909 XXXY=              6.7296
 XXXZ=             -3.2848 YYYX=              0.3902 YYYZ=             -1.0956 ZZZX=              0.3044
 ZZZY=              0.1901 XXYY=              0.0973 XXZZ=              4.5790 YYZZ=              1.2694
 XXYZ=             -0.0344 YYXZ=              0.3219 ZZXY=              0.6214
 Leave Link  101 at Wed Nov 29 12:05:10 2023, MaxMem=   134217728 cpu:               0.2 elap:               0.2
 (Enter /home/emanuele/chem_software/gaussian//gdv/l103.exe)

 GradGradGradGradGradGradGradGradGradGradGradGradGradGradGradGradGradGrad
 Berny optimization.
 Initialization pass.
 No Z-matrix variables, so optimization will use Cartesian coordinates.
 Trust Radius=1.00D-01 FncErr=1.00D-07 GrdErr=1.00D-07 EigMax=2.50D+02 EigMin=1.00D-04
 Number of steps in this run=      2 maximum allowed number of steps=      2.
 GradGradGradGradGradGradGradGradGradGradGradGradGradGradGradGradGradGrad

 Leave Link  103 at Wed Nov 29 12:05:10 2023, MaxMem=   134217728 cpu:               0.0 elap:               0.0
 (Enter /home/emanuele/chem_software/gaussian//gdv/l202.exe)
                          Input orientation:                          
 ---------------------------------------------------------------------
 Center     Atomic      Atomic             Coordinates (Angstroms)
 Number     Number       Type             X           Y           Z
 ---------------------------------------------------------------------
      1          6    20001002       -0.473404    0.158404    0.006250
      2          8    20001022       -1.588716   -0.646375    0.077608
      3          6    20001001        0.763526   -0.719889    0.035646
      4          1    20001034        0.483460   -1.556652    0.732928
      5          1    20001034        0.661514   -1.373522   -0.866082
      6          7    20001020        2.079970   -0.057118    0.068954
      7          1    20001029        2.196610    0.564379   -0.728134
      8          1    20001029        2.180600    0.509989    0.908975
      9          8    20001025       -0.591275    1.331168    0.268953
     10          1    20001031       -2.430260   -0.133972    0.219853
 ---------------------------------------------------------------------
                    Distance matrix (angstroms):
                    1          2          3          4          5
     1  C    0.000000
     2  O    1.377201   0.000000
     3  C    1.517320   2.353765   0.000000
     4  H    2.094055   2.356260   1.124638   0.000000
     5  H    2.096616   2.546140   1.118372   1.619282   0.000000
     6  N    2.563221   3.715717   1.474245   2.288735   2.149239
     7  H    2.798769   4.055100   2.070370   3.093276   2.476088
     8  H    2.825290   4.029403   2.069638   2.679978   3.001010
     9  O    1.207593   2.223101   2.469160   3.116060   3.189535
    10  H    1.990074   0.995483   3.252307   3.282838   3.503542
                    6          7          8          9         10
     6  N    0.000000
     7  H    1.017454   0.000000
     8  H    1.018515   1.638090   0.000000
     9  O    3.017099   3.058505   2.960955   0.000000
    10  H    4.513408   4.774338   4.706337   2.351789   0.000000
 Symmetry turned off by external request.
 Stoichiometry    C2H5NO2
 Framework group  C1[X(C2H5NO2)]
 Deg. of freedom    24
 Full point group                 C1      NOp   1
 Rotational constants (GHZ):          10.1950586           3.7263511           2.8152106
 Leave Link  202 at Wed Nov 29 12:05:10 2023, MaxMem=   134217728 cpu:               0.0 elap:               0.0
 (Enter /home/emanuele/chem_software/gaussian//gdv/l301.exe)
 Standard basis: Dummy (5D, 7F)
    10 basis functions,    10 primitive gaussians,    10 cartesian basis functions
     7 alpha electrons        7 beta electrons
       nuclear repulsion energy        22.5449392749 Hartrees.
 IExCor=       0 DFT=F Ex=HF Corr=None N6=None ScaHFX=  1.000000
 ScaDFX=  1.000000  1.000000  1.000000  1.000000  1.000000  0.000000
 ScaDFX=  0.000000  0.000000  0.000000  0.000000  0.000000  0.000000
 IRadAn=      5 IRanWt=     -1 IRanGd=            0 ICorTp=0 IEmpDi=  4
 NAtoms=   10 NActive=   10 NUniq=   10 SFac= 1.00D+00 NAtFMM=   60 NAOKFM=F Big=F
 Integral buffers will be    131072 words long.
 Raffenetti 1 integral format.
 Two-electron integral symmetry is turned off.
 Leave Link  301 at Wed Nov 29 12:05:10 2023, MaxMem=   134217728 cpu:               0.1 elap:               0.1
 (Enter /home/emanuele/chem_software/gaussian//gdv/l402.exe)
 AMBER calculation of energy and first derivatives.
 NRF= 0 NRA=   0 NVA=  10 HaveQM=F NVQ=       0
 Convergence limit is  0.750E-04 MaxStp= 10000 StMxLn= 3.00D-04 StpMin= 1.00D-06.
 Convergence criteria             0.00011250 0.00007500 0.00045000 0.00030000
  Step  NS  ND Rises OKQ   Scale  Max. Force  RMS Force Max. Disp.  RMS Disp.     Energy   Flag
     1   0   0   F    T  1.00D+00 0.04379954 0.01643139 0.04379954 0.01643139    0.0829433 ----
     2   0   0   F    F  7.25D-01 0.04379954 0.01643139 0.03174163 0.01190787    0.0772258 ----
     3   0   0   F    T  1.94D+00 0.02889563 0.01186214 0.05604372 0.02833926    0.0760133 ----
     4   0   0   F    F -8.36D-02 0.02889563 0.01186214 0.00468313 0.00236809    0.0722778 ----
     5   0   0   F    T  1.02D+00 0.04423844 0.01425445 0.05298578 0.02597117    0.0722461 ----
     6   0   0   F    F  7.72D-01 0.04423844 0.01425445 0.04092387 0.02005898    0.0677700 ----
     7   0   0   F    T  3.34D+00 0.02290295 0.00936739 0.09450749 0.04603015    0.0667075 ----
     8   0   0   F    F -4.50D-01 0.02290295 0.00936739 0.04248391 0.02069192    0.0659283 ----
     9   0   0   F    T  2.01D+00 0.01985877 0.00804673 0.06541223 0.02533823    0.0642777 ----
    10   0   0   F    F  8.20D-01 0.01985877 0.00804673 0.05360950 0.02076630    0.0613607 ----
    11   0   0   F    F -1.58D-02 0.01985877 0.00804673 0.00084435 0.00032707    0.0605867 ----
    12   0   0   F    T  2.03D+00 0.03546297 0.01053705 0.12485218 0.04577746    0.0605865 ----
    13   0   0   T    F  4.56D-01 0.03546297 0.01053705 0.05699131 0.02089605    0.0613134 ----
    14   0   0   F    T  2.48D+00 0.01309718 0.00611354 0.04850251 0.02089605    0.0590331 ----
    15   0   0   F    F -3.79D-02 0.01309718 0.00611354 0.00184057 0.00079296    0.0576997 ----
    16   0   0   F    T  2.23D+00 0.01022560 0.00563008 0.04902483 0.02010309    0.0576977 ----
    17   0   0   F    F  7.65D-01 0.01022560 0.00563008 0.03751159 0.01538198    0.0561499 ----
    18   0   0   F    T  3.56D+00 0.01400013 0.00549710 0.08176195 0.03548507    0.0557825 ----
    19   0   0   F    F -3.95D-01 0.01400013 0.00549710 0.03227060 0.01400559    0.0552144 ----
    20   0   0   F    T  3.23D+00 0.01002947 0.00404684 0.04098653 0.02147948    0.0548198 ----
    21   0   0   T    F  4.46D-01 0.01002947 0.00404684 0.01826267 0.00957077    0.0550153 ----
    22   0   0   F    T  1.34D+00 0.01096997 0.00382640 0.01788789 0.00957077    0.0544658 ----
    23   0   0   F    F  2.03D-01 0.01096997 0.00382640 0.00362370 0.00193883    0.0541198 ----
    24   0   0   F    T  3.39D+00 0.00524145 0.00228696 0.01836962 0.01150960    0.0541097 ----
    25   0   0   F    F -2.85D-01 0.00524145 0.00228696 0.00523127 0.00327769    0.0539499 ----
    26   0   0   F    T  3.40D+00 0.00320134 0.00164747 0.01848919 0.00823191    0.0539200 ----
    27   0   0   F    T  5.15D+00 0.00247646 0.00113498 0.02564041 0.00823191    0.0537800 ----
    28   0   0   F    F -3.99D-01 0.00247646 0.00113498 0.01023220 0.00328507    0.0537463 ----
    29   0   0   F    T  1.98D+00 0.00377401 0.00130612 0.01662054 0.00494684    0.0537196 ----
    30   0   0   F    F  5.24D-01 0.00377401 0.00130612 0.00870743 0.00259163    0.0536516 ----
    31   0   0   F    T  4.34D+00 0.00245412 0.00099639 0.02371327 0.00753847    0.0536424 ----
    32   0   0   T    F  2.62D-01 0.00245412 0.00099639 0.00621659 0.00197626    0.0537596 ----
    33   0   0   F    T  1.28D+00 0.00258815 0.00085613 0.00586084 0.00197626    0.0536255 ----
    34   0   0   F    F  1.18D+00 0.00258815 0.00085613 0.00689726 0.00232574    0.0536038 ----
    35   0   0   F    T  2.44D+00 0.00188510 0.00085506 0.01214467 0.00430200    0.0535949 ----
    36   0   0   F    F  2.15D-01 0.00188510 0.00085506 0.00260992 0.00092451    0.0535633 ----
    37   0   0   F    T  4.46D+00 0.00132714 0.00063920 0.01307207 0.00522651    0.0535623 ----
    38   0   0   F    F -3.44D-01 0.00132714 0.00063920 0.00449862 0.00179865    0.0535493 ----
    39   0   0   F    T  2.11D+00 0.00198907 0.00071294 0.00760430 0.00342786    0.0535444 ----
    40   0   0   F    F  1.23D+00 0.00198907 0.00071294 0.00933255 0.00420692    0.0535194 ----
    41   0   0   F    T  2.15D+00 0.00277796 0.00102980 0.01872754 0.00763479    0.0535085 ----
    42   0   0   F    F -3.56D-01 0.00277796 0.00102980 0.00666914 0.00271885    0.0534932 ----
    43   0   0   F    T  1.59D+00 0.00240129 0.00094111 0.01139988 0.00491593    0.0534864 ----
    44   0   0   F    F  4.55D-01 0.00240129 0.00094111 0.00518839 0.00223737    0.0534587 ----
    45   0   0   F    T  2.04D+00 0.00262570 0.00098534 0.01748308 0.00715331    0.0534557 ----
    46   0   0   F    F  2.34D+00 0.00262570 0.00098534 0.04094278 0.01675199    0.0534055 ----
    47   0   0   F    T  4.84D+00 0.00269801 0.00112346 0.06037348 0.02390529    0.0533580 ----
    48   0   0   F    F -2.73D-01 0.00269801 0.00112346 0.01650553 0.00653548    0.0533010 ----
    49   0   0   F    T  2.33D+00 0.00253330 0.00136452 0.04545850 0.01736982    0.0532916 ----
    50   0   0   F    F  2.05D-01 0.00253330 0.00136452 0.00931619 0.00355974    0.0532133 ----
    51   0   0   F    T  1.60D+00 0.00500485 0.00183695 0.05094945 0.02092956    0.0532109 ----
    52   0   0   F    F  1.91D-01 0.00500485 0.00183695 0.00971538 0.00399099    0.0531179 ----
    53   0   0   F    T  1.39D+00 0.00601342 0.00220218 0.06259230 0.02492055    0.0531155 ----
    54   0   0   F    F  1.41D+00 0.00601342 0.00220218 0.08804602 0.03505471    0.0529450 ----
    55   0   0   F    F -5.44D-02 0.00601342 0.00220218 0.00479280 0.00190821    0.0528475 ----
    56   0   0   F    T  2.52D+00 0.00564321 0.00276522 0.13895486 0.05806705    0.0528471 ----
    57   0   0   F    F  3.27D-01 0.00564321 0.00276522 0.04546237 0.01899801    0.0524791 ----
    58   0   0   F    F -1.28D-01 0.00564321 0.00276522 0.00582870 0.00243572    0.0524576 ----
    59   0   0   F    T  7.67D+00 0.00662362 0.00277250 0.17045446 0.07462933    0.0524571 ----
    60   0   0   T    F  4.31D-01 0.00662362 0.00277250 0.07348575 0.03217395    0.0526608 ----
    61   0   0   F    T  1.88D+00 0.00793081 0.00352707 0.06788181 0.03217395    0.0520870 ----
    62   0   0   F    F  1.10D+00 0.00793081 0.00352707 0.07497155 0.03553427    0.0515923 ----
    63   0   0   F    F -5.47D-02 0.00793081 0.00352707 0.00409800 0.00194233    0.0514382 ----
    64   0   0   F    T  1.08D+00 0.01631621 0.00627752 0.15302143 0.06576589    0.0514377 ----
    65   0   0   F    F  1.30D-02 0.01631621 0.00627752 0.00199593 0.00085782    0.0506892 ----
    66   0   0   F    T  2.38D+00 0.01795788 0.00494298 0.15005540 0.06662370    0.0506890 ----
    67   0   0   F    F -6.22D-02 0.01795788 0.00494298 0.00933901 0.00414646    0.0498254 ----
    68   0   0   F    T  1.72D+00 0.01541065 0.00658684 0.11609644 0.06247724    0.0498211 ----
    69   0   0   F    F -2.75D-01 0.01541065 0.00658684 0.03194470 0.01719102    0.0491327 ----
    70   0   0   F    T  1.99D+00 0.01205119 0.00518178 0.09290438 0.04528621    0.0490231 ----
    71   0   0   F    F  1.93D-01 0.01205119 0.00518178 0.01791691 0.00873359    0.0480938 ----
    72   0   0   F    T  2.03D+00 0.01305353 0.00539369 0.11035018 0.05401981    0.0480694 ----
    73   0   0   F    F  1.08D+00 0.01305353 0.00539369 0.11872002 0.05811711    0.0467054 ----
    74   0   0   F    F -1.59D-01 0.01305353 0.00539369 0.01892888 0.00926627    0.0462686 ----
    75   0   0   F    T  4.70D+00 0.01139729 0.00521977 0.25765222 0.10287065    0.0462501 ----
    76   0   0   F    F  2.39D+00 0.01139729 0.00521977 0.61615020 0.24600513    0.0438788 ----
    77   0   0   T    F  3.19D-01 0.01139729 0.00521977 0.19673934 0.07855047    0.0526786 ----
    78   0   0   F    F -3.36D-02 0.01139729 0.00521977 0.00661207 0.00263994    0.0432698 ----
    79   0   0   F    F -6.68D-02 0.01139729 0.00521977 0.00044198 0.00017647    0.0432689 --++
    80   0   0   F    T  3.53D+00 0.01789318 0.00824496 0.44895324 0.17895764    0.0432689 ----
    81   0   0   T    F  2.92D-01 0.01789318 0.00824496 0.13131879 0.05234510    0.0525466 ----
    82   0   0   F    F -3.90D-03 0.01789318 0.00824496 0.00051181 0.00020401    0.0421498 ---+
    83   0   0   F    T  2.25D+00 0.01733283 0.00704946 0.14058926 0.05214108    0.0421498 ----
    84   0   0   F    F -3.62D-01 0.01733283 0.00704946 0.05086544 0.01886474    0.0414205 ----
    85   0   0   F    T  2.95D+00 0.01022260 0.00478997 0.09387091 0.03327635    0.0410910 ----
    86   0   0   F    F  2.87D-01 0.01022260 0.00478997 0.02695780 0.00955628    0.0398639 ----
    87   0   0   F    T  1.61D+00 0.01505717 0.00707490 0.11216848 0.04283263    0.0398011 ----
    88   0   0   F    F  1.30D-01 0.01505717 0.00707490 0.01460915 0.00557865    0.0384630 ----
    89   0   0   F    T  3.23D+00 0.00933240 0.00497690 0.12244078 0.04841128    0.0384454 ----
    90   0   0   T    F  3.72D-01 0.00933240 0.00497690 0.04559464 0.01802745    0.0393160 ----
    91   0   0   F    T  2.24D+00 0.00758238 0.00352374 0.04496690 0.01802745    0.0379967 ----
    92   0   0   F    F  2.71D-01 0.00758238 0.00352374 0.01217001 0.00487902    0.0374982 ----
    93   0   0   F    T  1.87D+00 0.00926527 0.00418452 0.05052055 0.02290646    0.0374751 ----
    94   0   0   F    F  2.18D-01 0.00926527 0.00418452 0.01101054 0.00499228    0.0368967 ----
    95   0   0   F    T  3.58D+00 0.00578119 0.00304817 0.06450468 0.02789874    0.0368777 ----
    96   0   0   T    F  4.21D-01 0.00578119 0.00304817 0.02715590 0.01174512    0.0370653 ----
    97   0   0   F    T  1.97D+00 0.00648211 0.00254279 0.02712656 0.01174512    0.0366680 ----
    98   0   0   F    F -1.14D-01 0.00648211 0.00254279 0.00308638 0.00133633    0.0365011 ----
    99   0   0   F    T  1.72D+00 0.00591948 0.00244637 0.02501761 0.01040880    0.0364983 ----
   100   0   0   F    F  3.53D-01 0.00591948 0.00244637 0.00883610 0.00367634    0.0363023 ----
   101   0   0   F    T  3.04D+00 0.00475950 0.00209109 0.03671796 0.01408513    0.0362879 ----
   102   0   0   F    F -3.32D-01 0.00475950 0.00209109 0.01219098 0.00467650    0.0361875 ----
   103   0   0   F    T  2.30D+00 0.00418465 0.00187389 0.02540063 0.00940863    0.0361545 ----
   104   0   0   F    F  1.75D-01 0.00418465 0.00187389 0.00443805 0.00164390    0.0360164 ----
   105   0   0   F    T  2.79D+00 0.00367315 0.00172326 0.02777481 0.01105253    0.0360134 ----
   106   0   0   T    F  4.66D-01 0.00367315 0.00172326 0.01295190 0.00515399    0.0360326 ----
   107   0   0   F    T  2.16D+00 0.00303948 0.00124285 0.01167197 0.00515399    0.0359552 ----
   108   0   0   F    F -3.11D-01 0.00303948 0.00124285 0.00363080 0.00160325    0.0359277 ----
   109   0   0   F    T  1.82D+00 0.00234344 0.00103725 0.00782770 0.00355074    0.0359207 ----
   110   0   0   F    F  5.93D-01 0.00234344 0.00103725 0.00464240 0.00210585    0.0358805 ----
   111   0   0   F    T  3.43D+00 0.00222470 0.00087514 0.01254374 0.00565660    0.0358740 ----
   112   0   0   F    F -4.73D-01 0.00222470 0.00087514 0.00593037 0.00267430    0.0358699 ----
   113   0   0   F    T  2.56D+00 0.00142839 0.00066649 0.00697474 0.00298230    0.0358532 ----
   114   0   0   F    T  1.94D+00 0.00175123 0.00071568 0.00660816 0.00298230    0.0358367 ----
   115   0   0   F    F -1.04D-01 0.00175123 0.00071568 0.00068896 0.00031093    0.0358240 ----
   116   0   0   F    T  1.78D+00 0.00205998 0.00068938 0.00539219 0.00267137    0.0358238 ----
   117   0   0   F    F -1.93D-01 0.00205998 0.00068938 0.00104072 0.00051559    0.0358142 ----
   118   0   0   F    T  3.22D+00 0.00095477 0.00039832 0.00484275 0.00215578    0.0358136 ----
   119   0   0   F    F -3.13D-01 0.00095477 0.00039832 0.00151777 0.00067564    0.0358094 ----
   120   0   0   F    T  1.84D+00 0.00100258 0.00040558 0.00402471 0.00148013    0.0358083 ----
   121   0   0   F    F  4.99D-01 0.00100258 0.00040558 0.00200825 0.00073856    0.0358022 ----
   122   0   0   F    T  2.85D+00 0.00120100 0.00037415 0.00604410 0.00221869    0.0358015 ----
   123   0   0   T    F  4.20D-01 0.00120100 0.00037415 0.00254102 0.00093277    0.0358037 ----
   124   0   0   F    T  2.05D+00 0.00070591 0.00025894 0.00255431 0.00093277    0.0357990 ----
   125   0   0   F    T  1.67D+00 0.00064385 0.00027179 0.00258592 0.00093277    0.0357968 ----
   126   0   0   F    F  6.40D-01 0.00064385 0.00027179 0.00165597 0.00059733    0.0357942 ----
   127   0   0   F    T  2.38D+00 0.00064058 0.00026605 0.00388360 0.00153010    0.0357937 ----
   128   0   0   F    F -2.96D-01 0.00064058 0.00026605 0.00114890 0.00045266    0.0357922 ----
   129   0   0   F    T  4.92D+00 0.00035542 0.00014211 0.00238079 0.00107744    0.0357919 ----
   130   0   0   T    F  2.30D-01 0.00035542 0.00014211 0.00054713 0.00024761    0.0357954 ---+
   131   0   0   F    T  1.45D+00 0.00036522 0.00010994 0.00049393 0.00024761    0.0357916 ---+
   132   0   0   F    F  1.34D+00 0.00036522 0.00010994 0.00066191 0.00033182    0.0357911 ----
   133   0   0   F    T  1.60D+00 0.00028397 0.00015213 0.00126977 0.00057943    0.0357909 ----
   134   0   0   F    F  2.62D-01 0.00028397 0.00015213 0.00033324 0.00015207    0.0357903 --++
   135   0   0   F    T  2.74D+00 0.00025192 0.00012309 0.00144194 0.00073150    0.0357902 ----
   136   0   0   F    F -2.34D-01 0.00025192 0.00012309 0.00033675 0.00017083    0.0357898 --++
   137   0   0   F    T  2.27D+00 0.00025857 0.00011195 0.00112819 0.00056066    0.0357898 ----
   138   0   0   F    F -3.07D-01 0.00025857 0.00011195 0.00034635 0.00017212    0.0357895 --++
   139   0   0   F    T  2.31D+00 0.00020616 0.00008565 0.00091210 0.00038854    0.0357895 ----
   140   0   0   F    F -4.57D-01 0.00020616 0.00008565 0.00041643 0.00017739    0.0357894 --++
   141   0   0   F    T  3.17D+00 0.00010624 0.00004588 0.00058351 0.00021115    0.0357893 ++-+
   142   0   0   F    T  1.00D+00 0.00016138 0.00007614 0.00063047 0.00021754    0.0357893 ---+
   143   0   0   T    T  1.00D+00 0.00020694 0.00009303 0.00020694 0.00009303    0.0357893 --++
   144   0   0   F    T  2.53D+00 0.00011267 0.00004007 0.00019883 0.00009303    0.0357892 -+++
   145   0   0   F    T  1.44D+00 0.00014366 0.00005840 0.00021986 0.00009303    0.0357892 -+++
   146   0   0   F    T  1.93D+00 0.00011785 0.00004034 0.00020049 0.00009303    0.0357892 -+++
   147   0   0   F    T  1.00D+00 0.00013652 0.00005004 0.00023070 0.00009345    0.0357891 -+++
   148   0   0   T    T  1.00D+00 0.00018155 0.00006288 0.00018155 0.00006288    0.0357892 -+++
   149   0   0   F    T  1.60D+00 0.00013116 0.00004104 0.00015455 0.00006288    0.0357891 -+++
   150   0   0   T    T  1.00D+00 0.00019089 0.00006786 0.00019089 0.00006786    0.0357892 -+++
   151   0   0   T    T  1.00D+00 0.00016071 0.00006236 0.00017284 0.00006609    0.0357892 -+++
   152   0   0   T    F  5.00D-01 0.00016071 0.00006236 0.00008642 0.00003304    0.0357893 -+++
   153   0   0   T    F  5.00D-01 0.00016071 0.00006236 0.00004321 0.00001652    0.0357892 -+++
   154   0   0   T    F  5.00D-01 0.00016071 0.00006236 0.00002160 0.00000826    0.0357892 -+++
   155   0   0   T    F  5.00D-01 0.00016071 0.00006236 0.00001080 0.00000413    0.0357891 -+++
   156   0   0   T    F  5.00D-01 0.00016071 0.00006236 0.00000540 0.00000207    0.0357891 -+++
   157   0   0   T    F  5.00D-01 0.00016071 0.00006236 0.00000270 0.00000103    0.0357891 -+++
   158   0   0   T    F  5.00D-01 0.00016071 0.00006236 0.00000135 0.00000052    0.0357891 -+++
   159   0   0   T    F  5.00D-01 0.00016071 0.00006236 0.00000068 0.00000026    0.0357891 -+++
   160   0   0   T    T  1.00D+00 0.00013246 0.00004125 0.00008872 0.00003771    0.0357891 -+++
   161   0   0   F    T  1.97D+00 0.00004039 0.00001925 0.00007430 0.00003771    0.0357891 ====
 ****************************
 MOLECULAR MECHANICS FUNCTION
 ****************************
 Atomic parameters:
 Center  VDW
      1 1.9080 0.0860000
      2 1.7210 0.2104000
      3 1.9080 0.1094000
      4 1.4870 0.0157000
      5 1.4870 0.0157000
      6 1.8750 0.1700000
      7 0.6000 0.0157000
      8 0.6000 0.0157000
      9 1.6612 0.2100000
     10 0.0000 0.0000000
 Molecular mechanics terms:
 NBDir 3 1      0      0
 HrmStr1  1- 2  431.53 1.3510
 HrmStr1  1- 3  294.15 1.5090
 HrmStr1  1- 9  946.08 1.2030
 HrmStr1  2-10  566.76 0.9680
 HrmStr1  3- 4  358.05 1.0960
 HrmStr1  3- 5  358.05 1.0960
 HrmStr1  3- 6  380.82 1.4520
 HrmStr1  6- 7  506.01 1.0110
 HrmStr1  6- 8  506.01 1.0110
 HrmBnd1  1- 2-10  56.55 107.23
 HrmBnd1  1- 3- 4  46.41 106.89
 HrmBnd1  1- 3- 5  46.41 106.89
 HrmBnd1  1- 3- 6  59.93 110.61
 HrmBnd1  2- 1- 3  67.92 111.72
 HrmBnd1  2- 1- 9  91.40 123.02
 HrmBnd1  3- 1- 9  62.83 125.24
 HrmBnd1  3- 6- 7  52.60 110.71
 HrmBnd1  3- 6- 8  52.60 110.71
 HrmBnd1  4- 3- 5  44.68 106.22
 HrmBnd1  4- 3- 6  52.45 112.94
 HrmBnd1  5- 3- 6  52.45 112.94
 HrmBnd1  7- 6- 8  47.09 108.63
 AmbTrs  3- 1- 2-10   0 180   0   0  0.0000 14.5000  0.0000  0.0000  2.0
 AmbTrs  9- 1- 2-10   0   0   0   0  0.0000 14.5000  0.0000  0.0000  2.0
 AmbTrs  2- 1- 3- 4   0   0   0   0  0.0000 14.5000  0.0000  0.0000  6.0
 AmbTrs  2- 1- 3- 5   0   0   0   0  0.0000 14.5000  0.0000  0.0000  6.0
 AmbTrs  2- 1- 3- 6   0   0   0   0  0.0000 14.5000  0.0000  0.0000  6.0
 AmbTrs  9- 1- 3- 4   0   0   0   0  0.0000 14.5000  0.0000  0.0000  6.0
 AmbTrs  9- 1- 3- 5   0   0   0   0  0.0000 14.5000  0.0000  0.0000  6.0
 AmbTrs  9- 1- 3- 6   0   0   0   0  0.0000 14.5000  0.0000  0.0000  6.0
 AmbTrs  1- 3- 6- 7   0 180   0   0  0.0000 25.6300  0.0000  0.0000  6.0
 AmbTrs  1- 3- 6- 8   0 180   0   0  0.0000 25.6300  0.0000  0.0000  6.0
 AmbTrs  4- 3- 6- 7   0   0   0   0  0.0000  0.0000  0.0000  0.0000  6.0
 AmbTrs  4- 3- 6- 8   0   0   0   0  0.0000  0.0000  0.0000  0.0000  6.0
 AmbTrs  5- 3- 6- 7   0   0   0   0  0.0000  0.0000  0.0000  0.0000  6.0
 AmbTrs  5- 3- 6- 8   0   0   0   0  0.0000  0.0000  0.0000  0.0000  6.0
 NBPair  2- 1 3 1      0      0 -1.000 -1.000
 NBPair  3- 2 3 1      0      0 -1.000 -1.000
 NBPair 10- 3 3 1      0      0 -0.500 -0.167
 NBPair  9- 2 3 1      0      0 -1.000 -1.000
 NBPair 10- 9 3 1      0      0 -0.500 -0.167
 NBPair  3- 1 3 1      0      0 -1.000 -1.000
 NBPair  4- 2 3 1      0      0 -0.500 -0.167
 NBPair  5- 2 3 1      0      0 -0.500 -0.167
 NBPair  6- 2 3 1      0      0 -0.500 -0.167
 NBPair  9- 3 3 1      0      0 -1.000 -1.000
 NBPair  9- 4 3 1      0      0 -0.500 -0.167
 NBPair  9- 5 3 1      0      0 -0.500 -0.167
 NBPair  9- 6 3 1      0      0 -0.500 -0.167
 NBPair  9- 1 3 1      0      0 -1.000 -1.000
 NBPair 10- 1 3 1      0      0 -1.000 -1.000
 NBPair 10- 2 3 1      0      0 -1.000 -1.000
 NBPair  4- 1 3 1      0      0 -1.000 -1.000
 NBPair  5- 1 3 1      0      0 -1.000 -1.000
 NBPair  6- 1 3 1      0      0 -1.000 -1.000
 NBPair  4- 3 3 1      0      0 -1.000 -1.000
 NBPair  5- 4 3 1      0      0 -1.000 -1.000
 NBPair  6- 4 3 1      0      0 -1.000 -1.000
 NBPair  5- 3 3 1      0      0 -1.000 -1.000
 NBPair  6- 5 3 1      0      0 -1.000 -1.000
 NBPair  6- 3 3 1      0      0 -1.000 -1.000
 NBPair  7- 1 3 1      0      0 -0.500 -0.167
 NBPair  8- 1 3 1      0      0 -0.500 -0.167
 NBPair  7- 4 3 1      0      0 -0.500 -0.167
 NBPair  8- 4 3 1      0      0 -0.500 -0.167
 NBPair  7- 5 3 1      0      0 -0.500 -0.167
 NBPair  8- 5 3 1      0      0 -0.500 -0.167
 NBPair  7- 3 3 1      0      0 -1.000 -1.000
 NBPair  8- 3 3 1      0      0 -1.000 -1.000
 NBPair  7- 6 3 1      0      0 -1.000 -1.000
 NBPair  8- 7 3 1      0      0 -1.000 -1.000
 NBPair  8- 6 3 1      0      0 -1.000 -1.000
 Energy per function type:
 Direct Coulomb + vdW (small)                           0.003417904
 Direct Coulomb (large)                                -0.131624849
 Direct vdW (large)                                   269.042754817
 Non-direct Coulomb + vdW (small)                      -0.011890380
 Non-direct Coulomb (large)                             0.137957653
 Non-direct vdW (large)                              -269.042754817
 Harmonic stretch I                                     0.000103784
 Harmonic bend I                                        0.004564820
 Amber torsion                                          0.033260184
 Energy per function class:
        Coulomb              -0.003640146
    Vanderwaals               0.001500475
     Stretching               0.000103784
        Bending               0.004564820
        Torsion               0.033260184
 Energy=    3.578911627E-02 NIter=   0.
 Dipole moment=       0.410387      -0.054441      -0.334467
 Leave Link  402 at Wed Nov 29 12:05:10 2023, MaxMem=   134217728 cpu:               0.3 elap:               0.3
 (Enter /home/emanuele/chem_software/gaussian//gdv/l716.exe)
 Dipole        = 4.10386682D-01-5.44413946D-02-3.34466525D-01
 -------------------------------------------------------------------
 Center     Atomic                   Forces (Hartrees/Bohr)
 Number     Number              X              Y              Z
 -------------------------------------------------------------------
      1        6          -0.000023748    0.000017849   -0.000004468
      2        8          -0.000019698    0.000011277   -0.000016025
      3        6          -0.000002113   -0.000006147   -0.000035488
      4        1           0.000010305   -0.000012937    0.000013306
      5        1          -0.000002477    0.000018323    0.000002571
      6        7          -0.000026320    0.000030494    0.000009035
      7        1           0.000031978   -0.000027732    0.000015595
      8        1           0.000032115   -0.000004999    0.000001153
      9        8           0.000005843    0.000014263   -0.000009318
     10        1          -0.000005884   -0.000040392    0.000023639
 -------------------------------------------------------------------
 Cartesian Forces:  Max     0.000040392 RMS     0.000019254
 Z-matrix is all fixed cartesians, so copy forces.
 Leave Link  716 at Wed Nov 29 12:05:11 2023, MaxMem=   134217728 cpu:               0.0 elap:               0.0
 (Enter /home/emanuele/chem_software/gaussian//gdv/l103.exe)

 GradGradGradGradGradGradGradGradGradGradGradGradGradGradGradGradGradGrad
 Berny optimization.
 Search for a local minimum.
 Step number   1 out of a maximum of    2
 All quantities printed in internal units (Hartrees-Bohrs-Radians)
 RMS Force = .19254D-04 SwitMx=.10000D-02 MixMth= 2
 Mixed Optimization -- En-DIIS/RFO-DIIS
 Second derivative matrix not updated -- unit matrix used.
 ITU=  0
 RFO step:  Lambda=-1.11213592D-08 EMin= 1.00000000D+00
 Linear search not attempted -- first point.
 Variable       Old X    -DE/DX   Delta X   Delta X   Delta X     New X
                                 (Linear)    (Quad)   (Total)
    X1       -1.11028  -0.00002   0.00000  -0.00002  -0.00002  -1.11031
    Y1        0.18719   0.00002   0.00000   0.00002   0.00002   0.18721
    Z1        0.61474  -0.00000   0.00000  -0.00000  -0.00000   0.61474
    X2       -2.67049  -0.00002   0.00000  -0.00002  -0.00002  -2.67050
    Y2       -0.80062   0.00001   0.00000   0.00001   0.00001  -0.80061
    Z2       -1.14497  -0.00002   0.00000  -0.00002  -0.00002  -1.14499
    X3        1.37869  -0.00000   0.00000  -0.00000  -0.00000   1.37868
    Y3       -1.25055  -0.00001   0.00000  -0.00001  -0.00001  -1.25055
    Z3        0.55477  -0.00004   0.00000  -0.00004  -0.00004   0.55474
    X4        1.87417   0.00001   0.00000   0.00001   0.00001   1.87418
    Y4       -1.60680  -0.00001   0.00000  -0.00001  -0.00001  -1.60682
    Z4        2.53611   0.00001   0.00000   0.00001   0.00001   2.53613
    X5        1.00191  -0.00000   0.00000  -0.00000  -0.00000   1.00191
    Y5       -3.17186   0.00002   0.00000   0.00002   0.00002  -3.17185
    Z5       -0.12970   0.00000   0.00000   0.00000   0.00000  -0.12970
    X6        3.34964  -0.00003   0.00000  -0.00003  -0.00003   3.34961
    Y6        0.09995   0.00003   0.00000   0.00003   0.00003   0.09998
    Z6       -0.81981   0.00001   0.00000   0.00001   0.00001  -0.81980
    X7        3.07633   0.00003   0.00000   0.00003   0.00003   3.07637
    Y7        1.98777  -0.00003   0.00000  -0.00003  -0.00003   1.98775
    Z7       -0.94950   0.00002   0.00000   0.00002   0.00002  -0.94948
    X8        5.13368   0.00003   0.00000   0.00003   0.00003   5.13372
    Y8       -0.40559  -0.00000   0.00000  -0.00000  -0.00000  -0.40559
    Z8       -0.35634   0.00000   0.00000   0.00000   0.00000  -0.35634
    X9       -1.96877   0.00001   0.00000   0.00001   0.00001  -1.96876
    Y9        0.80492   0.00001   0.00000   0.00001   0.00001   0.80493
    Z9        2.62559  -0.00001   0.00000  -0.00001  -0.00001   2.62558
   X10       -3.86276  -0.00001   0.00000  -0.00001  -0.00001  -3.86276
   Y10        0.52054  -0.00004   0.00000  -0.00004  -0.00004   0.52050
   Z10       -1.56094   0.00002   0.00000   0.00002   0.00002  -1.56092
         Item               Value     Threshold  Converged?
 Maximum Force            0.000040     0.000450     YES
 RMS     Force            0.000019     0.000300     YES
 Maximum Displacement     0.000040     0.001800     YES
 RMS     Displacement     0.000019     0.001200     YES
 Predicted change in Energy=-5.560679D-09
 Optimization completed.
    -- Stationary point found.
 Largest change from initial coordinates is atom    9       1.188 Angstoms.
 GradGradGradGradGradGradGradGradGradGradGradGradGradGradGradGradGradGrad

 Leave Link  103 at Wed Nov 29 12:05:11 2023, MaxMem=   134217728 cpu:               0.0 elap:               0.0
 (Enter /home/emanuele/chem_software/gaussian//gdv/l202.exe)
                          Input orientation:                          
 ---------------------------------------------------------------------
 Center     Atomic      Atomic             Coordinates (Angstroms)
 Number     Number       Type             X           Y           Z
 ---------------------------------------------------------------------
      1          6    20001002       -0.587537    0.099056    0.325307
      2          8    20001022       -1.413160   -0.423671   -0.605892
      3          6    20001001        0.729569   -0.661760    0.293574
      4          1    20001034        0.991769   -0.850284    1.342054
      5          1    20001034        0.530187   -1.678478   -0.068634
      6          7    20001020        1.772552    0.052889   -0.433824
      7          1    20001029        1.627925    1.051884   -0.502453
      8          1    20001029        2.716629   -0.214628   -0.188567
      9          8    20001025       -1.041827    0.425946    1.389401
     10          1    20001031       -2.044083    0.275458   -0.826014
 ---------------------------------------------------------------------
                    Distance matrix (angstroms):
                    1          2          3          4          5
     1  C    0.000000
     2  O    1.349826   0.000000
     3  C    1.521386   2.336025   0.000000
     4  H    2.104573   3.124128   1.097087   0.000000
     5  H    2.136381   2.374823   1.097572   1.699708   0.000000
     6  N    2.479603   3.225752   1.458645   2.139880   2.162052
     7  H    2.549772   3.381740   2.092195   2.724912   2.974577
     8  H    3.358567   4.156082   2.093035   2.392070   2.633965
     9  O    1.202303   2.200212   2.349847   2.401357   3.004279
    10  H    1.864990   0.967109   3.134486   3.896693   3.319392
                    6          7          8          9         10
     6  N    0.000000
     7  H    1.011741   0.000000
     8  H    1.011434   1.699369   0.000000
     9  O    3.374026   3.331439   4.126294   0.000000
    10  H    3.843183   3.767118   4.828137   2.436233   0.000000
 Symmetry turned off by external request.
 Stoichiometry    C2H5NO2
 Framework group  C1[X(C2H5NO2)]
 Deg. of freedom    24
 Full point group                 C1      NOp   1
 Rotational constants (GHZ):           9.4743645           3.7808483           3.0765593
 Leave Link  202 at Wed Nov 29 12:05:11 2023, MaxMem=   134217728 cpu:               0.0 elap:               0.0
 (Enter /home/emanuele/chem_software/gaussian//gdv/l9999.exe)
 Unable to Open any file for archive entry.
 1\1\GINC-EMANUELE-XPS-13-9343\FOpt\AMBER\ZDO\C2H5N1O2\EMANUELE\29-Nov-
 2023\0\\#p Amber=(SoftFirst,Print) geom=nocrowd nosymm opt=(maxcycle=3
 00)\\Title\\0,1\C,-0.5875365646,0.0990561245,0.3253068167\O,-1.4131598
 301,-0.423671309,-0.6058924385\C,0.7295687595,-0.6617600832,0.29357390
 21\H,0.9917694409,-0.8502837955,1.3420538548\H,0.5301866596,-1.6784784
 13,-0.0686342509\N,1.77255204,0.0528888449,-0.4338241835\H,1.627925407
 5,1.0518844591,-0.5024529133\H,2.7166290706,-0.2146277587,-0.188566513
 8\O,-1.0418265976,0.4259455047,1.3894011579\H,-2.0440833857,0.27545842
 6,-0.8260144315\\Version=ES64L-GDVRevJ.14\HF=0.0357891\RMSD=0.000e+00\
 RMSF=1.925e-05\Dipole=0.4103867,-0.0544414,-0.3344665\PG=C01 [X(C2H5N1
 O2)]\\@
 The archive entry for this job was punched.


 TO BEHOLD HARMS OF OUR OWN HANDS DOING,
 WHERE NONE BESIDE US WROUGHT,
 CAUSES SHARP RUING...

                                         SOPHOCLES
 Job cpu time:       0 days  0 hours  0 minutes  0.8 seconds.
 Elapsed time:       0 days  0 hours  0 minutes  0.8 seconds.
 File lengths (MBytes):  RWF=      6 Int=      0 D2E=      0 Chk=      1 Scr=      1
 Normal termination of Gaussian DV at Wed Nov 29 12:05:11 2023.
