 Entering Gaussian System, Link 0=/home/emanuele/chem_software/gaussian//g09/g09
 Input=0_mm_30.gjf
 Output=0_mm_30.log
 Initial command:
 /home/emanuele/chem_software/gaussian//gdv/l1.exe "/home/emanuele/chem_software/gaussian/scratch/Gau-13791.inp" -scrdir="/home/emanuele/chem_software/gaussian/scratch/"
 Entering Link 1 = /home/emanuele/chem_software/gaussian//gdv/l1.exe PID=     13793.
  
 Copyright (c) 1988-2020, Gaussian, Inc.  All Rights Reserved.
  
 This is the private, development version of
 the Gaussian(R) DV system of programs. It is based on
 the Gaussian(R) 16 system (copyright 2016, Gaussian, Inc.),
 the Gaussian(R) 09 system (copyright 2009, Gaussian, Inc.),
 the Gaussian(R) 03 system (copyright 2003, Gaussian, Inc.),
 the Gaussian(R) 98 system (copyright 1998, Gaussian, Inc.),
 the Gaussian(R) 94 system (copyright 1995, Gaussian, Inc.),
 the Gaussian 92(TM) system (copyright 1992, Gaussian, Inc.),
 the Gaussian 90(TM) system (copyright 1990, Gaussian, Inc.),
 the Gaussian 88(TM) system (copyright 1988, Gaussian, Inc.),
 the Gaussian 86(TM) system (copyright 1986, Carnegie Mellon
 University), and the Gaussian 82(TM) system (copyright 1983,
 Carnegie Mellon University). Gaussian is a federally registered
 trademark of Gaussian, Inc.
  
 This software contains proprietary and confidential information,
 including trade secrets, belonging to Gaussian, Inc.
  
 This software is provided under written license and may be
 used, copied, transmitted, or stored only in accord with that
 written license.
  
 The following legend is applicable only to US Government
 contracts under FAR:
  
                    RESTRICTED RIGHTS LEGEND
  
 Use, reproduction and disclosure by the US Government is
 subject to restrictions as set forth in subparagraphs (a)
 and (c) of the Commercial Computer Software - Restricted
 Rights clause in FAR 52.227-19.
  
 Gaussian, Inc.
 340 Quinnipiac St., Bldg. 40, Wallingford CT 06492
  
  
 ---------------------------------------------------------------
 Warning -- This program may not be used in any manner that
 competes with the business of Gaussian, Inc. or will provide
 assistance to any competitor of Gaussian, Inc.  The licensee
 of this program is prohibited from giving any competitor of
 Gaussian, Inc. access to this program.  By using this program,
 the user acknowledges that Gaussian, Inc. is engaged in the
 business of creating and licensing software in the field of
 computational chemistry and represents and warrants to the
 licensee that it is not a competitor of Gaussian, Inc. and that
 it will not use this program in any manner prohibited above.
 ---------------------------------------------------------------
  

 Cite this work as:
 Gaussian Development Version, Revision J.14,
 M. J. Frisch, G. W. Trucks, H. B. Schlegel, G. E. Scuseria, 
 M. A. Robb, J. R. Cheeseman, G. Scalmani, V. Barone, 
 G. A. Petersson, H. Nakatsuji, X. Li, A. V. Marenich, M. Caricato, 
 J. Bloino, B. G. Janesko, J. Zheng, R. Gomperts, B. Mennucci, 
 H. P. Hratchian, J. V. Ortiz, A. F. Izmaylov, J. L. Sonnenberg, 
 D. Williams-Young, F. Ding, F. Lipparini, F. Egidi, J. Goings, 
 B. Peng, A. Petrone, T. Henderson, D. Ranasinghe, V. G. Zakrzewski, 
 J. Gao, N. Rega, G. Zheng, W. Liang, M. Hada, M. Ehara, K. Toyota, 
 R. Fukuda, J. Hasegawa, M. Ishida, T. Nakajima, Y. Honda, O. Kitao, 
 H. Nakai, T. Vreven, K. Throssell, J. A. Montgomery, Jr., 
 J. E. Peralta, F. Ogliaro, M. J. Bearpark, J. J. Heyd, 
 E. N. Brothers, K. N. Kudin, V. N. Staroverov, T. A. Keith, 
 R. Kobayashi, J. Normand, K. Raghavachari, A. P. Rendell, 
 J. C. Burant, S. S. Iyengar, J. Tomasi, M. Cossi, J. M. Millam, 
 M. Klene, C. Adamo, R. Cammi, J. W. Ochterski, R. L. Martin, 
 K. Morokuma, O. Farkas, J. B. Foresman, and D. J. Fox, 
 Gaussian, Inc., Wallingford CT, 2020.
 
 ******************************************
 Gaussian DV:  ES64L-GDVRevJ.14 29-Dec-2020
                29-Nov-2023 
 ******************************************
 %mem=1GB
 %nprocshared=1
 Will use up to    1 processors via shared memory.
 %chk=0_mm_30.chk
 -----------------------------------------------------------------
 #p Amber=(SoftFirst,Print) geom=nocrowd nosymm opt=(maxcycle=300)
 -----------------------------------------------------------------
 1/6=300,10=10,18=4000020,19=15,37=210000000,38=1,56=2,64=203/1,3;
 2/9=110,12=1,15=1,40=1/2;
 3/5=30,11=9,25=1,30=1,41=10030000,43=2,71=1/1;
 4/20=11,22=1001,24=3,119=11/2;
 7/30=1,44=-1/16;
 1/6=300,10=10,18=4000020,19=15,64=203/3(2);
 2/9=110,12=1,15=1/2;
 99//99;
 2/9=110,12=1,15=1/2;
 3/5=30,11=9,25=1,30=1,41=10030000,43=2,71=1/1;
 4/16=2,20=11,22=1001,24=3,119=11/2;
 7/30=1,44=-1/16;
 1/6=300,10=10,18=4000020,19=15,64=203/3(-4);
 2/9=110,12=1,15=1/2;
 99/9=10/99;
 Leave Link    1 at Wed Nov 29 12:05:13 2023, MaxMem=   134217728 cpu:               0.0 elap:               0.0
 (Enter /home/emanuele/chem_software/gaussian//gdv/l101.exe)
 -----
 Title
 -----
 Symbolic Z-matrix:
 Charge =  0 Multiplicity = 1
 C-C-+0.299289        -0.58396  -0.15186  -0.32271 
 O-OH--0.289770       -1.10398  -0.04607   0.94971 
 C-CT--0.035454        0.78745  -0.80591  -0.22784 
 H-HC-+0.090426        0.57786  -1.88054   0.01887 
 H-HC-+0.095387        1.0335   -1.02323  -1.29743 
 N-N3--0.336253        1.87309  -0.04104   0.41205 
 H-H-+0.142619         1.98544   0.87363  -0.0175 
 H-H-+0.128282         1.69263   0.09291   1.4036 
 O-O2--0.308037       -1.04887   0.55289  -1.18344 
 H-HO-+0.213510       -1.93114   0.50563   0.98964 
 
 ITRead=  3  3  3  3  3  3  3  3  3  3
 MicOpt=  0  0  0  0  0  0  0  0  0  0
 NAtoms=     10 NQM=        0 NQMF=       0 NMMI=      0 NMMIF=      0
                NMic=      10 NMicF=      0.
                    Isotopes and Nuclear Properties:
 (Nuclear quadrupole moments (NQMom) in fm**2, nuclear magnetic moments (NMagM)
  in nuclear magnetons)

  Atom         1           2           3           4           5           6           7           8           9          10
 IAtWgt=          12          16          12           1           1          14           1           1          16           1
 AtmWgt=  12.0000000  15.9949146  12.0000000   1.0078250   1.0078250  14.0030740   1.0078250   1.0078250  15.9949146   1.0078250
 NucSpn=           0           0           0           1           1           2           1           1           0           1
 AtZEff=  -0.0000000  -0.0000000  -0.0000000  -0.0000000  -0.0000000  -0.0000000  -0.0000000  -0.0000000  -0.0000000  -0.0000000
 NQMom=    0.0000000   0.0000000   0.0000000   0.0000000   0.0000000   2.0440000   0.0000000   0.0000000   0.0000000   0.0000000
 NMagM=    0.0000000   0.0000000   0.0000000   2.7928460   2.7928460   0.4037610   2.7928460   2.7928460   0.0000000   2.7928460
 AtZNuc=   6.0000000   8.0000000   6.0000000   1.0000000   1.0000000   7.0000000   1.0000000   1.0000000   8.0000000   1.0000000
 Generating MM parameters.
 I=    1 IAn=  6 Valence= 5.
          JB=  1 J=    2 IAn=  8 IBT=12 Dist= 1.38D+00
          JB=  2 J=    3 IAn=  6 IBT= 1 Dist= 1.52D+00
          JB=  3 J=    9 IAn=  8 IBT= 2 Dist= 1.21D+00
 I=    2 IAn=  8 Valence= 3.
          JB=  1 J=    1 IAn=  6 IBT=12 Dist= 1.38D+00
          JB=  2 J=   10 IAn=  1 IBT= 1 Dist= 9.95D-01
 Read MM parameter file:
 Include all MM classes

 MM sanity checks:
 All charges sum to:               -0.00000100
 Charges of atoms sum to:          -0.00000100
 WARNING -- The following centers have non-zero partial charges, but zero Vanderwaals
 parameters.  These centers can collapse onto other centers with non-zero charge.
   Center  Layer   Charge
     10 H    R    0.213510
 MMInit generated parameter data with length LenPar=        2069.
 MM Charge=             -0.0000 electrons
 MM Dipole moment (Debye):
    X=              0.2367    Y=             -0.8800    Z=              0.6201  Tot=              1.1023
 MM Quadrupole moment (Debye-Ang):
   XX=              0.3187   YY=              2.2706   ZZ=             -0.4710
   XY=              0.4742   XZ=             -2.4519   YZ=              2.2714
 MM Traceless Quadrupole moment (Debye-Ang):
   XX=             -0.3874   YY=              1.5645   ZZ=             -1.1771
   XY=              0.4742   XZ=             -2.4519   YZ=              2.2714
 MM Octapole moment (Debye-Ang**2):
  XXX=             -5.8500  YYY=             -2.9552  ZZZ=              2.7980  XYY=              2.2902
  XXY=              3.1048  XXZ=              3.4295  XZZ=              3.8640  YZZ=             -1.2608
  YYZ=              0.2102  XYZ=             -1.3533
 MM Hexadecapole moment (Debye-Ang**3):
 XXXX=              6.8990 YYYY=              6.1910 ZZZZ=              0.6075 XXXY=              1.9556
 XXXZ=             -8.3677 YYYX=             -1.1893 YYYZ=              0.9836 ZZZX=             -1.5076
 ZZZY=              3.1059 XXYY=              3.5113 XXZZ=              3.3219 YYZZ=              0.4366
 XXYZ=              3.9869 YYXZ=             -1.6674 ZZXY=             -0.4274
 Leave Link  101 at Wed Nov 29 12:05:13 2023, MaxMem=   134217728 cpu:               0.3 elap:               0.3
 (Enter /home/emanuele/chem_software/gaussian//gdv/l103.exe)

 GradGradGradGradGradGradGradGradGradGradGradGradGradGradGradGradGradGrad
 Berny optimization.
 Initialization pass.
 No Z-matrix variables, so optimization will use Cartesian coordinates.
 Trust Radius=1.00D-01 FncErr=1.00D-07 GrdErr=1.00D-07 EigMax=2.50D+02 EigMin=1.00D-04
 Number of steps in this run=      2 maximum allowed number of steps=      2.
 GradGradGradGradGradGradGradGradGradGradGradGradGradGradGradGradGradGrad

 Leave Link  103 at Wed Nov 29 12:05:13 2023, MaxMem=   134217728 cpu:               0.0 elap:               0.0
 (Enter /home/emanuele/chem_software/gaussian//gdv/l202.exe)
                          Input orientation:                          
 ---------------------------------------------------------------------
 Center     Atomic      Atomic             Coordinates (Angstroms)
 Number     Number       Type             X           Y           Z
 ---------------------------------------------------------------------
      1          6    20001002       -0.583957   -0.151855   -0.322706
      2          8    20001022       -1.103976   -0.046066    0.949711
      3          6    20001001        0.787448   -0.805913   -0.227838
      4          1    20001034        0.577858   -1.880540    0.018868
      5          1    20001034        1.033499   -1.023230   -1.297430
      6          7    20001020        1.873092   -0.041037    0.412053
      7          1    20001029        1.985439    0.873626   -0.017500
      8          1    20001029        1.692632    0.092911    1.403598
      9          8    20001025       -1.048872    0.552885   -1.183444
     10          1    20001031       -1.931138    0.505631    0.989639
 ---------------------------------------------------------------------
                    Distance matrix (angstroms):
                    1          2          3          4          5
     1  C    0.000000
     2  O    1.378643   0.000000
     3  C    1.522348   2.354034   0.000000
     4  H    2.110649   2.657128   1.122326   0.000000
     5  H    2.079795   3.251660   1.118836   1.635613   0.000000
     6  N    2.566952   3.025233   1.474150   2.283856   2.142884
     7  H    2.783264   3.365385   2.073711   3.093224   2.478401
     8  H    2.867559   2.836608   2.070948   2.656070   2.995960
     9  O    1.205684   2.216332   2.476204   3.164390   2.614077
    10  H    1.992344   0.995068   3.254705   3.596007   4.044400
                    6          7          8          9         10
     6  N    0.000000
     7  H    1.016733   0.000000
     8  H    1.016695   1.647656   0.000000
     9  O    3.381749   3.266396   3.797395   0.000000
    10  H    3.886466   4.060705   3.670614   2.345829   0.000000
 Symmetry turned off by external request.
 Stoichiometry    C2H5NO2
 Framework group  C1[X(C2H5NO2)]
 Deg. of freedom    24
 Full point group                 C1      NOp   1
 Rotational constants (GHZ):           8.7400605           3.8838428           3.1742284
 Leave Link  202 at Wed Nov 29 12:05:13 2023, MaxMem=   134217728 cpu:               0.0 elap:               0.0
 (Enter /home/emanuele/chem_software/gaussian//gdv/l301.exe)
 Standard basis: Dummy (5D, 7F)
    10 basis functions,    10 primitive gaussians,    10 cartesian basis functions
     7 alpha electrons        7 beta electrons
       nuclear repulsion energy        22.5914689985 Hartrees.
 IExCor=       0 DFT=F Ex=HF Corr=None N6=None ScaHFX=  1.000000
 ScaDFX=  1.000000  1.000000  1.000000  1.000000  1.000000  0.000000
 ScaDFX=  0.000000  0.000000  0.000000  0.000000  0.000000  0.000000
 IRadAn=      5 IRanWt=     -1 IRanGd=            0 ICorTp=0 IEmpDi=  4
 NAtoms=   10 NActive=   10 NUniq=   10 SFac= 1.00D+00 NAtFMM=   60 NAOKFM=F Big=F
 Integral buffers will be    131072 words long.
 Raffenetti 1 integral format.
 Two-electron integral symmetry is turned off.
 Leave Link  301 at Wed Nov 29 12:05:13 2023, MaxMem=   134217728 cpu:               0.0 elap:               0.0
 (Enter /home/emanuele/chem_software/gaussian//gdv/l402.exe)
 AMBER calculation of energy and first derivatives.
 NRF= 0 NRA=   0 NVA=  10 HaveQM=F NVQ=       0
 Convergence limit is  0.750E-04 MaxStp= 10000 StMxLn= 3.00D-04 StpMin= 1.00D-06.
 Convergence criteria             0.00011250 0.00007500 0.00045000 0.00030000
  Step  NS  ND Rises OKQ   Scale  Max. Force  RMS Force Max. Disp.  RMS Disp.     Energy   Flag
     1   0   0   F    T  1.00D+00 0.03948573 0.01528832 0.03948573 0.01528832    0.0706577 ----
     2   0   0   F    F  4.87D-01 0.03948573 0.01528832 0.01921233 0.00743875    0.0660028 ----
     3   0   0   F    T  2.64D+00 0.01859173 0.00767888 0.04796258 0.02272707    0.0654439 ----
     4   0   0   F    F  3.55D-01 0.01859173 0.00767888 0.01702299 0.00806635    0.0625052 ----
     5   0   0   F    T  2.21D+00 0.01734011 0.00859729 0.05620239 0.03079341    0.0622907 ----
     6   0   0   F    F -4.53D-01 0.01734011 0.00859729 0.02543309 0.01393485    0.0618752 ----
     7   0   0   F    T  1.52D+00 0.02016635 0.00683729 0.03233929 0.01685857    0.0609461 ----
     8   0   0   F    F  2.92D-01 0.02016635 0.00683729 0.00943357 0.00491775    0.0596303 ----
     9   0   0   F    T  1.45D+00 0.01473452 0.00749660 0.05459022 0.02177631    0.0595588 ----
    10   0   0   F    F  1.78D+00 0.01473452 0.00749660 0.09727141 0.03880205    0.0575105 ----
    11   0   0   F    F -6.90D-02 0.01473452 0.00749660 0.00671030 0.00267677    0.0560954 ----
    12   0   0   F    T  6.05D+00 0.01839241 0.00630878 0.16682807 0.05790159    0.0560868 ----
    13   0   0   T    F  3.86D-01 0.01839241 0.00630878 0.06435728 0.02233670    0.0584011 ----
    14   0   0   F    T  2.56D+00 0.01363422 0.00548604 0.05898233 0.02233670    0.0546916 ----
    15   0   0   F    F -5.57D-02 0.01363422 0.00548604 0.00328742 0.00124495    0.0535933 ----
    16   0   0   F    T  1.33D+00 0.01983014 0.00710381 0.05618632 0.02109175    0.0535894 ----
    17   0   0   F    F -5.91D-02 0.01983014 0.00710381 0.00331874 0.00124582    0.0526180 ----
    18   0   0   F    T  2.56D+00 0.01188837 0.00498354 0.04678244 0.01984593    0.0526139 ----
    19   0   0   F    F -4.50D-02 0.01188837 0.00498354 0.00210414 0.00089261    0.0517188 ----
    20   0   0   F    T  2.58D+00 0.01100608 0.00434883 0.04366193 0.01895332    0.0517169 ----
    21   0   0   F    F -2.32D-02 0.01100608 0.00434883 0.00101277 0.00043964    0.0509940 ----
    22   0   0   F    T  4.19D+00 0.00696218 0.00290297 0.05396308 0.01851368    0.0509936 ----
    23   0   0   F    F -4.16D-01 0.00696218 0.00290297 0.02245868 0.00770513    0.0508414 ----
    24   0   0   F    T  1.29D+00 0.01400185 0.00379276 0.03158422 0.01080854    0.0506845 ----
    25   0   0   F    F  5.43D-02 0.01400185 0.00379276 0.00171606 0.00058726    0.0503931 ----
    26   0   0   F    T  2.44D+00 0.00496655 0.00256546 0.03035688 0.01139580    0.0503923 ----
    27   0   0   F    F -2.25D-02 0.00496655 0.00256546 0.00068392 0.00025674    0.0501562 ---+
    28   0   0   F    T  5.47D+00 0.00321719 0.00144203 0.02453401 0.01113906    0.0501561 ----
    29   0   0   F    F -4.21D-01 0.00321719 0.00144203 0.01032546 0.00468802    0.0501090 ----
    30   0   0   F    T  2.02D+00 0.00509439 0.00167009 0.01443851 0.00645104    0.0500575 ----
    31   0   0   F    F  2.20D-01 0.00509439 0.00167009 0.00317513 0.00141863    0.0499579 ----
    32   0   0   F    T  3.24D+00 0.00338780 0.00131810 0.01617858 0.00786967    0.0499545 ----
    33   0   0   T    F  3.99D-01 0.00338780 0.00131810 0.00646150 0.00314304    0.0499977 ----
    34   0   0   F    T  1.07D+00 0.00328019 0.00136434 0.00627024 0.00314304    0.0499208 ----
    35   0   0   F    F  3.63D+00 0.00328019 0.00136434 0.02273048 0.01139393    0.0498673 ----
    36   0   0   F    T  5.02D+00 0.00302812 0.00131269 0.02923347 0.01453697    0.0497824 ----
    37   0   0   T    F  3.82D-01 0.00302812 0.00131269 0.01116488 0.00555198    0.0498629 ----
    38   0   0   F    T  2.54D+00 0.00227655 0.00106781 0.01252504 0.00555198    0.0497329 ----
    39   0   0   F    F  6.01D-01 0.00227655 0.00106781 0.00752136 0.00333399    0.0496732 ----
    40   0   0   F    T  1.14D+00 0.00663215 0.00198256 0.01854258 0.00888597    0.0496634 ----
    41   0   0   F    F  3.79D-01 0.00663215 0.00198256 0.00703524 0.00337142    0.0495779 ----
    42   0   0   F    T  2.81D+00 0.00325862 0.00143880 0.02870381 0.01225739    0.0495710 ----
    43   0   0   F    F -3.46D-01 0.00325862 0.00143880 0.00992767 0.00423941    0.0495299 ----
    44   0   0   F    T  3.32D+00 0.00234151 0.00102297 0.01850578 0.00801798    0.0495137 ----
    45   0   0   F    F  2.11D+00 0.00234151 0.00102297 0.03899699 0.01689619    0.0494262 ----
    46   0   0   F    F -1.07D-02 0.00234151 0.00102297 0.00041573 0.00018012    0.0493520 --++
    47   0   0   F    T  3.52D+00 0.00335257 0.00173289 0.05485775 0.02473404    0.0493520 ----
    48   0   0   F    F -4.15D-01 0.00335257 0.00173289 0.02274863 0.01025681    0.0493062 ----
    49   0   0   F    T  1.84D+00 0.00454707 0.00182447 0.03136209 0.01447723    0.0492590 ----
    50   0   0   F    F  3.43D-02 0.00454707 0.00182447 0.00107577 0.00049659    0.0491629 ----
    51   0   0   F    T  1.31D+00 0.00458507 0.00221541 0.03271706 0.01497382    0.0491628 ----
    52   0   0   F    F  1.16D+00 0.00458507 0.00221541 0.03810698 0.01744066    0.0490185 ----
    53   0   0   F    F -1.27D-02 0.00458507 0.00221541 0.00048255 0.00022085    0.0489640 ---+
    54   0   0   F    T  5.01D+00 0.00369403 0.00164524 0.07245482 0.03219364    0.0489640 ----
    55   0   0   F    F -4.03D-01 0.00369403 0.00164524 0.02917253 0.01296214    0.0489004 ----
    56   0   0   F    T  2.20D+00 0.00401657 0.00188473 0.05041749 0.01923149    0.0488401 ----
    57   0   0   F    F  1.41D+00 0.00401657 0.00188473 0.07088703 0.02703949    0.0486520 ----
    58   0   0   F    F -6.84D-02 0.00401657 0.00188473 0.00485113 0.00185044    0.0485568 ----
    59   0   0   F    T  1.80D+00 0.00952386 0.00332193 0.12277870 0.04442054    0.0485562 ----
    60   0   0   F    F -2.77D-01 0.00952386 0.00332193 0.03402318 0.01230937    0.0483669 ----
    61   0   0   F    T  1.99D+00 0.00767978 0.00326178 0.09506182 0.03211118    0.0483271 ----
    62   0   0   F    F  1.76D-01 0.00767978 0.00326178 0.01676271 0.00566232    0.0479709 ----
    63   0   0   F    F -2.39D-02 0.00767978 0.00326178 0.00040122 0.00013553    0.0479632 --++
    64   0   0   F    T  3.22D+00 0.00573962 0.00286507 0.11928688 0.03763797    0.0479632 ----
    65   0   0   F    F  3.03D-01 0.00573962 0.00286507 0.03619454 0.01142027    0.0474792 ----
    66   0   0   F    F -5.87D-02 0.00573962 0.00286507 0.00212337 0.00066998    0.0474534 ----
    67   0   0   F    T  1.78D+00 0.01204902 0.00428000 0.15710141 0.04838826    0.0474533 ----
    68   0   0   F    F -2.41D-01 0.01204902 0.00428000 0.03780654 0.01164466    0.0471154 ----
    69   0   0   F    F -1.29D-02 0.01204902 0.00428000 0.00048720 0.00015006    0.0470762 ---+
    70   0   0   F    T  2.07D+00 0.00729295 0.00352488 0.12285943 0.03689366    0.0470762 ----
    71   0   0   F    F  5.29D-01 0.00729295 0.00352488 0.06500929 0.01952175    0.0465449 ----
    72   0   0   F    F -6.92D-02 0.00729295 0.00352488 0.00449860 0.00135089    0.0464740 ----
    73   0   0   F    T  2.29D+00 0.01158463 0.00436968 0.18442295 0.05506452    0.0464736 ----
    74   0   0   F    F  1.02D-01 0.01158463 0.00436968 0.01880315 0.00561420    0.0457126 ----
    75   0   0   F    F -6.07D-02 0.01158463 0.00436968 0.00114153 0.00034084    0.0457057 ----
    76   0   0   F    T  4.62D+00 0.00991896 0.00400099 0.18646704 0.06033788    0.0457057 ----
    77   0   0   F    F  2.85D+00 0.00991896 0.00400099 0.53089750 0.17179030    0.0443558 ----
    78   0   0   T    F  3.56D-01 0.00991896 0.00400099 0.18919271 0.06121986    0.0476569 ----
    79   0   0   F    F -1.01D-01 0.00991896 0.00400099 0.01919779 0.00621211    0.0440171 ----
    80   0   0   F    F -1.08D-01 0.00991896 0.00400099 0.00208245 0.00067385    0.0440131 ----
    81   0   0   F    T  2.30D+00 0.01895240 0.00775469 0.36097619 0.11601948    0.0440130 ----
    82   0   0   T    F  4.07D-01 0.01895240 0.00775469 0.14694689 0.04722944    0.0461980 ----
    83   0   0   F    T  3.39D+00 0.01553058 0.00549382 0.13223168 0.04722944    0.0430827 ----
    84   0   0   F    F -4.94D-01 0.01553058 0.00549382 0.06529866 0.02332284    0.0430366 ----
    85   0   0   F    T  3.34D+00 0.01042359 0.00378241 0.07151804 0.02390659    0.0423088 ----
    86   0   0   F    F  6.27D-01 0.01042359 0.00378241 0.04482698 0.01498448    0.0413489 ----
    87   0   0   F    T  2.35D+00 0.01178231 0.00542901 0.10568082 0.03889107    0.0411914 ----
    88   0   0   F    F -2.08D-01 0.01178231 0.00542901 0.02194680 0.00807653    0.0404249 ----
    89   0   0   F    T  1.91D+00 0.01344219 0.00500933 0.08265286 0.03081454    0.0403684 ----
    90   0   0   F    F -1.55D-01 0.01344219 0.00500933 0.01278817 0.00476767    0.0397753 ----
    91   0   0   F    T  2.07D+00 0.01224454 0.00440116 0.06292488 0.02604687    0.0397542 ----
    92   0   0   F    F -2.95D-01 0.01224454 0.00440116 0.01855836 0.00768197    0.0394045 ----
    93   0   0   F    T  3.69D+00 0.00727150 0.00264995 0.03643844 0.01836490    0.0393297 ----
    94   0   0   F    F -2.64D-01 0.00727150 0.00264995 0.00961230 0.00484458    0.0390800 ----
    95   0   0   F    T  3.45D+00 0.00484788 0.00214238 0.02638962 0.01352032    0.0390431 ----
    96   0   0   F    F -1.73D-01 0.00484788 0.00214238 0.00456760 0.00234014    0.0388559 ----
    97   0   0   F    T  1.61D+00 0.00843907 0.00272692 0.02441130 0.01118018    0.0388473 ----
    98   0   0   F    F  4.06D-01 0.00843907 0.00272692 0.00992126 0.00454385    0.0386136 ----
    99   0   0   F    T  2.12D+00 0.00846784 0.00272384 0.03447216 0.01572403    0.0385921 ----
   100   0   0   T    F  4.58D-01 0.00846784 0.00272384 0.01579271 0.00720364    0.0386323 ----
   101   0   0   F    T  3.65D+00 0.00210988 0.00122044 0.01712438 0.00720364    0.0384847 ----
   102   0   0   F    F  7.42D-02 0.00210988 0.00122044 0.00127050 0.00053446    0.0383974 ----
   103   0   0   F    T  2.45D+00 0.00411621 0.00145224 0.01796975 0.00773810    0.0383970 ----
   104   0   0   F    F  1.31D-01 0.00411621 0.00145224 0.00235554 0.00101434    0.0383105 ----
   105   0   0   F    T  1.87D+00 0.00505348 0.00170396 0.02040967 0.00875244    0.0383094 ----
   106   0   0   F    F -2.54D-01 0.00505348 0.00170396 0.00518429 0.00222322    0.0382557 ----
   107   0   0   F    T  2.02D+00 0.00391577 0.00135223 0.01492399 0.00652922    0.0382487 ----
   108   0   0   F    F -2.32D-01 0.00391577 0.00135223 0.00346022 0.00151384    0.0382100 ----
   109   0   0   F    T  2.13D+00 0.00233196 0.00108715 0.01106197 0.00501538    0.0382061 ----
   110   0   0   F    F  5.41D-01 0.00233196 0.00108715 0.00598281 0.00271254    0.0381555 ----
   111   0   0   F    T  2.59D+00 0.00313785 0.00117037 0.01976941 0.00772792    0.0381484 ----
   112   0   0   F    F  6.21D-02 0.00313785 0.00117037 0.00122800 0.00048003    0.0380921 ----
   113   0   0   F    T  3.04D+00 0.00239182 0.00105373 0.02660907 0.00820794    0.0380919 ----
   114   0   0   T    F  4.42D-01 0.00239182 0.00105373 0.01176514 0.00362912    0.0381059 ----
   115   0   0   F    T  1.33D+00 0.00269777 0.00102923 0.01019807 0.00362912    0.0380694 ----
   116   0   0   F    F  8.13D-01 0.00269777 0.00102923 0.00828866 0.00294963    0.0380390 ----
   117   0   0   F    T  2.47D+00 0.00214380 0.00098713 0.01845131 0.00657876    0.0380314 ----
   118   0   0   F    F  2.04D-01 0.00214380 0.00098713 0.00376006 0.00134064    0.0379891 ----
   119   0   0   F    T  2.01D+00 0.00294735 0.00116974 0.02192380 0.00791939    0.0379878 ----
   120   0   0   F    F  8.59D-01 0.00294735 0.00116974 0.01882445 0.00679984    0.0379265 ----
   121   0   0   F    T  1.59D+00 0.00529952 0.00180111 0.03598470 0.01471923    0.0379094 ----
   122   0   0   F    F  4.52D-01 0.00529952 0.00180111 0.01626849 0.00665448    0.0378101 ----
   123   0   0   F    T  1.40D+00 0.00571882 0.00233461 0.05420349 0.02137371    0.0377998 ----
   124   0   0   F    F  1.72D-01 0.00571882 0.00233461 0.00931455 0.00367295    0.0376670 ----
   125   0   0   F    T  3.39D+00 0.00370228 0.00154709 0.05666008 0.02504666    0.0376641 ----
   126   0   0   F    F -1.46D-01 0.00370228 0.00154709 0.00825907 0.00365093    0.0375652 ----
   127   0   0   F    T  2.17D+00 0.00324149 0.00175139 0.04542610 0.02139573    0.0375624 ----
   128   0   0   F    F  1.60D-01 0.00324149 0.00175139 0.00728512 0.00343130    0.0374461 ----
   129   0   0   F    T  1.62D+00 0.00484638 0.00218090 0.05706663 0.02482702    0.0374437 ----
   130   0   0   F    F  3.78D-01 0.00484638 0.00218090 0.02154710 0.00937414    0.0372974 ----
   131   0   0   F    F -1.57D-02 0.00484638 0.00218090 0.00033879 0.00014739    0.0372858 --++
   132   0   0   F    T  2.27D+00 0.00486715 0.00223877 0.07173942 0.03405377    0.0372858 ----
   133   0   0   F    F -3.47D-01 0.00486715 0.00223877 0.02489900 0.01181923    0.0372063 ----
   134   0   0   F    T  2.68D+00 0.00459953 0.00172813 0.05342024 0.02223454    0.0371723 ----
   135   0   0   F    F  1.72D-01 0.00459953 0.00172813 0.00920597 0.00383170    0.0370378 ----
   136   0   0   F    T  2.26D+00 0.00441220 0.00202384 0.05647699 0.02606624    0.0370350 ----
   137   0   0   F    F -2.47D-01 0.00441220 0.00202384 0.01396076 0.00644341    0.0369407 ----
   138   0   0   F    T  1.85D+00 0.00382581 0.00192028 0.04615708 0.01962283    0.0369288 ----
   139   0   0   F    F -9.30D-02 0.00382581 0.00192028 0.00429151 0.00182446    0.0368380 ----
   140   0   0   F    T  2.94D+00 0.00287924 0.00142299 0.04016174 0.01779837    0.0368370 ----
   141   0   0   F    F -1.57D-01 0.00287924 0.00142299 0.00630167 0.00279270    0.0367644 ----
   142   0   0   F    T  1.75D+00 0.00448895 0.00166663 0.03608127 0.01500568    0.0367618 ----
   143   0   0   F    F  7.76D-01 0.00448895 0.00166663 0.02801252 0.01165000    0.0366570 ----
   144   0   0   F    T  3.40D+00 0.00420816 0.00157082 0.06685766 0.02665568    0.0366321 ----
   145   0   0   T    F  4.48D-01 0.00420816 0.00157082 0.02998443 0.01195458    0.0366638 ----
   146   0   0   F    T  2.11D+00 0.00423826 0.00134980 0.03094892 0.01195458    0.0365754 ----
   147   0   0   F    F -2.89D-01 0.00423826 0.00134980 0.00893958 0.00345307    0.0365412 ----
   148   0   0   F    T  2.52D+00 0.00223080 0.00102219 0.02251990 0.00850151    0.0365344 ----
   149   0   0   F    F -1.35D-01 0.00223080 0.00102219 0.00303146 0.00114441    0.0365013 ----
   150   0   0   F    T  2.80D+00 0.00198561 0.00086571 0.01955188 0.00735710    0.0365005 ----
   151   0   0   F    F -3.23D-01 0.00198561 0.00086571 0.00631192 0.00237509    0.0364840 ----
   152   0   0   F    T  2.49D+00 0.00145682 0.00072401 0.01309932 0.00498201    0.0364792 ----
   153   0   0   F    F -3.29D-01 0.00145682 0.00072401 0.00431150 0.00163978    0.0364692 ----
   154   0   0   F    T  2.03D+00 0.00169306 0.00063514 0.00888959 0.00334224    0.0364660 ----
   155   0   0   F    T  1.56D+00 0.00255479 0.00070223 0.00924760 0.00334224    0.0364539 ----
   156   0   0   F    F  5.98D-01 0.00255479 0.00070223 0.00553335 0.00199984    0.0364383 ----
   157   0   0   F    T  4.37D+00 0.00145272 0.00052017 0.01294775 0.00534208    0.0364357 ----
   158   0   0   T    F  4.07D-01 0.00145272 0.00052017 0.00526789 0.00217347    0.0364438 ----
   159   0   0   F    T  1.85D+00 0.00130679 0.00048525 0.00474154 0.00217347    0.0364285 ----
   160   0   0   F    T  2.50D+00 0.00100608 0.00039306 0.00503484 0.00217347    0.0364220 ----
   161   0   0   F    F -4.50D-01 0.00100608 0.00039306 0.00226786 0.00097900    0.0364210 ----
   162   0   0   F    T  1.93D+00 0.00079928 0.00030916 0.00293043 0.00119446    0.0364188 ----
   163   0   0   F    F  5.94D-01 0.00079928 0.00030916 0.00174192 0.00071002    0.0364150 ----
   164   0   0   F    T  2.29D+00 0.00092872 0.00034169 0.00532208 0.00190448    0.0364144 ----
   165   0   0   F    F  2.92D-01 0.00092872 0.00034169 0.00155170 0.00055527    0.0364095 ----
   166   0   0   F    T  1.58D+00 0.00122515 0.00045790 0.00733841 0.00245975    0.0364092 ----
   167   0   0   F    F  1.61D-01 0.00122515 0.00045790 0.00118204 0.00039621    0.0364036 ----
   168   0   0   F    T  2.64D+00 0.00135305 0.00037043 0.00848861 0.00285596    0.0364035 ----
   169   0   0   F    F -4.90D-01 0.00135305 0.00037043 0.00415702 0.00139861    0.0364032 ----
   170   0   0   F    T  2.29D+00 0.00060242 0.00026980 0.00405009 0.00145735    0.0364007 ----
   171   0   0   F    F  4.00D-01 0.00060242 0.00026980 0.00161896 0.00058255    0.0363975 ----
   172   0   0   F    T  1.92D+00 0.00077735 0.00033981 0.00591942 0.00203990    0.0363972 ----
   173   0   0   F    F  3.84D-01 0.00077735 0.00033981 0.00227231 0.00078306    0.0363929 ----
   174   0   0   F    T  2.47D+00 0.00076286 0.00034457 0.00861457 0.00282296    0.0363926 ----
   175   0   0   F    F -4.42D-01 0.00076286 0.00034457 0.00380685 0.00124749    0.0363917 ----
   176   0   0   F    T  2.05D+00 0.00084765 0.00027184 0.00469469 0.00157547    0.0363901 ----
   177   0   0   F    T  2.15D+00 0.00060749 0.00026355 0.00414723 0.00157547    0.0363877 ----
   178   0   0   F    F  1.93D-01 0.00060749 0.00026355 0.00080128 0.00030439    0.0363850 ----
   179   0   0   F    T  2.09D+00 0.00062384 0.00027131 0.00488144 0.00187986    0.0363849 ----
   180   0   0   F    F  3.09D-01 0.00062384 0.00027131 0.00150646 0.00058015    0.0363820 ----
   181   0   0   F    T  1.96D+00 0.00090604 0.00032462 0.00641130 0.00246001    0.0363819 ----
   182   0   0   F    F -6.76D-02 0.00090604 0.00032462 0.00043321 0.00016622    0.0363790 --++
   183   0   0   F    T  1.74D+00 0.00073132 0.00032714 0.00584480 0.00229379    0.0363790 ----
   184   0   0   F    F  1.61D-01 0.00073132 0.00032714 0.00094063 0.00036915    0.0363758 ----
   185   0   0   F    T  2.87D+00 0.00071471 0.00026876 0.00626280 0.00266294    0.0363757 ----
   186   0   0   F    F -3.20D-01 0.00071471 0.00026876 0.00200518 0.00085260    0.0363741 ----
   187   0   0   F    T  2.61D+00 0.00051374 0.00022537 0.00350111 0.00181034    0.0363736 ----
   188   0   0   F    F -2.30D-01 0.00051374 0.00022537 0.00080563 0.00041657    0.0363722 ----
   189   0   0   F    T  1.73D+00 0.00059805 0.00023741 0.00298790 0.00139376    0.0363721 ----
   190   0   0   F    F  4.22D-01 0.00059805 0.00023741 0.00126023 0.00058786    0.0363702 ----
   191   0   0   F    T  1.63D+00 0.00061627 0.00028737 0.00438868 0.00198162    0.0363700 ----
   192   0   0   F    F  1.59D-01 0.00061627 0.00028737 0.00069667 0.00031457    0.0363677 ----
   193   0   0   F    T  3.29D+00 0.00043564 0.00021248 0.00516711 0.00229619    0.0363677 ----
   194   0   0   F    F -3.02D-01 0.00043564 0.00021248 0.00156142 0.00069387    0.0363664 ----
   195   0   0   F    T  1.95D+00 0.00051850 0.00022616 0.00360106 0.00160231    0.0363661 ----
   196   0   0   F    F  1.08D-01 0.00051850 0.00022616 0.00038910 0.00017313    0.0363645 --++
   197   0   0   F    T  2.09D+00 0.00054933 0.00022546 0.00386055 0.00177545    0.0363645 ----
   198   0   0   F    F -1.92D-01 0.00054933 0.00022546 0.00074173 0.00034112    0.0363632 ----
   199   0   0   F    T  2.10D+00 0.00044895 0.00019776 0.00296428 0.00143433    0.0363632 ----
   200   0   0   F    T  2.16D+00 0.00038590 0.00018473 0.00287458 0.00143433    0.0363620 ----
   201   0   0   F    F  4.61D-01 0.00038590 0.00018473 0.00132518 0.00066123    0.0363607 ----
   202   0   0   F    T  1.85D+00 0.00064875 0.00024998 0.00408700 0.00209556    0.0363605 ----
   203   0   0   F    T  2.76D+00 0.00045142 0.00019387 0.00441570 0.00209556    0.0363588 ----
   204   0   0   F    F -3.85D-01 0.00045142 0.00019387 0.00170080 0.00080715    0.0363582 ----
   205   0   0   F    T  1.61D+00 0.00059239 0.00019266 0.00274038 0.00128841    0.0363578 ----
   206   0   0   F    F  6.25D-01 0.00059239 0.00019266 0.00171315 0.00080545    0.0363565 ----
   207   0   0   F    T  1.90D+00 0.00044465 0.00022724 0.00475754 0.00209386    0.0363563 ----
   208   0   0   F    F  1.00D+00 0.00044465 0.00022724 0.00477973 0.00210363    0.0363541 ----
   209   0   0   F    T  2.77D+00 0.00070179 0.00026387 0.00991600 0.00419749    0.0363534 ----
   210   0   0   F    F -4.55D-01 0.00070179 0.00026387 0.00451299 0.00191037    0.0363529 ----
   211   0   0   F    T  2.79D+00 0.00042634 0.00018975 0.00566925 0.00228712    0.0363518 ----
   212   0   0   F    F -4.45D-01 0.00042634 0.00018975 0.00252083 0.00101697    0.0363515 ----
   213   0   0   F    T  1.72D+00 0.00056689 0.00017719 0.00326846 0.00127015    0.0363510 ----
   214   0   0   F    F  6.48D-01 0.00056689 0.00017719 0.00211642 0.00082246    0.0363498 ----
   215   0   0   F    T  2.14D+00 0.00053124 0.00020190 0.00548298 0.00209262    0.0363496 ----
   216   0   0   F    T  3.81D+00 0.00036555 0.00015466 0.00562833 0.00209262    0.0363483 ----
   217   0   0   F    F -4.28D-01 0.00036555 0.00015466 0.00240744 0.00089509    0.0363479 ----
   218   0   0   F    T  1.92D+00 0.00038828 0.00015809 0.00334291 0.00119753    0.0363475 ----
   219   0   0   F    F -1.91D-01 0.00038828 0.00015809 0.00063891 0.00022888    0.0363469 ---+
   220   0   0   F    T  1.57D+00 0.00053291 0.00015664 0.00274422 0.00096865    0.0363469 ----
   221   0   0   F    F  1.67D+00 0.00053291 0.00015664 0.00458488 0.00161837    0.0363459 ----
   222   0   0   F    T  2.35D+00 0.00050610 0.00020742 0.00745040 0.00258702    0.0363453 ----
   223   0   0   F    F -2.89D-01 0.00050610 0.00020742 0.00215645 0.00074879    0.0363444 ----
   224   0   0   F    T  4.15D+00 0.00025780 0.00012928 0.00450042 0.00183823    0.0363443 ----
   225   0   0   F    F -2.53D-01 0.00025780 0.00012928 0.00113923 0.00046533    0.0363436 ----
   226   0   0   F    T  2.35D+00 0.00033818 0.00014620 0.00377192 0.00137290    0.0363435 ----
   227   0   0   F    F -4.66D-01 0.00033818 0.00014620 0.00175713 0.00063956    0.0363434 ----
   228   0   0   F    T  2.02D+00 0.00035476 0.00011229 0.00166511 0.00073334    0.0363431 ----
   229   0   0   F    T  2.84D+00 0.00021825 0.00009280 0.00167574 0.00073334    0.0363427 ----
   230   0   0   F    F -3.35D-01 0.00021825 0.00009280 0.00056129 0.00024564    0.0363425 ---+
   231   0   0   F    T  2.80D+00 0.00023155 0.00007096 0.00100715 0.00048771    0.0363424 -+--
   232   0   0   F    T  3.51D+00 0.00018087 0.00006434 0.00104286 0.00048771    0.0363422 -+--
   233   0   0   T    F  4.39D-01 0.00018087 0.00006434 0.00045735 0.00021388    0.0363423 -+-+
   234   0   0   F    T  1.78D+00 0.00014434 0.00005184 0.00052809 0.00021388    0.0363421 -+-+
   235   0   0   F    T  1.24D+00 0.00017034 0.00005785 0.00061252 0.00021388    0.0363420 -+-+
   236   0   0   F    F  5.34D-01 0.00017034 0.00005785 0.00032700 0.00011418    0.0363420 -+++
   237   0   0   F    T  4.72D+00 0.00015601 0.00005680 0.00073703 0.00032807    0.0363420 -+--
   238   0   0   T    T  1.00D+00 0.00071622 0.00025348 0.00071622 0.00025348    0.0363425 ---+
   239   0   0   T    F  5.00D-01 0.00071622 0.00025348 0.00035811 0.00012674    0.0363439 --++
   240   0   0   T    F  5.00D-01 0.00071622 0.00025348 0.00017906 0.00006337    0.0363425 --++
   241   0   0   T    F  5.00D-01 0.00071622 0.00025348 0.00008953 0.00003168    0.0363422 --++
   242   0   0   T    F  5.00D-01 0.00071622 0.00025348 0.00004476 0.00001584    0.0363420 --++
   243   0   0   T    F  5.00D-01 0.00071622 0.00025348 0.00002238 0.00000792    0.0363420 --++
   244   0   0   T    F  5.00D-01 0.00071622 0.00025348 0.00001119 0.00000396    0.0363420 --++
   245   0   0   T    F  5.00D-01 0.00071622 0.00025348 0.00000560 0.00000198    0.0363420 --++
   246   0   0   T    F  5.00D-01 0.00071622 0.00025348 0.00000280 0.00000099    0.0363420 --++
   247   0   0   T    F  5.00D-01 0.00071622 0.00025348 0.00000140 0.00000050    0.0363420 --++
   248   0   0   T    F  5.00D-01 0.00071622 0.00025348 0.00000070 0.00000025    0.0363420 --++
   249   0   0   T    T  1.00D+00 0.00015714 0.00005708 0.00009301 0.00003576    0.0363420 -+++
   250   0   0   F    T  1.00D+00 0.00017366 0.00005687 0.00017331 0.00005703    0.0363420 -+++
   251   0   0   F    T  1.16D+00 0.00014532 0.00004142 0.00010516 0.00005703    0.0363419 -+++
   252   0   0   F    T  1.00D+00 0.00013228 0.00005280 0.00015870 0.00005785    0.0363419 -+++
   253   0   0   F    T  1.05D+00 0.00013216 0.00004069 0.00011377 0.00005785    0.0363419 -+++
   254   0   0   F    T  1.16D+00 0.00012138 0.00004514 0.00013943 0.00005785    0.0363419 -+++
   255   0   0   F    T  1.00D+00 0.00017130 0.00004868 0.00014408 0.00007894    0.0363418 -+++
   256   0   0   T    F  5.00D-01 0.00017130 0.00004868 0.00007204 0.00003947    0.0363419 -+++
   257   0   0   T    F  5.00D-01 0.00017130 0.00004868 0.00003602 0.00001973    0.0363419 -+++
   258   0   0   T    F  5.00D-01 0.00017130 0.00004868 0.00001801 0.00000987    0.0363419 -+++
   259   0   0   T    F  5.00D-01 0.00017130 0.00004868 0.00000900 0.00000493    0.0363419 -+++
   260   0   0   T    F  5.00D-01 0.00017130 0.00004868 0.00000450 0.00000247    0.0363419 -+++
   261   0   0   T    F  5.00D-01 0.00017130 0.00004868 0.00000225 0.00000123    0.0363418 -+++
   262   0   0   T    F  5.00D-01 0.00017130 0.00004868 0.00000113 0.00000062    0.0363418 -+++
   263   0   0   T    F  5.00D-01 0.00017130 0.00004868 0.00000056 0.00000031    0.0363418 -+++
   264   0   0   T    T  1.00D+00 0.00017200 0.00004889 0.00016900 0.00004862    0.0363418 -+++
   265   0   0   F    T  1.19D+00 0.00012034 0.00003992 0.00012469 0.00004862    0.0363418 -+++
   266   0   0   T    F  5.00D-01 0.00012034 0.00003992 0.00006234 0.00002431    0.0363419 -+++
   267   0   0   T    F  5.00D-01 0.00012034 0.00003992 0.00003117 0.00001215    0.0363418 -+++
   268   0   0   T    F  5.00D-01 0.00012034 0.00003992 0.00001559 0.00000608    0.0363418 -+++
   269   0   0   T    F  5.00D-01 0.00012034 0.00003992 0.00000779 0.00000304    0.0363418 -+++
   270   0   0   T    F  5.00D-01 0.00012034 0.00003992 0.00000390 0.00000152    0.0363418 -+++
   271   0   0   T    F  5.00D-01 0.00012034 0.00003992 0.00000195 0.00000076    0.0363418 -+++
   272   0   0   T    F  5.00D-01 0.00012034 0.00003992 0.00000097 0.00000038    0.0363418 -+++
   273   0   0   T    T  1.00D+00 0.00012183 0.00004030 0.00011113 0.00003893    0.0363418 -+++
   274   0   0   F    T  1.45D+00 0.00007891 0.00002650 0.00008240 0.00003893    0.0363418 ====
 ****************************
 MOLECULAR MECHANICS FUNCTION
 ****************************
 Atomic parameters:
 Center  VDW
      1 1.9080 0.0860000
      2 1.7210 0.2104000
      3 1.9080 0.1094000
      4 1.4870 0.0157000
      5 1.4870 0.0157000
      6 1.8750 0.1700000
      7 0.6000 0.0157000
      8 0.6000 0.0157000
      9 1.6612 0.2100000
     10 0.0000 0.0000000
 Molecular mechanics terms:
 NBDir 3 1      0      0
 HrmStr1  1- 2  431.53 1.3510
 HrmStr1  1- 3  294.15 1.5090
 HrmStr1  1- 9  946.08 1.2030
 HrmStr1  2-10  566.76 0.9680
 HrmStr1  3- 4  358.05 1.0960
 HrmStr1  3- 5  358.05 1.0960
 HrmStr1  3- 6  380.82 1.4520
 HrmStr1  6- 7  506.01 1.0110
 HrmStr1  6- 8  506.01 1.0110
 HrmBnd1  1- 2-10  56.55 107.23
 HrmBnd1  1- 3- 4  46.41 106.89
 HrmBnd1  1- 3- 5  46.41 106.89
 HrmBnd1  1- 3- 6  59.93 110.61
 HrmBnd1  2- 1- 3  67.92 111.72
 HrmBnd1  2- 1- 9  91.40 123.02
 HrmBnd1  3- 1- 9  62.83 125.24
 HrmBnd1  3- 6- 7  52.60 110.71
 HrmBnd1  3- 6- 8  52.60 110.71
 HrmBnd1  4- 3- 5  44.68 106.22
 HrmBnd1  4- 3- 6  52.45 112.94
 HrmBnd1  5- 3- 6  52.45 112.94
 HrmBnd1  7- 6- 8  47.09 108.63
 AmbTrs  3- 1- 2-10   0 180   0   0  0.0000 14.5000  0.0000  0.0000  2.0
 AmbTrs  9- 1- 2-10   0   0   0   0  0.0000 14.5000  0.0000  0.0000  2.0
 AmbTrs  2- 1- 3- 4   0   0   0   0  0.0000 14.5000  0.0000  0.0000  6.0
 AmbTrs  2- 1- 3- 5   0   0   0   0  0.0000 14.5000  0.0000  0.0000  6.0
 AmbTrs  2- 1- 3- 6   0   0   0   0  0.0000 14.5000  0.0000  0.0000  6.0
 AmbTrs  9- 1- 3- 4   0   0   0   0  0.0000 14.5000  0.0000  0.0000  6.0
 AmbTrs  9- 1- 3- 5   0   0   0   0  0.0000 14.5000  0.0000  0.0000  6.0
 AmbTrs  9- 1- 3- 6   0   0   0   0  0.0000 14.5000  0.0000  0.0000  6.0
 AmbTrs  1- 3- 6- 7   0 180   0   0  0.0000 25.6300  0.0000  0.0000  6.0
 AmbTrs  1- 3- 6- 8   0 180   0   0  0.0000 25.6300  0.0000  0.0000  6.0
 AmbTrs  4- 3- 6- 7   0   0   0   0  0.0000  0.0000  0.0000  0.0000  6.0
 AmbTrs  4- 3- 6- 8   0   0   0   0  0.0000  0.0000  0.0000  0.0000  6.0
 AmbTrs  5- 3- 6- 7   0   0   0   0  0.0000  0.0000  0.0000  0.0000  6.0
 AmbTrs  5- 3- 6- 8   0   0   0   0  0.0000  0.0000  0.0000  0.0000  6.0
 NBPair  2- 1 3 1      0      0 -1.000 -1.000
 NBPair  3- 2 3 1      0      0 -1.000 -1.000
 NBPair 10- 3 3 1      0      0 -0.500 -0.167
 NBPair  9- 2 3 1      0      0 -1.000 -1.000
 NBPair 10- 9 3 1      0      0 -0.500 -0.167
 NBPair  3- 1 3 1      0      0 -1.000 -1.000
 NBPair  4- 2 3 1      0      0 -0.500 -0.167
 NBPair  5- 2 3 1      0      0 -0.500 -0.167
 NBPair  6- 2 3 1      0      0 -0.500 -0.167
 NBPair  9- 3 3 1      0      0 -1.000 -1.000
 NBPair  9- 4 3 1      0      0 -0.500 -0.167
 NBPair  9- 5 3 1      0      0 -0.500 -0.167
 NBPair  9- 6 3 1      0      0 -0.500 -0.167
 NBPair  9- 1 3 1      0      0 -1.000 -1.000
 NBPair 10- 1 3 1      0      0 -1.000 -1.000
 NBPair 10- 2 3 1      0      0 -1.000 -1.000
 NBPair  4- 1 3 1      0      0 -1.000 -1.000
 NBPair  5- 1 3 1      0      0 -1.000 -1.000
 NBPair  6- 1 3 1      0      0 -1.000 -1.000
 NBPair  4- 3 3 1      0      0 -1.000 -1.000
 NBPair  5- 4 3 1      0      0 -1.000 -1.000
 NBPair  6- 4 3 1      0      0 -1.000 -1.000
 NBPair  5- 3 3 1      0      0 -1.000 -1.000
 NBPair  6- 5 3 1      0      0 -1.000 -1.000
 NBPair  6- 3 3 1      0      0 -1.000 -1.000
 NBPair  7- 1 3 1      0      0 -0.500 -0.167
 NBPair  8- 1 3 1      0      0 -0.500 -0.167
 NBPair  7- 4 3 1      0      0 -0.500 -0.167
 NBPair  8- 4 3 1      0      0 -0.500 -0.167
 NBPair  7- 5 3 1      0      0 -0.500 -0.167
 NBPair  8- 5 3 1      0      0 -0.500 -0.167
 NBPair  7- 3 3 1      0      0 -1.000 -1.000
 NBPair  8- 3 3 1      0      0 -1.000 -1.000
 NBPair  7- 6 3 1      0      0 -1.000 -1.000
 NBPair  8- 7 3 1      0      0 -1.000 -1.000
 NBPair  8- 6 3 1      0      0 -1.000 -1.000
 Energy per function type:
 Direct Coulomb + vdW (small)                           0.002760461
 Direct Coulomb (large)                                -0.129727203
 Direct vdW (large)                                   269.768838257
 Non-direct Coulomb + vdW (small)                      -0.012426244
 Non-direct Coulomb (large)                             0.137785300
 Non-direct vdW (large)                              -269.768838257
 Harmonic stretch I                                     0.000104996
 Harmonic bend I                                        0.004747791
 Amber torsion                                          0.033096718
 Energy per function class:
        Coulomb              -0.002751147
    Vanderwaals               0.001143460
     Stretching               0.000104996
        Bending               0.004747791
        Torsion               0.033096718
 Energy=    3.634181917E-02 NIter=   0.
 Dipole moment=      -0.030829      -0.815003       0.441987
 Leave Link  402 at Wed Nov 29 12:05:13 2023, MaxMem=   134217728 cpu:               0.5 elap:               0.5
 (Enter /home/emanuele/chem_software/gaussian//gdv/l716.exe)
 Dipole        =-3.08289300D-02-8.15002879D-01 4.41986961D-01
 -------------------------------------------------------------------
 Center     Atomic                   Forces (Hartrees/Bohr)
 Number     Number              X              Y              Z
 -------------------------------------------------------------------
      1        6          -0.000019255    0.000055807   -0.000078907
      2        8           0.000018484    0.000013960    0.000013839
      3        6           0.000008399   -0.000006108   -0.000004925
      4        1           0.000011909    0.000001139   -0.000004613
      5        1           0.000011060   -0.000003427   -0.000001657
      6        7          -0.000016145    0.000005556    0.000000674
      7        1          -0.000030060   -0.000021178    0.000029013
      8        1          -0.000012338    0.000003976   -0.000007161
      9        8           0.000002809   -0.000068289    0.000041072
     10        1           0.000025138    0.000018565    0.000012665
 -------------------------------------------------------------------
 Cartesian Forces:  Max     0.000078907 RMS     0.000026504
 Z-matrix is all fixed cartesians, so copy forces.
 Leave Link  716 at Wed Nov 29 12:05:13 2023, MaxMem=   134217728 cpu:               0.0 elap:               0.0
 (Enter /home/emanuele/chem_software/gaussian//gdv/l103.exe)

 GradGradGradGradGradGradGradGradGradGradGradGradGradGradGradGradGradGrad
 Berny optimization.
 Search for a local minimum.
 Step number   1 out of a maximum of    2
 All quantities printed in internal units (Hartrees-Bohrs-Radians)
 RMS Force = .26504D-04 SwitMx=.10000D-02 MixMth= 2
 Mixed Optimization -- En-DIIS/RFO-DIIS
 Second derivative matrix not updated -- unit matrix used.
 ITU=  0
 RFO step:  Lambda=-2.10732403D-08 EMin= 1.00000000D+00
 Linear search not attempted -- first point.
 Variable       Old X    -DE/DX   Delta X   Delta X   Delta X     New X
                                 (Linear)    (Quad)   (Total)
    X1       -1.20678  -0.00002   0.00000  -0.00002  -0.00002  -1.20679
    Y1       -0.21271   0.00006   0.00000   0.00006   0.00006  -0.21265
    Z1       -0.71884  -0.00008   0.00000  -0.00008  -0.00008  -0.71892
    X2       -2.14852   0.00002   0.00000   0.00002   0.00002  -2.14850
    Y2        0.32554   0.00001   0.00000   0.00001   0.00001   0.32555
    Z2        1.59044   0.00001   0.00000   0.00001   0.00001   1.59046
    X3        1.36069   0.00001   0.00000   0.00001   0.00001   1.36070
    Y3       -1.45729  -0.00001   0.00000  -0.00001  -0.00001  -1.45729
    Z3       -0.38835  -0.00000   0.00000  -0.00000  -0.00000  -0.38836
    X4        1.05818   0.00001   0.00000   0.00001   0.00001   1.05820
    Y4       -3.12561   0.00000   0.00000   0.00000   0.00000  -3.12561
    Z4        0.80301  -0.00000   0.00000  -0.00000  -0.00000   0.80300
    X5        1.78976   0.00001   0.00000   0.00001   0.00001   1.78978
    Y5       -2.32320  -0.00000   0.00000  -0.00000  -0.00000  -2.32321
    Z5       -2.22105  -0.00000   0.00000  -0.00000  -0.00000  -2.22105
    X6        3.33398  -0.00002   0.00000  -0.00002  -0.00002   3.33396
    Y6        0.24643   0.00001   0.00000   0.00001   0.00001   0.24644
    Z6        0.51853   0.00000   0.00000   0.00000   0.00000   0.51853
    X7        2.67655  -0.00003   0.00000  -0.00003  -0.00003   2.67652
    Y7        1.80840  -0.00002   0.00000  -0.00002  -0.00002   1.80838
    Z7        1.40472   0.00003   0.00000   0.00003   0.00003   1.40475
    X8        4.79219  -0.00001   0.00000  -0.00001  -0.00001   4.79218
    Y8       -0.61232   0.00000   0.00000   0.00000   0.00000  -0.61232
    Z8        1.40603  -0.00001   0.00000  -0.00001  -0.00001   1.40602
    X9       -1.49296   0.00000   0.00000   0.00000   0.00000  -1.49296
    Y9        1.27938  -0.00007   0.00000  -0.00007  -0.00007   1.27931
    Z9       -2.40796   0.00004   0.00000   0.00004   0.00004  -2.40791
   X10       -3.96096   0.00003   0.00000   0.00003   0.00003  -3.96094
   Y10        0.43632   0.00002   0.00000   0.00002   0.00002   0.43634
   Z10        1.38343   0.00001   0.00000   0.00001   0.00001   1.38345
         Item               Value     Threshold  Converged?
 Maximum Force            0.000079     0.000450     YES
 RMS     Force            0.000027     0.000300     YES
 Maximum Displacement     0.000079     0.001800     YES
 RMS     Displacement     0.000027     0.001200     YES
 Predicted change in Energy=-1.053662D-08
 Optimization completed.
    -- Stationary point found.
 Largest change from initial coordinates is atom    8       0.411 Angstoms.
 GradGradGradGradGradGradGradGradGradGradGradGradGradGradGradGradGradGrad

 Leave Link  103 at Wed Nov 29 12:05:13 2023, MaxMem=   134217728 cpu:               0.0 elap:               0.0
 (Enter /home/emanuele/chem_software/gaussian//gdv/l202.exe)
                          Input orientation:                          
 ---------------------------------------------------------------------
 Center     Atomic      Atomic             Coordinates (Angstroms)
 Number     Number       Type             X           Y           Z
 ---------------------------------------------------------------------
      1          6    20001002       -0.638598   -0.112561   -0.380393
      2          8    20001022       -1.136949    0.172267    0.841626
      3          6    20001001        0.720045   -0.771162   -0.205506
      4          1    20001034        0.559967   -1.654001    0.424932
      5          1    20001034        0.947103   -1.229386   -1.175329
      6          7    20001020        1.764264    0.130405    0.274392
      7          1    20001029        1.416368    0.956967    0.743346
      8          1    20001029        2.535920   -0.324028    0.744038
      9          8    20001025       -0.790043    0.677019   -1.274235
     10          1    20001031       -2.096052    0.230893    0.732081
 ---------------------------------------------------------------------
                    Distance matrix (angstroms):
                    1          2          3          4          5
     1  C    0.000000
     2  O    1.350116   0.000000
     3  C    1.519951   2.331304   0.000000
     4  H    2.112142   2.527532   1.096578   0.000000
     5  H    2.096108   3.221182   1.096394   1.700297   0.000000
     6  N    2.502303   2.956442   1.460657   2.158032   2.149064
     7  H    2.574794   2.672984   2.090841   2.766218   2.946466
     8  H    3.374407   3.707533   2.097371   2.403133   2.651035
     9  O    1.202217   2.202723   2.349420   3.184863   2.581053
    10  H    1.865404   0.967116   3.132665   3.271330   3.877037
                    6          7          8          9         10
     6  N    0.000000
     7  H    1.012005   0.000000
     8  H    1.011201   1.701277   0.000000
     9  O    3.036695   3.002874   4.017157   0.000000
    10  H    3.888652   3.586698   4.665108   2.435158   0.000000
 Symmetry turned off by external request.
 Stoichiometry    C2H5NO2
 Framework group  C1[X(C2H5NO2)]
 Deg. of freedom    24
 Full point group                 C1      NOp   1
 Rotational constants (GHZ):           8.6378228           4.1840250           3.4496247
 Leave Link  202 at Wed Nov 29 12:05:14 2023, MaxMem=   134217728 cpu:               0.0 elap:               0.0
 (Enter /home/emanuele/chem_software/gaussian//gdv/l9999.exe)
 Unable to Open any file for archive entry.
 1\1\GINC-EMANUELE-XPS-13-9343\FOpt\AMBER\ZDO\C2H5N1O2\EMANUELE\29-Nov-
 2023\0\\#p Amber=(SoftFirst,Print) geom=nocrowd nosymm opt=(maxcycle=3
 00)\\Title\\0,1\C,-0.6385979502,-0.1125614327,-0.3803928927\O,-1.13694
 945,0.1722674963,0.8416262034\C,0.7200452845,-0.7711624483,-0.20550645
 63\H,0.5599668579,-1.6540012627,0.4249320841\H,0.9471026752,-1.2293862
 448,-1.1753294104\N,1.7642642778,0.130405058,0.2743919486\H,1.41636817
 25,0.9569665739,0.7433456806\H,2.5359196181,-0.3240275855,0.7440377859
 \O,-0.7900429092,0.6770187235,-1.2742353119\H,-2.0960515766,0.23089312
 22,0.7320813687\\Version=ES64L-GDVRevJ.14\HF=0.0363418\RMSD=0.000e+00\
 RMSF=2.650e-05\Dipole=-0.0308289,-0.8150029,0.441987\PG=C01 [X(C2H5N1O
 2)]\\@
 The archive entry for this job was punched.


 WOMEN HOLD UP HALF THE SKY. -- MAO TSE TUNG
 Job cpu time:       0 days  0 hours  0 minutes  1.0 seconds.
 Elapsed time:       0 days  0 hours  0 minutes  0.9 seconds.
 File lengths (MBytes):  RWF=      6 Int=      0 D2E=      0 Chk=      1 Scr=      1
 Normal termination of Gaussian DV at Wed Nov 29 12:05:14 2023.
