 Entering Gaussian System, Link 0=/home/emanuele/chem_software/gaussian//g09/g09
 Input=0_mm_80.gjf
 Output=0_mm_80.log
 Initial command:
 /home/emanuele/chem_software/gaussian//gdv/l1.exe "/home/emanuele/chem_software/gaussian/scratch/Gau-13809.inp" -scrdir="/home/emanuele/chem_software/gaussian/scratch/"
 Entering Link 1 = /home/emanuele/chem_software/gaussian//gdv/l1.exe PID=     13811.
  
 Copyright (c) 1988-2020, Gaussian, Inc.  All Rights Reserved.
  
 This is the private, development version of
 the Gaussian(R) DV system of programs. It is based on
 the Gaussian(R) 16 system (copyright 2016, Gaussian, Inc.),
 the Gaussian(R) 09 system (copyright 2009, Gaussian, Inc.),
 the Gaussian(R) 03 system (copyright 2003, Gaussian, Inc.),
 the Gaussian(R) 98 system (copyright 1998, Gaussian, Inc.),
 the Gaussian(R) 94 system (copyright 1995, Gaussian, Inc.),
 the Gaussian 92(TM) system (copyright 1992, Gaussian, Inc.),
 the Gaussian 90(TM) system (copyright 1990, Gaussian, Inc.),
 the Gaussian 88(TM) system (copyright 1988, Gaussian, Inc.),
 the Gaussian 86(TM) system (copyright 1986, Carnegie Mellon
 University), and the Gaussian 82(TM) system (copyright 1983,
 Carnegie Mellon University). Gaussian is a federally registered
 trademark of Gaussian, Inc.
  
 This software contains proprietary and confidential information,
 including trade secrets, belonging to Gaussian, Inc.
  
 This software is provided under written license and may be
 used, copied, transmitted, or stored only in accord with that
 written license.
  
 The following legend is applicable only to US Government
 contracts under FAR:
  
                    RESTRICTED RIGHTS LEGEND
  
 Use, reproduction and disclosure by the US Government is
 subject to restrictions as set forth in subparagraphs (a)
 and (c) of the Commercial Computer Software - Restricted
 Rights clause in FAR 52.227-19.
  
 Gaussian, Inc.
 340 Quinnipiac St., Bldg. 40, Wallingford CT 06492
  
  
 ---------------------------------------------------------------
 Warning -- This program may not be used in any manner that
 competes with the business of Gaussian, Inc. or will provide
 assistance to any competitor of Gaussian, Inc.  The licensee
 of this program is prohibited from giving any competitor of
 Gaussian, Inc. access to this program.  By using this program,
 the user acknowledges that Gaussian, Inc. is engaged in the
 business of creating and licensing software in the field of
 computational chemistry and represents and warrants to the
 licensee that it is not a competitor of Gaussian, Inc. and that
 it will not use this program in any manner prohibited above.
 ---------------------------------------------------------------
  

 Cite this work as:
 Gaussian Development Version, Revision J.14,
 M. J. Frisch, G. W. Trucks, H. B. Schlegel, G. E. Scuseria, 
 M. A. Robb, J. R. Cheeseman, G. Scalmani, V. Barone, 
 G. A. Petersson, H. Nakatsuji, X. Li, A. V. Marenich, M. Caricato, 
 J. Bloino, B. G. Janesko, J. Zheng, R. Gomperts, B. Mennucci, 
 H. P. Hratchian, J. V. Ortiz, A. F. Izmaylov, J. L. Sonnenberg, 
 D. Williams-Young, F. Ding, F. Lipparini, F. Egidi, J. Goings, 
 B. Peng, A. Petrone, T. Henderson, D. Ranasinghe, V. G. Zakrzewski, 
 J. Gao, N. Rega, G. Zheng, W. Liang, M. Hada, M. Ehara, K. Toyota, 
 R. Fukuda, J. Hasegawa, M. Ishida, T. Nakajima, Y. Honda, O. Kitao, 
 H. Nakai, T. Vreven, K. Throssell, J. A. Montgomery, Jr., 
 J. E. Peralta, F. Ogliaro, M. J. Bearpark, J. J. Heyd, 
 E. N. Brothers, K. N. Kudin, V. N. Staroverov, T. A. Keith, 
 R. Kobayashi, J. Normand, K. Raghavachari, A. P. Rendell, 
 J. C. Burant, S. S. Iyengar, J. Tomasi, M. Cossi, J. M. Millam, 
 M. Klene, C. Adamo, R. Cammi, J. W. Ochterski, R. L. Martin, 
 K. Morokuma, O. Farkas, J. B. Foresman, and D. J. Fox, 
 Gaussian, Inc., Wallingford CT, 2020.
 
 ******************************************
 Gaussian DV:  ES64L-GDVRevJ.14 29-Dec-2020
                29-Nov-2023 
 ******************************************
 %mem=1GB
 %nprocshared=1
 Will use up to    1 processors via shared memory.
 %chk=0_mm_80.chk
 -----------------------------------------------------------------
 #p Amber=(SoftFirst,Print) geom=nocrowd nosymm opt=(maxcycle=300)
 -----------------------------------------------------------------
 1/6=300,10=10,18=4000020,19=15,37=210000000,38=1,56=2,64=203/1,3;
 2/9=110,12=1,15=1,40=1/2;
 3/5=30,11=9,25=1,30=1,41=10030000,43=2,71=1/1;
 4/20=11,22=1001,24=3,119=11/2;
 7/30=1,44=-1/16;
 1/6=300,10=10,18=4000020,19=15,64=203/3(2);
 2/9=110,12=1,15=1/2;
 99//99;
 2/9=110,12=1,15=1/2;
 3/5=30,11=9,25=1,30=1,41=10030000,43=2,71=1/1;
 4/16=2,20=11,22=1001,24=3,119=11/2;
 7/30=1,44=-1/16;
 1/6=300,10=10,18=4000020,19=15,64=203/3(-4);
 2/9=110,12=1,15=1/2;
 99/9=10/99;
 Leave Link    1 at Wed Nov 29 12:05:18 2023, MaxMem=   134217728 cpu:               0.0 elap:               0.0
 (Enter /home/emanuele/chem_software/gaussian//gdv/l101.exe)
 -----
 Title
 -----
 Symbolic Z-matrix:
 Charge =  0 Multiplicity = 1
 C-C-+0.299289        -0.57598  -0.22311   0.1567 
 O-OH--0.289770       -1.01303   0.95407  -0.41237 
 C-CT--0.035454        0.83283  -0.51425  -0.33858 
 H-HC-+0.090426        0.69236  -1.3786   -1.04422 
 H-HC-+0.095387        1.00223   0.22833  -1.15776 
 N-N3--0.336253        1.92751  -0.46054   0.64887 
 H-H-+0.142619         1.98105   0.45337   1.09044 
 H-H-+0.128282         1.8043   -1.15911   1.37771 
 O-O2--0.308037       -1.39201  -0.9619    0.64923 
 H-HO-+0.213510       -1.97724   1.13816  -0.24505 
 
 ITRead=  3  3  3  3  3  3  3  3  3  3
 MicOpt=  0  0  0  0  0  0  0  0  0  0
 NAtoms=     10 NQM=        0 NQMF=       0 NMMI=      0 NMMIF=      0
                NMic=      10 NMicF=      0.
                    Isotopes and Nuclear Properties:
 (Nuclear quadrupole moments (NQMom) in fm**2, nuclear magnetic moments (NMagM)
  in nuclear magnetons)

  Atom         1           2           3           4           5           6           7           8           9          10
 IAtWgt=          12          16          12           1           1          14           1           1          16           1
 AtmWgt=  12.0000000  15.9949146  12.0000000   1.0078250   1.0078250  14.0030740   1.0078250   1.0078250  15.9949146   1.0078250
 NucSpn=           0           0           0           1           1           2           1           1           0           1
 AtZEff=  -0.0000000  -0.0000000  -0.0000000  -0.0000000  -0.0000000  -0.0000000  -0.0000000  -0.0000000  -0.0000000  -0.0000000
 NQMom=    0.0000000   0.0000000   0.0000000   0.0000000   0.0000000   2.0440000   0.0000000   0.0000000   0.0000000   0.0000000
 NMagM=    0.0000000   0.0000000   0.0000000   2.7928460   2.7928460   0.4037610   2.7928460   2.7928460   0.0000000   2.7928460
 AtZNuc=   6.0000000   8.0000000   6.0000000   1.0000000   1.0000000   7.0000000   1.0000000   1.0000000   8.0000000   1.0000000
 Generating MM parameters.
 I=    1 IAn=  6 Valence= 5.
          JB=  1 J=    2 IAn=  8 IBT=12 Dist= 1.38D+00
          JB=  2 J=    3 IAn=  6 IBT= 1 Dist= 1.52D+00
          JB=  3 J=    9 IAn=  8 IBT= 2 Dist= 1.21D+00
 I=    2 IAn=  8 Valence= 3.
          JB=  1 J=    1 IAn=  6 IBT=12 Dist= 1.38D+00
          JB=  2 J=   10 IAn=  1 IBT= 1 Dist= 9.96D-01
 Read MM parameter file:
 Include all MM classes

 MM sanity checks:
 All charges sum to:               -0.00000100
 Charges of atoms sum to:          -0.00000100
 WARNING -- The following centers have non-zero partial charges, but zero Vanderwaals
 parameters.  These centers can collapse onto other centers with non-zero charge.
   Center  Layer   Charge
     10 H    R    0.213510
 MMInit generated parameter data with length LenPar=        2069.
 MM Charge=             -0.0000 electrons
 MM Dipole moment (Debye):
    X=              0.5876    Y=              0.8754    Z=             -0.7911  Tot=              1.3181
 MM Quadrupole moment (Debye-Ang):
   XX=             -0.5649   YY=              0.1945   ZZ=              1.6088
   XY=             -2.2355   XZ=              1.3167   YZ=              1.4471
 MM Traceless Quadrupole moment (Debye-Ang):
   XX=             -0.9777   YY=             -0.2183   ZZ=              1.1960
   XY=             -2.2355   XZ=              1.3167   YZ=              1.4471
 MM Octapole moment (Debye-Ang**2):
  XXX=             -4.8781  YYY=             -0.2432  ZZZ=              0.5424  XYY=              2.1914
  XXY=              7.3878  XXZ=             -1.0887  XZZ=              4.3060  YZZ=             -0.7395
  YYZ=             -0.4833  XYZ=             -1.1338
 MM Hexadecapole moment (Debye-Ang**3):
 XXXX=              4.0792 YYYY=              1.9313 ZZZZ=              3.9409 XXXY=             -7.9163
 XXXZ=              6.5317 YYYX=             -5.6529 YYYZ=              1.0045 ZZZX=              3.2582
 ZZZY=             -0.2815 XXYY=              3.6280 XXZZ=              4.1092 YYZZ=              1.8105
 XXYZ=              1.2939 YYXZ=              2.6669 ZZXY=             -2.1542
 Leave Link  101 at Wed Nov 29 12:05:18 2023, MaxMem=   134217728 cpu:               0.3 elap:               0.3
 (Enter /home/emanuele/chem_software/gaussian//gdv/l103.exe)

 GradGradGradGradGradGradGradGradGradGradGradGradGradGradGradGradGradGrad
 Berny optimization.
 Initialization pass.
 No Z-matrix variables, so optimization will use Cartesian coordinates.
 Trust Radius=1.00D-01 FncErr=1.00D-07 GrdErr=1.00D-07 EigMax=2.50D+02 EigMin=1.00D-04
 Number of steps in this run=      2 maximum allowed number of steps=      2.
 GradGradGradGradGradGradGradGradGradGradGradGradGradGradGradGradGradGrad

 Leave Link  103 at Wed Nov 29 12:05:18 2023, MaxMem=   134217728 cpu:               0.0 elap:               0.0
 (Enter /home/emanuele/chem_software/gaussian//gdv/l202.exe)
                          Input orientation:                          
 ---------------------------------------------------------------------
 Center     Atomic      Atomic             Coordinates (Angstroms)
 Number     Number       Type             X           Y           Z
 ---------------------------------------------------------------------
      1          6    20001002       -0.575978   -0.223111    0.156695
      2          8    20001022       -1.013033    0.954071   -0.412372
      3          6    20001001        0.832828   -0.514253   -0.338578
      4          1    20001034        0.692364   -1.378598   -1.044224
      5          1    20001034        1.002235    0.228325   -1.157764
      6          7    20001020        1.927508   -0.460539    0.648871
      7          1    20001029        1.981049    0.453374    1.090439
      8          1    20001029        1.804304   -1.159110    1.377709
      9          8    20001025       -1.392008   -0.961904    0.649228
     10          1    20001031       -1.977243    1.138156   -0.245053
 ---------------------------------------------------------------------
                    Distance matrix (angstroms):
                    1          2          3          4          5
     1  C    0.000000
     2  O    1.378627   0.000000
     3  C    1.521444   2.359793   0.000000
     4  H    2.094289   2.957864   1.124615   0.000000
     5  H    2.102939   2.267955   1.118564   1.640461   0.000000
     6  N    2.562431   3.431347   1.475217   2.288009   2.143500
     7  H    2.804977   3.387280   2.072873   3.094126   2.462345
     8  H    2.834204   3.950609   2.074909   2.674013   2.999486
     9  O    1.205947   2.222966   2.475085   2.717723   3.227114
    10  H    1.994491   0.995783   3.261242   3.754934   3.246248
                    6          7          8          9         10
     6  N    0.000000
     7  H    1.016408   0.000000
     8  H    1.017047   1.647382   0.000000
     9  O    3.357164   3.684453   3.284202   0.000000
    10  H    4.313004   4.233266   4.712843   2.356372   0.000000
 Symmetry turned off by external request.
 Stoichiometry    C2H5NO2
 Framework group  C1[X(C2H5NO2)]
 Deg. of freedom    24
 Full point group                 C1      NOp   1
 Rotational constants (GHZ):           9.2578442           3.6415093           2.9386855
 Leave Link  202 at Wed Nov 29 12:05:18 2023, MaxMem=   134217728 cpu:               0.0 elap:               0.0
 (Enter /home/emanuele/chem_software/gaussian//gdv/l301.exe)
 Standard basis: Dummy (5D, 7F)
    10 basis functions,    10 primitive gaussians,    10 cartesian basis functions
     7 alpha electrons        7 beta electrons
       nuclear repulsion energy        22.4935706381 Hartrees.
 IExCor=       0 DFT=F Ex=HF Corr=None N6=None ScaHFX=  1.000000
 ScaDFX=  1.000000  1.000000  1.000000  1.000000  1.000000  0.000000
 ScaDFX=  0.000000  0.000000  0.000000  0.000000  0.000000  0.000000
 IRadAn=      5 IRanWt=     -1 IRanGd=            0 ICorTp=0 IEmpDi=  4
 NAtoms=   10 NActive=   10 NUniq=   10 SFac= 1.00D+00 NAtFMM=   60 NAOKFM=F Big=F
 Integral buffers will be    131072 words long.
 Raffenetti 1 integral format.
 Two-electron integral symmetry is turned off.
 Leave Link  301 at Wed Nov 29 12:05:18 2023, MaxMem=   134217728 cpu:               0.0 elap:               0.1
 (Enter /home/emanuele/chem_software/gaussian//gdv/l402.exe)
 AMBER calculation of energy and first derivatives.
 NRF= 0 NRA=   0 NVA=  10 HaveQM=F NVQ=       0
 Convergence limit is  0.750E-04 MaxStp= 10000 StMxLn= 3.00D-04 StpMin= 1.00D-06.
 Convergence criteria             0.00011250 0.00007500 0.00045000 0.00030000
  Step  NS  ND Rises OKQ   Scale  Max. Force  RMS Force Max. Disp.  RMS Disp.     Energy   Flag
     1   0   0   F    T  1.00D+00 0.03477633 0.01343651 0.03477633 0.01343651    0.0722412 ----
     2   0   0   F    F  6.97D-01 0.03477633 0.01343651 0.02425208 0.00937026    0.0684310 ----
     3   0   0   F    T  2.59D+00 0.01723466 0.00765206 0.04658802 0.02280677    0.0676613 ----
     4   0   0   F    F  6.78D-01 0.01723466 0.00765206 0.03159013 0.01546468    0.0644404 ----
     5   0   0   F    T  3.05D+00 0.02063582 0.00788713 0.08869323 0.03827145    0.0638036 ----
     6   0   0   F    F -2.71D-01 0.02063582 0.00788713 0.02405405 0.01037941    0.0620049 ----
     7   0   0   F    T  1.66D+00 0.02220342 0.00868839 0.07020820 0.02789204    0.0617009 ----
     8   0   0   F    F  2.96D-01 0.02220342 0.00868839 0.02076907 0.00825105    0.0593325 ----
     9   0   0   F    T  1.31D+00 0.02602842 0.01112595 0.08908462 0.03614309    0.0591971 ----
    10   0   0   F    F  7.29D-02 0.02602842 0.01112595 0.00648996 0.00263308    0.0564424 ----
    11   0   0   F    T  4.02D+00 0.01542582 0.00771788 0.08873511 0.03877617    0.0564283 ----
    12   0   0   F    F -4.93D-01 0.01542582 0.00771788 0.04377807 0.01913049    0.0562858 ----
    13   0   0   F    T  3.12D+00 0.01046194 0.00490362 0.04792917 0.01964568    0.0546215 ----
    14   0   0   F    F  2.81D-01 0.01046194 0.00490362 0.01344805 0.00551222    0.0532162 ----
    15   0   0   F    T  2.42D+00 0.01304003 0.00574987 0.05633069 0.02515790    0.0531425 ----
    16   0   0   F    F -8.53D-02 0.01304003 0.00574987 0.00480221 0.00214472    0.0520667 ----
    17   0   0   F    T  3.47D+00 0.00987567 0.00416988 0.05127525 0.02301319    0.0520575 ----
    18   0   0   T    F  4.45D-01 0.00987567 0.00416988 0.02280052 0.01023325    0.0522758 ----
    19   0   0   F    T  1.15D+00 0.01222144 0.00446833 0.02664853 0.01023325    0.0516561 ----
    20   0   0   F    F  7.22D-01 0.01222144 0.00446833 0.01924059 0.00738854    0.0511646 ----
    21   0   0   F    T  4.28D+00 0.00704570 0.00262017 0.03933035 0.01762180    0.0510584 ----
    22   0   0   T    F  4.45D-01 0.00704570 0.00262017 0.01748564 0.00783437    0.0511648 ----
    23   0   0   F    T  5.02D+00 0.00290438 0.00125326 0.01746049 0.00783437    0.0508630 ----
    24   0   0   F    F  1.17D-01 0.00290438 0.00125326 0.00203548 0.00091330    0.0507323 ----
    25   0   0   F    T  2.44D+00 0.00431516 0.00177090 0.02274915 0.00874767    0.0507308 ----
    26   0   0   F    F  1.01D-01 0.00431516 0.00177090 0.00229419 0.00088218    0.0506055 ----
    27   0   0   F    T  3.77D+00 0.00350890 0.00137824 0.02806367 0.00962985    0.0506044 ----
    28   0   0   F    F -3.76D-01 0.00350890 0.00137824 0.01055059 0.00362036    0.0505617 ----
    29   0   0   F    T  2.04D+00 0.00439177 0.00138903 0.01801576 0.00600949    0.0505374 ----
    30   0   0   F    F -3.06D-01 0.00439177 0.00138903 0.00551342 0.00183910    0.0505043 ----
    31   0   0   F    T  1.53D+00 0.00247927 0.00125954 0.01266275 0.00417039    0.0504964 ----
    32   0   0   F    F  3.86D-01 0.00247927 0.00125954 0.00488671 0.00160940    0.0504498 ----
    33   0   0   F    T  3.19D+00 0.00218606 0.00094591 0.01826786 0.00577979    0.0504459 ----
    34   0   0   F    F  1.68D-01 0.00218606 0.00094591 0.00306773 0.00097060    0.0503970 ----
    35   0   0   F    T  3.17D+00 0.00228783 0.00096749 0.02195810 0.00675039    0.0503960 ----
    36   0   0   F    F -1.83D-01 0.00228783 0.00096749 0.00402260 0.00123663    0.0503614 ----
    37   0   0   F    T  3.77D+00 0.00146137 0.00074623 0.01789235 0.00551376    0.0503596 ----
    38   0   0   F    F -4.95D-01 0.00146137 0.00074623 0.00886428 0.00273164    0.0503589 ----
    39   0   0   F    T  1.33D+00 0.00244023 0.00085369 0.00924727 0.00278211    0.0503437 ----
    40   0   0   F    F  4.69D-01 0.00244023 0.00085369 0.00433583 0.00130447    0.0503245 ----
    41   0   0   F    T  1.88D+00 0.00173545 0.00083338 0.01433548 0.00408658    0.0503224 ----
    42   0   0   F    F  1.05D-01 0.00173545 0.00083338 0.00150206 0.00042819    0.0503010 ----
    43   0   0   F    T  3.47D+00 0.00209572 0.00060124 0.01711847 0.00451477    0.0503008 ----
    44   0   0   F    F  6.69D-01 0.00209572 0.00060124 0.01144989 0.00301976    0.0502742 ----
    45   0   0   F    T  3.41D+00 0.00217679 0.00076432 0.02736689 0.00753453    0.0502690 ----
    46   0   0   F    F -3.33D-01 0.00217679 0.00076432 0.00912429 0.00251206    0.0502541 ----
    47   0   0   F    T  2.50D+00 0.00172216 0.00070451 0.01715483 0.00502247    0.0502492 ----
    48   0   0   F    F -4.77D-01 0.00172216 0.00070451 0.00818219 0.00239553    0.0502476 ----
    49   0   0   F    T  1.31D+00 0.00142848 0.00068065 0.00845552 0.00262695    0.0502395 ----
    50   0   0   F    F  5.35D+00 0.00142848 0.00068065 0.04526332 0.01406234    0.0502227 ----
    51   0   0   F    T  1.73D+00 0.00584101 0.00148679 0.05250966 0.01668928    0.0501803 ----
    52   0   0   F    F  9.48D-01 0.00584101 0.00148679 0.04980529 0.01582975    0.0500928 ----
    53   0   0   F    F -4.31D-02 0.00584101 0.00148679 0.00214588 0.00068203    0.0500647 ----
    54   0   0   F    T  3.80D+00 0.00389700 0.00167704 0.09527835 0.03183700    0.0500646 ----
    55   0   0   F    F  1.28D-01 0.00389700 0.00167704 0.01217911 0.00406962    0.0498917 ----
    56   0   0   F    F -4.36D-02 0.00389700 0.00167704 0.00053045 0.00017725    0.0498896 ---+
    57   0   0   F    T  2.69D+00 0.00435763 0.00214333 0.10589697 0.03572937    0.0498896 ----
    58   0   0   F    F  5.79D-01 0.00435763 0.00214333 0.06128068 0.02067594    0.0496021 ----
    59   0   0   F    F -8.15D-02 0.00435763 0.00214333 0.00499163 0.00168416    0.0495511 ----
    60   0   0   F    T  2.86D+00 0.00544901 0.00287142 0.15764022 0.05472115    0.0495507 ----
    61   0   0   F    F -3.60D-01 0.00544901 0.00287142 0.05669457 0.01968021    0.0493980 ----
    62   0   0   F    F -1.26D-02 0.00544901 0.00287142 0.00071562 0.00024841    0.0493189 ---+
    63   0   0   F    T  1.90D+00 0.00775477 0.00323916 0.09778804 0.03528935    0.0493189 ----
    64   0   0   F    F  4.65D-01 0.00775477 0.00323916 0.04545290 0.01640286    0.0489384 ----
    65   0   0   F    F -1.04D-01 0.00775477 0.00323916 0.00474487 0.00171231    0.0489022 ----
    66   0   0   F    T  1.26D+00 0.01396102 0.00474506 0.13621755 0.04997990    0.0489017 ----
    67   0   0   F    F  2.20D-01 0.01396102 0.00474506 0.03001936 0.01101447    0.0483255 ----
    68   0   0   F    F -6.57D-02 0.01396102 0.00474506 0.00197181 0.00072348    0.0483027 ----
    69   0   0   F    T  6.33D+00 0.01164385 0.00375972 0.16707692 0.06027089    0.0483025 ----
    70   0   0   F    F -4.30D-03 0.01164385 0.00375972 0.00071881 0.00025930    0.0471431 ---+
    71   0   0   F    T  1.34D+00 0.01885894 0.00791543 0.17805180 0.06001159    0.0471430 ----
    72   0   0   F    F  5.87D-01 0.01885894 0.00791543 0.10451020 0.03522471    0.0451723 ----
    73   0   0   F    F -1.10D-01 0.01885894 0.00791543 0.01144642 0.00385797    0.0448247 ----
    74   0   0   F    T  1.89D+00 0.02131050 0.00734168 0.27362311 0.09137833    0.0448185 ----
    75   0   0   T    F  3.88D-01 0.02131050 0.00734168 0.10616232 0.03545364    0.0463197 ----
    76   0   0   F    T  3.80D+00 0.01899429 0.00599683 0.11362756 0.03545364    0.0441908 ----
    77   0   0   T    F  3.91D-01 0.01899429 0.00599683 0.04440759 0.01385589    0.0452332 ----
    78   0   0   F    T  1.41D+00 0.01471134 0.00554249 0.04213570 0.01385589    0.0433960 ----
    79   0   0   F    F  1.17D-01 0.01471134 0.00554249 0.00492670 0.00162009    0.0426829 ----
    80   0   0   F    T  1.28D+00 0.01107381 0.00565272 0.04115106 0.01547598    0.0426751 ----
    81   0   0   F    F  1.09D+00 0.01107381 0.00565272 0.04501274 0.01692827    0.0417337 ----
    82   0   0   F    T  2.42D+00 0.01574533 0.00562905 0.08559412 0.03240425    0.0413741 ----
    83   0   0   F    F -1.83D-01 0.01574533 0.00562905 0.01565040 0.00592494    0.0404827 ----
    84   0   0   F    T  1.67D+00 0.01331611 0.00600703 0.06924908 0.02647932    0.0404359 ----
    85   0   0   F    F -3.25D-01 0.01331611 0.00600703 0.02250962 0.00860718    0.0399662 ----
    86   0   0   F    T  1.74D+00 0.01250074 0.00460212 0.04976652 0.01787214    0.0398239 ----
    87   0   0   F    F  1.72D+00 0.01250074 0.00460212 0.08549078 0.03070142    0.0389198 ----
    88   0   0   F    F -3.10D-02 0.01250074 0.00460212 0.00265122 0.00095211    0.0383237 ----
    89   0   0   F    T  2.98D+00 0.01054270 0.00552891 0.12082868 0.04762145    0.0383231 ----
    90   0   0   T    F  4.04D-01 0.01054270 0.00552891 0.04885793 0.01925607    0.0389570 ----
    91   0   0   F    T  1.83D+00 0.01151607 0.00430381 0.04542062 0.01925607    0.0377725 ----
    92   0   0   F    F -3.14D-01 0.01151607 0.00430381 0.01424312 0.00603837    0.0374967 ----
    93   0   0   F    T  2.25D+00 0.00693813 0.00295573 0.03322093 0.01321770    0.0374240 ----
    94   0   0   F    F  1.59D-01 0.00693813 0.00295573 0.00527530 0.00209890    0.0370850 ----
    95   0   0   F    T  2.20D+00 0.00643419 0.00309048 0.03395171 0.01531660    0.0370783 ----
    96   0   0   F    F -2.71D-01 0.00643419 0.00309048 0.00920375 0.00415208    0.0368812 ----
    97   0   0   F    T  1.43D+00 0.00933271 0.00314349 0.02615906 0.01116452    0.0368501 ----
    98   0   0   F    F -3.90D-02 0.00933271 0.00314349 0.00102107 0.00043578    0.0366475 ----
    99   0   0   F    T  2.32D+00 0.00398677 0.00221273 0.02775131 0.01072874    0.0366471 ----
   100   0   0   F    F  4.56D-01 0.00398677 0.00221273 0.01264531 0.00488871    0.0364243 ----
   101   0   0   F    T  2.37D+00 0.00629649 0.00252497 0.03881402 0.01561745    0.0364003 ----
   102   0   0   F    F -4.35D-01 0.00629649 0.00252497 0.01687047 0.00678811    0.0363471 ----
   103   0   0   F    T  1.71D+00 0.00582880 0.00210976 0.02094382 0.00882934    0.0362728 ----
   104   0   0   F    F -1.97D-01 0.00582880 0.00210976 0.00413593 0.00174359    0.0361867 ----
   105   0   0   F    T  2.03D+00 0.00471089 0.00163831 0.01599053 0.00708575    0.0361811 ----
   106   0   0   F    F  5.39D-01 0.00471089 0.00163831 0.00861228 0.00381629    0.0360708 ----
   107   0   0   F    T  3.14D+00 0.00410148 0.00156434 0.02540714 0.01090204    0.0360554 ----
   108   0   0   T    F  3.58D-01 0.00410148 0.00156434 0.00908824 0.00389970    0.0361468 ----
   109   0   0   F    T  1.39D+00 0.00278832 0.00131851 0.01054199 0.00389970    0.0360142 ----
   110   0   0   F    F  4.74D-01 0.00278832 0.00131851 0.00499353 0.00184721    0.0359662 ----
   111   0   0   F    T  2.11D+00 0.00266195 0.00122714 0.01675634 0.00574692    0.0359607 ----
   112   0   0   F    F  2.59D-01 0.00266195 0.00122714 0.00433384 0.00148638    0.0359031 ----
   113   0   0   F    T  2.73D+00 0.00304623 0.00115154 0.02128214 0.00723329    0.0359006 ----
   114   0   0   T    F  4.21D-01 0.00304623 0.00115154 0.00895195 0.00304256    0.0359208 ----
   115   0   0   F    T  1.66D+00 0.00283315 0.00089303 0.00859093 0.00304256    0.0358777 ----
   116   0   0   F    F -1.44D-01 0.00283315 0.00089303 0.00124075 0.00043942    0.0358613 ----
   117   0   0   F    T  2.88D+00 0.00136679 0.00055338 0.00627509 0.00260313    0.0358608 ----
   118   0   0   F    T  1.70D+00 0.00160660 0.00068194 0.00624939 0.00260313    0.0358475 ----
   119   0   0   F    F -2.20D-01 0.00160660 0.00068194 0.00137410 0.00057237    0.0358390 ----
   120   0   0   F    T  2.06D+00 0.00144301 0.00050708 0.00496376 0.00203076    0.0358383 ----
   121   0   0   F    F -4.89D-01 0.00144301 0.00050708 0.00242683 0.00099286    0.0358379 ----
   122   0   0   F    T  3.31D+00 0.00054000 0.00023358 0.00268379 0.00103791    0.0358342 ----
   123   0   0   F    F -1.32D-01 0.00054000 0.00023358 0.00035320 0.00013659    0.0358319 --++
   124   0   0   F    T  1.38D+00 0.00067194 0.00031506 0.00256589 0.00090131    0.0358319 ----
   125   0   0   F    F  3.60D-01 0.00067194 0.00031506 0.00092298 0.00032421    0.0358293 ----
   126   0   0   F    T  1.42D+00 0.00082634 0.00034687 0.00372099 0.00122553    0.0358291 ----
   127   0   0   F    F -9.45D-02 0.00082634 0.00034687 0.00035167 0.00011583    0.0358268 --++
   128   0   0   F    T  4.11D+00 0.00039053 0.00017060 0.00372867 0.00110970    0.0358267 ----
   129   0   0   F    F -4.29D-01 0.00039053 0.00017060 0.00159957 0.00047605    0.0358263 ----
   130   0   0   F    T  1.65D+00 0.00041820 0.00018953 0.00228901 0.00063365    0.0358257 ----
   131   0   0   F    F  1.69D-01 0.00041820 0.00018953 0.00038644 0.00010697    0.0358247 --++
   132   0   0   F    T  1.06D+00 0.00071606 0.00024760 0.00275863 0.00074062    0.0358247 ----
   133   0   0   F    F  1.06D+00 0.00071606 0.00024760 0.00291330 0.00078215    0.0358232 ----
   134   0   0   F    T  3.15D+00 0.00046369 0.00019613 0.00561711 0.00152277    0.0358227 ----
   135   0   0   F    F -2.40D-01 0.00046369 0.00019613 0.00134880 0.00036565    0.0358214 ----
   136   0   0   F    T  2.38D+00 0.00058846 0.00018848 0.00411919 0.00115712    0.0358213 ----
   137   0   0   T    F  4.96D-01 0.00058846 0.00018848 0.00204474 0.00057438    0.0358213 ----
   138   0   0   F    T  1.46D+00 0.00039662 0.00016201 0.00198600 0.00057438    0.0358207 ----
   139   0   0   F    F  5.05D-01 0.00039662 0.00016201 0.00100252 0.00028995    0.0358199 ---+
   140   0   0   F    T  2.41D+00 0.00043615 0.00014786 0.00298029 0.00086433    0.0358198 ----
   141   0   0   F    F  2.26D-01 0.00043615 0.00014786 0.00067495 0.00019574    0.0358189 ---+
   142   0   0   F    T  1.62D+00 0.00051361 0.00019520 0.00357423 0.00106008    0.0358188 ----
   143   0   0   F    F  1.07D-01 0.00051361 0.00019520 0.00038264 0.00011349    0.0358178 --++
   144   0   0   F    T  1.26D+00 0.00057559 0.00022911 0.00387590 0.00117356    0.0358178 ----
   145   0   0   F    F  5.13D-01 0.00057559 0.00022911 0.00198963 0.00060243    0.0358165 ----
   146   0   0   F    T  3.35D+00 0.00041664 0.00016760 0.00566704 0.00177599    0.0358163 ----
   147   0   0   F    F -2.57D-01 0.00041664 0.00016760 0.00145383 0.00045561    0.0358154 ----
   148   0   0   F    T  1.70D+00 0.00043465 0.00019921 0.00401780 0.00132038    0.0358152 ----
   149   0   0   F    F  1.84D-01 0.00043465 0.00019921 0.00073870 0.00024276    0.0358141 ---+
   150   0   0   F    T  1.33D+00 0.00064058 0.00024246 0.00459906 0.00156313    0.0358140 ----
   151   0   0   F    F  1.31D-01 0.00064058 0.00024246 0.00060319 0.00020501    0.0358127 ---+
   152   0   0   F    T  3.83D+00 0.00040346 0.00014865 0.00481068 0.00176815    0.0358127 ----
   153   0   0   T    F  4.43D-01 0.00040346 0.00014865 0.00212994 0.00078285    0.0358130 ----
   154   0   0   F    T  3.18D+00 0.00025346 0.00010324 0.00193924 0.00078285    0.0358122 ----
   155   0   0   F    F -3.54D-01 0.00025346 0.00010324 0.00068731 0.00027746    0.0358119 ---+
   156   0   0   F    T  1.00D+00 0.00041418 0.00015776 0.00157571 0.00059623    0.0358118 ----
   157   0   0   F    F  2.51D+00 0.00041418 0.00015776 0.00394948 0.00149443    0.0358112 ----
   158   0   0   F    T  3.17D+00 0.00035332 0.00016317 0.00560219 0.00209066    0.0358105 ----
   159   0   0   F    F -4.80D-01 0.00035332 0.00016317 0.00269166 0.00100449    0.0358104 ----
   160   0   0   F    T  2.98D+00 0.00026407 0.00011810 0.00288011 0.00108617    0.0358099 ----
   161   0   0   F    F -4.37D-01 0.00026407 0.00011810 0.00125983 0.00047512    0.0358097 ----
   162   0   0   F    T  1.01D+00 0.00040852 0.00015011 0.00164075 0.00061105    0.0358095 ----
   163   0   0   F    F  2.08D+00 0.00040852 0.00015011 0.00341881 0.00127324    0.0358089 ----
   164   0   0   F    T  2.42D+00 0.00050785 0.00016778 0.00517087 0.00188430    0.0358085 ----
   165   0   0   F    F  3.69D-01 0.00050785 0.00016778 0.00191011 0.00069605    0.0358072 ----
   166   0   0   F    T  2.02D+00 0.00057396 0.00021318 0.00722235 0.00258035    0.0358071 ----
   167   0   0   F    F -4.09D-01 0.00057396 0.00021318 0.00295172 0.00105457    0.0358066 ----
   168   0   0   F    T  1.77D+00 0.00045377 0.00017264 0.00447746 0.00152578    0.0358063 ----
   169   0   0   F    F  3.42D-01 0.00045377 0.00017264 0.00153061 0.00052158    0.0358053 ----
   170   0   0   F    T  1.64D+00 0.00075507 0.00020642 0.00610769 0.00204736    0.0358052 ----
   171   0   0   F    F  1.16D+00 0.00075507 0.00020642 0.00710871 0.00238291    0.0358036 ----
   172   0   0   F    T  2.42D+00 0.00065825 0.00025235 0.01304588 0.00443028    0.0358029 ----
   173   0   0   F    F -3.97D-01 0.00065825 0.00025235 0.00517987 0.00175904    0.0358021 ----
   174   0   0   F    T  1.26D+00 0.00092815 0.00026979 0.00780574 0.00267123    0.0358015 ----
   175   0   0   F    F  9.97D-01 0.00092815 0.00026979 0.00778347 0.00266361    0.0357994 ----
   176   0   0   F    T  2.72D+00 0.00060865 0.00025373 0.01526966 0.00533485    0.0357988 ----
   177   0   0   F    F -3.22D-01 0.00060865 0.00025373 0.00492116 0.00171933    0.0357974 ----
   178   0   0   F    T  3.24D+00 0.00047532 0.00019020 0.01004578 0.00361551    0.0357970 ----
   179   0   0   F    F -2.94D-01 0.00047532 0.00019020 0.00295452 0.00106334    0.0357960 ----
   180   0   0   F    T  1.05D+00 0.00087516 0.00027826 0.00713704 0.00255217    0.0357957 ----
   181   0   0   F    F  8.07D-01 0.00087516 0.00027826 0.00575779 0.00205896    0.0357940 ----
   182   0   0   F    T  2.94D+00 0.00074832 0.00021966 0.01318652 0.00461113    0.0357935 ----
   183   0   0   F    F -2.41D-01 0.00074832 0.00021966 0.00317351 0.00110973    0.0357921 ----
   184   0   0   F    T  3.65D+00 0.00031889 0.00017208 0.01058339 0.00350140    0.0357919 ----
   185   0   0   T    F  4.65D-01 0.00031889 0.00017208 0.00492494 0.00162936    0.0357921 ----
   186   0   0   F    T  1.24D+00 0.00046061 0.00020028 0.00517618 0.00162936    0.0357912 ----
   187   0   0   F    F  5.29D-01 0.00046061 0.00020028 0.00273986 0.00086246    0.0357902 ----
   188   0   0   F    T  2.48D+00 0.00050698 0.00017279 0.00808173 0.00249182    0.0357900 ----
   189   0   0   F    F -3.31D-01 0.00050698 0.00017279 0.00267567 0.00082498    0.0357895 ----
   190   0   0   F    T  6.16D+00 0.00021300 0.00008799 0.00532733 0.00166684    0.0357893 ----
   191   0   0   T    F  2.48D-01 0.00021300 0.00008799 0.00132306 0.00041396    0.0357907 ----
   192   0   0   F    T  1.41D+00 0.00025009 0.00008926 0.00133193 0.00041396    0.0357891 ----
   193   0   0   F    T  2.57D+00 0.00015123 0.00006846 0.00122239 0.00041396    0.0357889 -+--
   194   0   0   F    T  1.82D+00 0.00014888 0.00007127 0.00119373 0.00041396    0.0357887 -+--
   195   0   0   F    T  2.86D+00 0.00015460 0.00006931 0.00112746 0.00041396    0.0357886 -+--
   196   0   0   T    F  4.30D-01 0.00015460 0.00006931 0.00048503 0.00017808    0.0357887 -+-+
   197   0   0   F    T  1.62D+00 0.00012754 0.00005547 0.00044058 0.00017808    0.0357885 -+++
   198   0   0   F    T  4.18D+00 0.00010107 0.00003781 0.00045288 0.00017808    0.0357884 ++-+
   199   0   0   T    T  1.00D+00 0.00030544 0.00010538 0.00030544 0.00010538    0.0357885 --++
   200   0   0   T    F  5.00D-01 0.00030544 0.00010538 0.00015272 0.00005269    0.0357887 --++
   201   0   0   T    F  5.00D-01 0.00030544 0.00010538 0.00007636 0.00002634    0.0357885 --++
   202   0   0   T    F  5.00D-01 0.00030544 0.00010538 0.00003818 0.00001317    0.0357885 --++
   203   0   0   T    F  5.00D-01 0.00030544 0.00010538 0.00001909 0.00000659    0.0357884 --++
   204   0   0   T    F  5.00D-01 0.00030544 0.00010538 0.00000954 0.00000329    0.0357884 --++
   205   0   0   T    F  5.00D-01 0.00030544 0.00010538 0.00000477 0.00000165    0.0357884 --++
   206   0   0   T    F  5.00D-01 0.00030544 0.00010538 0.00000239 0.00000082    0.0357884 --++
   207   0   0   T    F  5.00D-01 0.00030544 0.00010538 0.00000119 0.00000041    0.0357884 --++
   208   0   0   T    F  5.00D-01 0.00030544 0.00010538 0.00000060 0.00000021    0.0357884 --++
   209   0   0   T    T  1.00D+00 0.00010176 0.00003798 0.00008136 0.00002667    0.0357884 ++++
   210   0   0   F    F  5.05D+00 0.00010176 0.00003798 0.00041058 0.00013456    0.0357884 ++++
   211   0   0   F    T  4.04D+00 0.00008081 0.00003750 0.00043819 0.00016123    0.0357884 ====
 ****************************
 MOLECULAR MECHANICS FUNCTION
 ****************************
 Atomic parameters:
 Center  VDW
      1 1.9080 0.0860000
      2 1.7210 0.2104000
      3 1.9080 0.1094000
      4 1.4870 0.0157000
      5 1.4870 0.0157000
      6 1.8750 0.1700000
      7 0.6000 0.0157000
      8 0.6000 0.0157000
      9 1.6612 0.2100000
     10 0.0000 0.0000000
 Molecular mechanics terms:
 NBDir 3 1      0      0
 HrmStr1  1- 2  431.53 1.3510
 HrmStr1  1- 3  294.15 1.5090
 HrmStr1  1- 9  946.08 1.2030
 HrmStr1  2-10  566.76 0.9680
 HrmStr1  3- 4  358.05 1.0960
 HrmStr1  3- 5  358.05 1.0960
 HrmStr1  3- 6  380.82 1.4520
 HrmStr1  6- 7  506.01 1.0110
 HrmStr1  6- 8  506.01 1.0110
 HrmBnd1  1- 2-10  56.55 107.23
 HrmBnd1  1- 3- 4  46.41 106.89
 HrmBnd1  1- 3- 5  46.41 106.89
 HrmBnd1  1- 3- 6  59.93 110.61
 HrmBnd1  2- 1- 3  67.92 111.72
 HrmBnd1  2- 1- 9  91.40 123.02
 HrmBnd1  3- 1- 9  62.83 125.24
 HrmBnd1  3- 6- 7  52.60 110.71
 HrmBnd1  3- 6- 8  52.60 110.71
 HrmBnd1  4- 3- 5  44.68 106.22
 HrmBnd1  4- 3- 6  52.45 112.94
 HrmBnd1  5- 3- 6  52.45 112.94
 HrmBnd1  7- 6- 8  47.09 108.63
 AmbTrs  3- 1- 2-10   0 180   0   0  0.0000 14.5000  0.0000  0.0000  2.0
 AmbTrs  9- 1- 2-10   0   0   0   0  0.0000 14.5000  0.0000  0.0000  2.0
 AmbTrs  2- 1- 3- 4   0   0   0   0  0.0000 14.5000  0.0000  0.0000  6.0
 AmbTrs  2- 1- 3- 5   0   0   0   0  0.0000 14.5000  0.0000  0.0000  6.0
 AmbTrs  2- 1- 3- 6   0   0   0   0  0.0000 14.5000  0.0000  0.0000  6.0
 AmbTrs  9- 1- 3- 4   0   0   0   0  0.0000 14.5000  0.0000  0.0000  6.0
 AmbTrs  9- 1- 3- 5   0   0   0   0  0.0000 14.5000  0.0000  0.0000  6.0
 AmbTrs  9- 1- 3- 6   0   0   0   0  0.0000 14.5000  0.0000  0.0000  6.0
 AmbTrs  1- 3- 6- 7   0 180   0   0  0.0000 25.6300  0.0000  0.0000  6.0
 AmbTrs  1- 3- 6- 8   0 180   0   0  0.0000 25.6300  0.0000  0.0000  6.0
 AmbTrs  4- 3- 6- 7   0   0   0   0  0.0000  0.0000  0.0000  0.0000  6.0
 AmbTrs  4- 3- 6- 8   0   0   0   0  0.0000  0.0000  0.0000  0.0000  6.0
 AmbTrs  5- 3- 6- 7   0   0   0   0  0.0000  0.0000  0.0000  0.0000  6.0
 AmbTrs  5- 3- 6- 8   0   0   0   0  0.0000  0.0000  0.0000  0.0000  6.0
 NBPair  2- 1 3 1      0      0 -1.000 -1.000
 NBPair  3- 2 3 1      0      0 -1.000 -1.000
 NBPair 10- 3 3 1      0      0 -0.500 -0.167
 NBPair  9- 2 3 1      0      0 -1.000 -1.000
 NBPair 10- 9 3 1      0      0 -0.500 -0.167
 NBPair  3- 1 3 1      0      0 -1.000 -1.000
 NBPair  4- 2 3 1      0      0 -0.500 -0.167
 NBPair  5- 2 3 1      0      0 -0.500 -0.167
 NBPair  6- 2 3 1      0      0 -0.500 -0.167
 NBPair  9- 3 3 1      0      0 -1.000 -1.000
 NBPair  9- 4 3 1      0      0 -0.500 -0.167
 NBPair  9- 5 3 1      0      0 -0.500 -0.167
 NBPair  9- 6 3 1      0      0 -0.500 -0.167
 NBPair  9- 1 3 1      0      0 -1.000 -1.000
 NBPair 10- 1 3 1      0      0 -1.000 -1.000
 NBPair 10- 2 3 1      0      0 -1.000 -1.000
 NBPair  4- 1 3 1      0      0 -1.000 -1.000
 NBPair  5- 1 3 1      0      0 -1.000 -1.000
 NBPair  6- 1 3 1      0      0 -1.000 -1.000
 NBPair  4- 3 3 1      0      0 -1.000 -1.000
 NBPair  5- 4 3 1      0      0 -1.000 -1.000
 NBPair  6- 4 3 1      0      0 -1.000 -1.000
 NBPair  5- 3 3 1      0      0 -1.000 -1.000
 NBPair  6- 5 3 1      0      0 -1.000 -1.000
 NBPair  6- 3 3 1      0      0 -1.000 -1.000
 NBPair  7- 1 3 1      0      0 -0.500 -0.167
 NBPair  8- 1 3 1      0      0 -0.500 -0.167
 NBPair  7- 4 3 1      0      0 -0.500 -0.167
 NBPair  8- 4 3 1      0      0 -0.500 -0.167
 NBPair  7- 5 3 1      0      0 -0.500 -0.167
 NBPair  8- 5 3 1      0      0 -0.500 -0.167
 NBPair  7- 3 3 1      0      0 -1.000 -1.000
 NBPair  8- 3 3 1      0      0 -1.000 -1.000
 NBPair  7- 6 3 1      0      0 -1.000 -1.000
 NBPair  8- 7 3 1      0      0 -1.000 -1.000
 NBPair  8- 6 3 1      0      0 -1.000 -1.000
 Energy per function type:
 Direct Coulomb + vdW (small)                           0.003447772
 Direct Coulomb (large)                                -0.131638009
 Direct vdW (large)                                   269.057687083
 Non-direct Coulomb + vdW (small)                      -0.011896876
 Non-direct Coulomb (large)                             0.137948152
 Non-direct vdW (large)                              -269.057687083
 Harmonic stretch I                                     0.000106265
 Harmonic bend I                                        0.004591702
 Amber torsion                                          0.033229359
 Energy per function class:
        Coulomb              -0.003654848
    Vanderwaals               0.001515887
     Stretching               0.000106265
        Bending               0.004591702
        Torsion               0.033229359
 Energy=    3.578836432E-02 NIter=   0.
 Dipole moment=       0.494071       0.182408       0.070316
 Leave Link  402 at Wed Nov 29 12:05:19 2023, MaxMem=   134217728 cpu:               0.4 elap:               0.4
 (Enter /home/emanuele/chem_software/gaussian//gdv/l716.exe)
 Dipole        = 4.94070598D-01 1.82408236D-01 7.03155814D-02
 -------------------------------------------------------------------
 Center     Atomic                   Forces (Hartrees/Bohr)
 Number     Number              X              Y              Z
 -------------------------------------------------------------------
      1        6           0.000001478   -0.000019372    0.000013155
      2        8           0.000018530   -0.000004690   -0.000050448
      3        6           0.000051477   -0.000061853    0.000037870
      4        1          -0.000000334    0.000021075   -0.000019519
      5        1           0.000001194    0.000023613   -0.000065922
      6        7          -0.000066456    0.000045206    0.000074319
      7        1          -0.000013693    0.000012796   -0.000080807
      8        1           0.000016403   -0.000038157    0.000012322
      9        8           0.000004715   -0.000002593    0.000024506
     10        1          -0.000013315    0.000023974    0.000054524
 -------------------------------------------------------------------
 Cartesian Forces:  Max     0.000080807 RMS     0.000037504
 Z-matrix is all fixed cartesians, so copy forces.
 Leave Link  716 at Wed Nov 29 12:05:19 2023, MaxMem=   134217728 cpu:               0.0 elap:               0.0
 (Enter /home/emanuele/chem_software/gaussian//gdv/l103.exe)

 GradGradGradGradGradGradGradGradGradGradGradGradGradGradGradGradGradGrad
 Berny optimization.
 Search for a local minimum.
 Step number   1 out of a maximum of    2
 All quantities printed in internal units (Hartrees-Bohrs-Radians)
 RMS Force = .37504D-04 SwitMx=.10000D-02 MixMth= 2
 Mixed Optimization -- En-DIIS/RFO-DIIS
 Second derivative matrix not updated -- unit matrix used.
 ITU=  0
 RFO step:  Lambda=-4.21962680D-08 EMin= 1.00000000D+00
 Linear search not attempted -- first point.
 Variable       Old X    -DE/DX   Delta X   Delta X   Delta X     New X
                                 (Linear)    (Quad)   (Total)
    X1       -1.25164   0.00000   0.00000   0.00000   0.00000  -1.25164
    Y1       -0.23122  -0.00002   0.00000  -0.00002  -0.00002  -0.23124
    Z1        0.19667   0.00001   0.00000   0.00001   0.00001   0.19668
    X2       -1.85451   0.00002   0.00000   0.00002   0.00002  -1.85450
    Y2        1.92346  -0.00000   0.00000  -0.00000  -0.00000   1.92345
    Z2       -1.02837  -0.00005   0.00000  -0.00005  -0.00005  -1.02842
    X3        1.41153   0.00005   0.00000   0.00005   0.00005   1.41158
    Y3       -1.00988  -0.00006   0.00000  -0.00006  -0.00006  -1.00994
    Z3       -0.55755   0.00004   0.00000   0.00004   0.00004  -0.55751
    X4        1.31757  -0.00000   0.00000  -0.00000  -0.00000   1.31757
    Y4       -3.04420   0.00002   0.00000   0.00002   0.00002  -3.04418
    Z4       -0.94649  -0.00002   0.00000  -0.00002  -0.00002  -0.94651
    X5        1.80040   0.00000   0.00000   0.00000   0.00000   1.80040
    Y5       -0.24703   0.00002   0.00000   0.00002   0.00002  -0.24700
    Z5       -2.44640  -0.00007   0.00000  -0.00007  -0.00007  -2.44646
    X6        3.28909  -0.00007   0.00000  -0.00007  -0.00007   3.28902
    Y6       -0.36505   0.00005   0.00000   0.00005   0.00005  -0.36501
    Z6        1.35488   0.00007   0.00000   0.00007   0.00007   1.35495
    X7        2.58481  -0.00001   0.00000  -0.00001  -0.00001   2.58479
    Y7       -0.14967   0.00001   0.00000   0.00001   0.00001  -0.14966
    Z7        3.11935  -0.00008   0.00000  -0.00008  -0.00008   3.11927
    X8        4.89724   0.00002   0.00000   0.00002   0.00002   4.89726
    Y8       -1.39466  -0.00004   0.00000  -0.00004  -0.00004  -1.39469
    Z8        1.27166   0.00001   0.00000   0.00001   0.00001   1.27168
    X9       -2.83575   0.00000   0.00000   0.00000   0.00000  -2.83575
    Y9       -1.84248  -0.00000   0.00000  -0.00000  -0.00000  -1.84248
    Z9        0.43432   0.00002   0.00000   0.00002   0.00002   0.43435
   X10       -3.15660  -0.00001   0.00000  -0.00001  -0.00001  -3.15661
   Y10        2.72567   0.00002   0.00000   0.00002   0.00002   2.72569
   Z10       -0.02812   0.00005   0.00000   0.00005   0.00005  -0.02807
         Item               Value     Threshold  Converged?
 Maximum Force            0.000081     0.000450     YES
 RMS     Force            0.000038     0.000300     YES
 Maximum Displacement     0.000081     0.001800     YES
 RMS     Displacement     0.000038     0.001200     YES
 Predicted change in Energy=-2.109813D-08
 Optimization completed.
    -- Stationary point found.
 Largest change from initial coordinates is atom    8       0.490 Angstoms.
 GradGradGradGradGradGradGradGradGradGradGradGradGradGradGradGradGradGrad

 Leave Link  103 at Wed Nov 29 12:05:19 2023, MaxMem=   134217728 cpu:               0.0 elap:               0.0
 (Enter /home/emanuele/chem_software/gaussian//gdv/l202.exe)
                          Input orientation:                          
 ---------------------------------------------------------------------
 Center     Atomic      Atomic             Coordinates (Angstroms)
 Number     Number       Type             X           Y           Z
 ---------------------------------------------------------------------
      1          6    20001002       -0.662339   -0.122355    0.104073
      2          8    20001022       -0.981366    1.017851   -0.544192
      3          6    20001001        0.746950   -0.534405   -0.295041
      4          1    20001034        0.697230   -1.610923   -0.500859
      5          1    20001034        0.952729   -0.130721   -1.294578
      6          7    20001020        1.740509   -0.193177    0.716970
      7          1    20001029        1.367821   -0.079203    1.650687
      8          1    20001029        2.591508   -0.738020    0.672936
      9          8    20001025       -1.500616   -0.974998    0.229834
     10          1    20001031       -1.670399    1.442363   -0.014880
 ---------------------------------------------------------------------
                    Distance matrix (angstroms):
                    1          2          3          4          5
     1  C    0.000000
     2  O    1.349850   0.000000
     3  C    1.521570   2.336376   0.000000
     4  H    2.104805   3.119297   1.097144   0.000000
     5  H    2.136525   2.371291   1.097442   1.698902   0.000000
     6  N    2.480794   3.235077   1.458685   2.140454   2.161209
     7  H    2.552533   3.397014   2.092498   2.724887   2.974818
     8  H    3.360085   4.162921   2.093043   2.393333   2.631637
     9  O    1.202299   2.200042   2.349717   2.401840   3.009242
    10  H    1.865121   0.967030   3.135232   3.894149   3.315572
                    6          7          8          9         10
     6  N    0.000000
     7  H    1.011787   0.000000
     8  H    1.011431   1.699249   0.000000
     9  O    3.369486   3.324034   4.122860   0.000000
    10  H    3.852907   3.784185   4.836425   2.435640   0.000000
 Symmetry turned off by external request.
 Stoichiometry    C2H5NO2
 Framework group  C1[X(C2H5NO2)]
 Deg. of freedom    24
 Full point group                 C1      NOp   1
 Rotational constants (GHZ):           9.4808748           3.7757591           3.0740659
 Leave Link  202 at Wed Nov 29 12:05:19 2023, MaxMem=   134217728 cpu:               0.0 elap:               0.0
 (Enter /home/emanuele/chem_software/gaussian//gdv/l9999.exe)
 Unable to Open any file for archive entry.
 1\1\GINC-EMANUELE-XPS-13-9343\FOpt\AMBER\ZDO\C2H5N1O2\EMANUELE\29-Nov-
 2023\0\\#p Amber=(SoftFirst,Print) geom=nocrowd nosymm opt=(maxcycle=3
 00)\\Title\\0,1\C,-0.662339254,-0.1223552794,0.1040733972\O,-0.9813663
 854,1.0178509254,-0.5441918129\C,0.746950376,-0.5344046415,-0.29504081
 41\H,0.6972295111,-1.6109233889,-0.5008588738\H,0.9527292868,-0.130720
 7856,-1.2945775613\N,1.7405090492,-0.1931770966,0.7169703824\H,1.36782
 086,-0.0792030445,1.6506872361\H,2.5915077623,-0.7380201071,0.67293571
 69\O,-1.5006159272,-0.9749981739,0.229833687\H,-1.6703992787,1.4423625
 92,-0.0148803575\\Version=ES64L-GDVRevJ.14\HF=0.0357884\RMSD=0.000e+00
 \RMSF=3.750e-05\Dipole=0.4940706,0.1824082,0.0703156\PG=C01 [X(C2H5N1O
 2)]\\@
 The archive entry for this job was punched.


 ONE THORN OF EXPERIENCE IS WORTH A WHOLE WILDERNESS OF
 WARNING....  LOWELL - AMONG MY BOOKS
 Job cpu time:       0 days  0 hours  0 minutes  0.9 seconds.
 Elapsed time:       0 days  0 hours  0 minutes  0.9 seconds.
 File lengths (MBytes):  RWF=      6 Int=      0 D2E=      0 Chk=      1 Scr=      1
 Normal termination of Gaussian DV at Wed Nov 29 12:05:19 2023.
