 Entering Gaussian System, Link 0=/home/emanuele/chem_software/gaussian//g09/g09
 Input=0_mm_60.gjf
 Output=0_mm_60.log
 Initial command:
 /home/emanuele/chem_software/gaussian//gdv/l1.exe "/home/emanuele/chem_software/gaussian/scratch/Gau-13803.inp" -scrdir="/home/emanuele/chem_software/gaussian/scratch/"
 Entering Link 1 = /home/emanuele/chem_software/gaussian//gdv/l1.exe PID=     13805.
  
 Copyright (c) 1988-2020, Gaussian, Inc.  All Rights Reserved.
  
 This is the private, development version of
 the Gaussian(R) DV system of programs. It is based on
 the Gaussian(R) 16 system (copyright 2016, Gaussian, Inc.),
 the Gaussian(R) 09 system (copyright 2009, Gaussian, Inc.),
 the Gaussian(R) 03 system (copyright 2003, Gaussian, Inc.),
 the Gaussian(R) 98 system (copyright 1998, Gaussian, Inc.),
 the Gaussian(R) 94 system (copyright 1995, Gaussian, Inc.),
 the Gaussian 92(TM) system (copyright 1992, Gaussian, Inc.),
 the Gaussian 90(TM) system (copyright 1990, Gaussian, Inc.),
 the Gaussian 88(TM) system (copyright 1988, Gaussian, Inc.),
 the Gaussian 86(TM) system (copyright 1986, Carnegie Mellon
 University), and the Gaussian 82(TM) system (copyright 1983,
 Carnegie Mellon University). Gaussian is a federally registered
 trademark of Gaussian, Inc.
  
 This software contains proprietary and confidential information,
 including trade secrets, belonging to Gaussian, Inc.
  
 This software is provided under written license and may be
 used, copied, transmitted, or stored only in accord with that
 written license.
  
 The following legend is applicable only to US Government
 contracts under FAR:
  
                    RESTRICTED RIGHTS LEGEND
  
 Use, reproduction and disclosure by the US Government is
 subject to restrictions as set forth in subparagraphs (a)
 and (c) of the Commercial Computer Software - Restricted
 Rights clause in FAR 52.227-19.
  
 Gaussian, Inc.
 340 Quinnipiac St., Bldg. 40, Wallingford CT 06492
  
  
 ---------------------------------------------------------------
 Warning -- This program may not be used in any manner that
 competes with the business of Gaussian, Inc. or will provide
 assistance to any competitor of Gaussian, Inc.  The licensee
 of this program is prohibited from giving any competitor of
 Gaussian, Inc. access to this program.  By using this program,
 the user acknowledges that Gaussian, Inc. is engaged in the
 business of creating and licensing software in the field of
 computational chemistry and represents and warrants to the
 licensee that it is not a competitor of Gaussian, Inc. and that
 it will not use this program in any manner prohibited above.
 ---------------------------------------------------------------
  

 Cite this work as:
 Gaussian Development Version, Revision J.14,
 M. J. Frisch, G. W. Trucks, H. B. Schlegel, G. E. Scuseria, 
 M. A. Robb, J. R. Cheeseman, G. Scalmani, V. Barone, 
 G. A. Petersson, H. Nakatsuji, X. Li, A. V. Marenich, M. Caricato, 
 J. Bloino, B. G. Janesko, J. Zheng, R. Gomperts, B. Mennucci, 
 H. P. Hratchian, J. V. Ortiz, A. F. Izmaylov, J. L. Sonnenberg, 
 D. Williams-Young, F. Ding, F. Lipparini, F. Egidi, J. Goings, 
 B. Peng, A. Petrone, T. Henderson, D. Ranasinghe, V. G. Zakrzewski, 
 J. Gao, N. Rega, G. Zheng, W. Liang, M. Hada, M. Ehara, K. Toyota, 
 R. Fukuda, J. Hasegawa, M. Ishida, T. Nakajima, Y. Honda, O. Kitao, 
 H. Nakai, T. Vreven, K. Throssell, J. A. Montgomery, Jr., 
 J. E. Peralta, F. Ogliaro, M. J. Bearpark, J. J. Heyd, 
 E. N. Brothers, K. N. Kudin, V. N. Staroverov, T. A. Keith, 
 R. Kobayashi, J. Normand, K. Raghavachari, A. P. Rendell, 
 J. C. Burant, S. S. Iyengar, J. Tomasi, M. Cossi, J. M. Millam, 
 M. Klene, C. Adamo, R. Cammi, J. W. Ochterski, R. L. Martin, 
 K. Morokuma, O. Farkas, J. B. Foresman, and D. J. Fox, 
 Gaussian, Inc., Wallingford CT, 2020.
 
 ******************************************
 Gaussian DV:  ES64L-GDVRevJ.14 29-Dec-2020
                29-Nov-2023 
 ******************************************
 %mem=1GB
 %nprocshared=1
 Will use up to    1 processors via shared memory.
 %chk=0_mm_60.chk
 -----------------------------------------------------------------
 #p Amber=(SoftFirst,Print) geom=nocrowd nosymm opt=(maxcycle=300)
 -----------------------------------------------------------------
 1/6=300,10=10,18=4000020,19=15,37=210000000,38=1,56=2,64=203/1,3;
 2/9=110,12=1,15=1,40=1/2;
 3/5=30,11=9,25=1,30=1,41=10030000,43=2,71=1/1;
 4/20=11,22=1001,24=3,119=11/2;
 7/30=1,44=-1/16;
 1/6=300,10=10,18=4000020,19=15,64=203/3(2);
 2/9=110,12=1,15=1/2;
 99//99;
 2/9=110,12=1,15=1/2;
 3/5=30,11=9,25=1,30=1,41=10030000,43=2,71=1/1;
 4/16=2,20=11,22=1001,24=3,119=11/2;
 7/30=1,44=-1/16;
 1/6=300,10=10,18=4000020,19=15,64=203/3(-4);
 2/9=110,12=1,15=1/2;
 99/9=10/99;
 Leave Link    1 at Wed Nov 29 12:05:16 2023, MaxMem=   134217728 cpu:               0.0 elap:               0.0
 (Enter /home/emanuele/chem_software/gaussian//gdv/l101.exe)
 -----
 Title
 -----
 Symbolic Z-matrix:
 Charge =  0 Multiplicity = 1
 C-C-+0.299289        -0.6405   -0.38118  -0.06875 
 O-OH--0.289770       -0.74922   0.90885   0.41687 
 C-CT--0.035454        0.81959  -0.69985  -0.32485 
 H-HC-+0.090426        0.80192  -1.75463  -0.71527 
 H-HC-+0.095387        0.98183  -0.27996  -1.35295 
 N-N3--0.336253        1.85881  -0.215     0.60183 
 H-H-+0.142619         1.78306   0.79419   0.72619 
 H-H-+0.128282         1.74677  -0.63621   1.52221 
 O-O2--0.308037       -1.62946  -0.88838  -0.53593 
 H-HO-+0.213510       -1.69079   1.22857   0.4556 
 
 ITRead=  3  3  3  3  3  3  3  3  3  3
 MicOpt=  0  0  0  0  0  0  0  0  0  0
 NAtoms=     10 NQM=        0 NQMF=       0 NMMI=      0 NMMIF=      0
                NMic=      10 NMicF=      0.
                    Isotopes and Nuclear Properties:
 (Nuclear quadrupole moments (NQMom) in fm**2, nuclear magnetic moments (NMagM)
  in nuclear magnetons)

  Atom         1           2           3           4           5           6           7           8           9          10
 IAtWgt=          12          16          12           1           1          14           1           1          16           1
 AtmWgt=  12.0000000  15.9949146  12.0000000   1.0078250   1.0078250  14.0030740   1.0078250   1.0078250  15.9949146   1.0078250
 NucSpn=           0           0           0           1           1           2           1           1           0           1
 AtZEff=  -0.0000000  -0.0000000  -0.0000000  -0.0000000  -0.0000000  -0.0000000  -0.0000000  -0.0000000  -0.0000000  -0.0000000
 NQMom=    0.0000000   0.0000000   0.0000000   0.0000000   0.0000000   2.0440000   0.0000000   0.0000000   0.0000000   0.0000000
 NMagM=    0.0000000   0.0000000   0.0000000   2.7928460   2.7928460   0.4037610   2.7928460   2.7928460   0.0000000   2.7928460
 AtZNuc=   6.0000000   8.0000000   6.0000000   1.0000000   1.0000000   7.0000000   1.0000000   1.0000000   8.0000000   1.0000000
 Generating MM parameters.
 I=    1 IAn=  6 Valence= 5.
          JB=  1 J=    2 IAn=  8 IBT=12 Dist= 1.38D+00
          JB=  2 J=    3 IAn=  6 IBT= 1 Dist= 1.52D+00
          JB=  3 J=    9 IAn=  8 IBT= 2 Dist= 1.21D+00
 I=    2 IAn=  8 Valence= 3.
          JB=  1 J=    1 IAn=  6 IBT=12 Dist= 1.38D+00
          JB=  2 J=   10 IAn=  1 IBT= 1 Dist= 9.95D-01
 Read MM parameter file:
 Include all MM classes

 MM sanity checks:
 All charges sum to:               -0.00000100
 Charges of atoms sum to:          -0.00000100
 WARNING -- The following centers have non-zero partial charges, but zero Vanderwaals
 parameters.  These centers can collapse onto other centers with non-zero charge.
   Center  Layer   Charge
     10 H    R    0.213510
 MMInit generated parameter data with length LenPar=        2069.
 MM Charge=             -0.0000 electrons
 MM Dipole moment (Debye):
    X=              0.7531    Y=              0.4895    Z=              0.1693  Tot=              0.9141
 MM Quadrupole moment (Debye-Ang):
   XX=             -2.1041   YY=              1.3360   ZZ=              1.7997
   XY=             -2.6820   XZ=             -1.6779   YZ=              0.0672
 MM Traceless Quadrupole moment (Debye-Ang):
   XX=             -2.4480   YY=              0.9921   ZZ=              1.4559
   XY=             -2.6820   XZ=             -1.6779   YZ=              0.0672
 MM Octapole moment (Debye-Ang**2):
  XXX=             -0.9898  YYY=             -0.2828  ZZZ=              1.0193  XYY=              2.1196
  XXY=              7.3567  XXZ=              3.3996  XZZ=              3.5469  YZZ=             -0.6911
  YYZ=              0.5080  XYZ=              1.1746
 MM Hexadecapole moment (Debye-Ang**3):
 XXXX=             -8.3382 YYYY=              4.9445 ZZZZ=              4.8139 XXXY=             -8.3245
 XXXZ=             -4.5593 YYYX=             -5.5510 YYYZ=              1.5706 ZZZX=              1.9136
 ZZZY=             -0.6808 XXYY=              3.4804 XXZZ=              3.7701 YYZZ=              1.3069
 XXYZ=              0.1394 YYXZ=             -1.4973 ZZXY=             -2.2652
 Leave Link  101 at Wed Nov 29 12:05:16 2023, MaxMem=   134217728 cpu:               0.3 elap:               0.3
 (Enter /home/emanuele/chem_software/gaussian//gdv/l103.exe)

 GradGradGradGradGradGradGradGradGradGradGradGradGradGradGradGradGradGrad
 Berny optimization.
 Initialization pass.
 No Z-matrix variables, so optimization will use Cartesian coordinates.
 Trust Radius=1.00D-01 FncErr=1.00D-07 GrdErr=1.00D-07 EigMax=2.50D+02 EigMin=1.00D-04
 Number of steps in this run=      2 maximum allowed number of steps=      2.
 GradGradGradGradGradGradGradGradGradGradGradGradGradGradGradGradGradGrad

 Leave Link  103 at Wed Nov 29 12:05:16 2023, MaxMem=   134217728 cpu:               0.0 elap:               0.0
 (Enter /home/emanuele/chem_software/gaussian//gdv/l202.exe)
                          Input orientation:                          
 ---------------------------------------------------------------------
 Center     Atomic      Atomic             Coordinates (Angstroms)
 Number     Number       Type             X           Y           Z
 ---------------------------------------------------------------------
      1          6    20001002       -0.640495   -0.381181   -0.068749
      2          8    20001022       -0.749218    0.908851    0.416867
      3          6    20001001        0.819591   -0.699845   -0.324845
      4          1    20001034        0.801922   -1.754632   -0.715269
      5          1    20001034        0.981833   -0.279957   -1.352945
      6          7    20001020        1.858810   -0.215002    0.601829
      7          1    20001029        1.783063    0.794191    0.726186
      8          1    20001029        1.746765   -0.636211    1.522207
      9          8    20001025       -1.629459   -0.888375   -0.535933
     10          1    20001031       -1.690786    1.228573    0.455602
 ---------------------------------------------------------------------
                    Distance matrix (angstroms):
                    1          2          3          4          5
     1  C    0.000000
     2  O    1.382688   0.000000
     3  C    1.516240   2.366263   0.000000
     4  H    2.094021   3.283582   1.124864   0.000000
     5  H    2.071558   2.746277   1.122327   1.616683   0.000000
     6  N    2.593032   2.845886   1.474372   2.285218   2.143467
     7  H    2.808390   2.553678   2.065209   3.088192   2.473570
     8  H    2.880137   3.136706   2.067680   2.673928   2.996421
     9  O    1.205635   2.216455   2.465349   2.587311   2.802950
    10  H    1.992326   0.995125   3.260351   4.060055   3.562218
                    6          7          8          9         10
     6  N    0.000000
     7  H    1.019643   0.000000
     8  H    1.018365   1.637381   0.000000
     9  O    3.730409   4.008651   3.962123   0.000000
    10  H    3.834700   3.511343   4.053618   2.338455   0.000000
 Symmetry turned off by external request.
 Stoichiometry    C2H5NO2
 Framework group  C1[X(C2H5NO2)]
 Deg. of freedom    24
 Full point group                 C1      NOp   1
 Rotational constants (GHZ):          10.0367954           3.8064581           2.9061879
 Leave Link  202 at Wed Nov 29 12:05:16 2023, MaxMem=   134217728 cpu:               0.0 elap:               0.0
 (Enter /home/emanuele/chem_software/gaussian//gdv/l301.exe)
 Standard basis: Dummy (5D, 7F)
    10 basis functions,    10 primitive gaussians,    10 cartesian basis functions
     7 alpha electrons        7 beta electrons
       nuclear repulsion energy        22.6158875751 Hartrees.
 IExCor=       0 DFT=F Ex=HF Corr=None N6=None ScaHFX=  1.000000
 ScaDFX=  1.000000  1.000000  1.000000  1.000000  1.000000  0.000000
 ScaDFX=  0.000000  0.000000  0.000000  0.000000  0.000000  0.000000
 IRadAn=      5 IRanWt=     -1 IRanGd=            0 ICorTp=0 IEmpDi=  4
 NAtoms=   10 NActive=   10 NUniq=   10 SFac= 1.00D+00 NAtFMM=   60 NAOKFM=F Big=F
 Integral buffers will be    131072 words long.
 Raffenetti 1 integral format.
 Two-electron integral symmetry is turned off.
 Leave Link  301 at Wed Nov 29 12:05:16 2023, MaxMem=   134217728 cpu:               0.1 elap:               0.1
 (Enter /home/emanuele/chem_software/gaussian//gdv/l402.exe)
 AMBER calculation of energy and first derivatives.
 NRF= 0 NRA=   0 NVA=  10 HaveQM=F NVQ=       0
 Convergence limit is  0.750E-04 MaxStp= 10000 StMxLn= 3.00D-04 StpMin= 1.00D-06.
 Convergence criteria             0.00011250 0.00007500 0.00045000 0.00030000
  Step  NS  ND Rises OKQ   Scale  Max. Force  RMS Force Max. Disp.  RMS Disp.     Energy   Flag
     1   0   0   F    T  1.00D+00 0.06667510 0.01952585 0.06667510 0.01952585    0.0820233 ----
     2   0   0   F    F  3.58D-01 0.06667510 0.01952585 0.02389990 0.00699910    0.0748182 ----
     3   0   0   F    T  2.21D+00 0.02143553 0.01056090 0.05867090 0.02652496    0.0742819 ----
     4   0   0   F    F  1.58D-01 0.02143553 0.01056090 0.00924671 0.00418042    0.0700823 ----
     5   0   0   F    T  1.08D+00 0.04997417 0.01488479 0.07334694 0.03070538    0.0700030 ----
     6   0   0   F    F  3.42D-01 0.04997417 0.01488479 0.02510759 0.01051084    0.0653875 ----
     7   0   0   F    T  2.35D+00 0.02631796 0.01095574 0.09741837 0.04121621    0.0650555 ----
     8   0   0   F    F -1.76D-01 0.02631796 0.01095574 0.01710516 0.00723693    0.0616612 ----
     9   0   0   F    T  2.45D+00 0.02098020 0.00912963 0.10384128 0.03397928    0.0614914 ----
    10   0   0   F    F  4.99D-01 0.02098020 0.00912963 0.05183596 0.01696193    0.0574509 ----
    11   0   0   F    F -3.30D-02 0.02098020 0.00912963 0.00170983 0.00055950    0.0569703 ----
    12   0   0   F    T  3.27D+00 0.02325460 0.00916919 0.15245082 0.05038172    0.0569697 ----
    13   0   0   T    F  3.37D-01 0.02325460 0.00916919 0.05135356 0.01697125    0.0611534 ----
    14   0   0   F    T  1.76D+00 0.01637866 0.00638370 0.04335309 0.01697125    0.0555781 ----
    15   0   0   F    F -1.22D-01 0.01637866 0.00638370 0.00527222 0.00206389    0.0546508 ----
    16   0   0   F    T  1.90D+00 0.01334092 0.00511570 0.03607704 0.01490735    0.0546325 ----
    17   0   0   F    F  1.35D+00 0.01334092 0.00511570 0.04886851 0.02019290    0.0534641 ----
    18   0   0   F    F -1.42D-02 0.01334092 0.00511570 0.00069196 0.00028593    0.0529001 ---+
    19   0   0   F    T  6.03D+00 0.00959870 0.00376345 0.08317158 0.03481433    0.0528999 ----
    20   0   0   T    F  3.41D-01 0.00959870 0.00376345 0.02838003 0.01187944    0.0540903 ----
    21   0   0   F    T  1.35D+00 0.01034792 0.00432961 0.03505728 0.01187944    0.0524632 ----
    22   0   0   F    F  9.85D-02 0.01034792 0.00432961 0.00345365 0.00117030    0.0520476 ----
    23   0   0   F    T  2.12D+00 0.00791205 0.00335509 0.02782563 0.01304974    0.0520442 ----
    24   0   0   F    F  3.22D-01 0.00791205 0.00335509 0.00897097 0.00420723    0.0516020 ----
    25   0   0   F    T  5.16D+00 0.00467175 0.00217117 0.03264747 0.01725697    0.0515745 ----
    26   0   0   T    F  4.20D-01 0.00467175 0.00217117 0.01371476 0.00724942    0.0517187 ----
    27   0   0   F    T  1.87D+00 0.00665991 0.00214324 0.01368318 0.00724942    0.0514207 ----
    28   0   0   F    F  3.48D-01 0.00665991 0.00214324 0.00475883 0.00252125    0.0512590 ----
    29   0   0   F    T  1.83D+00 0.00724427 0.00238767 0.02177168 0.00977067    0.0512475 ----
    30   0   0   F    F -4.50D-01 0.00724427 0.00238767 0.00979291 0.00439485    0.0512192 ----
    31   0   0   F    T  3.53D+00 0.00290188 0.00107449 0.01438237 0.00537582    0.0511613 ----
    32   0   0   F    F  1.33D+00 0.00290188 0.00107449 0.01907591 0.00713017    0.0510655 ----
    33   0   0   F    T  3.26D+00 0.00319796 0.00163631 0.03118333 0.01250598    0.0510195 ----
    34   0   0   F    F -3.79D-01 0.00319796 0.00163631 0.01181457 0.00473820    0.0509686 ----
    35   0   0   F    T  1.73D+00 0.00514294 0.00171120 0.02310757 0.00776779    0.0509378 ----
    36   0   0   F    F -6.61D-02 0.00514294 0.00171120 0.00152766 0.00051353    0.0508675 ----
    37   0   0   F    T  1.46D+00 0.00473662 0.00173671 0.01979175 0.00725425    0.0508671 ----
    38   0   0   F    F  1.43D+00 0.00473662 0.00173671 0.02821646 0.01034215    0.0507615 ----
    39   0   0   F    T  4.40D+00 0.00386467 0.00149000 0.05137817 0.01759640    0.0507050 ----
    40   0   0   T    F  4.41D-01 0.00386467 0.00149000 0.02264725 0.00775641    0.0507426 ----
    41   0   0   F    T  2.79D+00 0.00287963 0.00118018 0.01988420 0.00775641    0.0506407 ----
    42   0   0   F    T  1.46D+00 0.00479975 0.00159433 0.02061143 0.00775641    0.0505823 ----
    43   0   0   F    F -9.42D-02 0.00479975 0.00159433 0.00194174 0.00073071    0.0505326 ----
    44   0   0   F    T  3.10D+00 0.00274605 0.00097720 0.01729416 0.00702570    0.0505320 ----
    45   0   0   F    F -3.46D-02 0.00274605 0.00097720 0.00059811 0.00024298    0.0504891 ---+
    46   0   0   F    T  2.61D+00 0.00279574 0.00100740 0.01678439 0.00678272    0.0504890 ----
    47   0   0   F    F  1.04D+00 0.00279574 0.00100740 0.01742557 0.00704183    0.0504291 ----
    48   0   0   F    T  2.28D+00 0.00344695 0.00152095 0.03501142 0.01382455    0.0504082 ----
    49   0   0   F    F -4.60D-01 0.00344695 0.00152095 0.01609445 0.00635503    0.0503973 ----
    50   0   0   F    T  1.69D+00 0.00321210 0.00129515 0.01603473 0.00746952    0.0503652 ----
    51   0   0   F    F  6.69D-01 0.00321210 0.00129515 0.01073439 0.00500045    0.0503059 ----
    52   0   0   F    T  2.52D+00 0.00383567 0.00135704 0.02585796 0.01246997    0.0502947 ----
    53   0   0   F    F  6.62D-01 0.00383567 0.00135704 0.01710844 0.00825052    0.0501987 ----
    54   0   0   F    T  3.19D+00 0.00291906 0.00149597 0.04881746 0.02072050    0.0501811 ----
    55   0   0   F    F -4.93D-02 0.00291906 0.00149597 0.00240785 0.00102201    0.0500792 ----
    56   0   0   F    T  1.04D+00 0.00733031 0.00251477 0.04870727 0.01969849    0.0500789 ----
    57   0   0   F    F  1.05D+00 0.00733031 0.00251477 0.05128454 0.02074080    0.0499183 ----
    58   0   0   F    F -1.13D-02 0.00733031 0.00251477 0.00057784 0.00023369    0.0498533 ---+
    59   0   0   F    T  1.53D+00 0.00827665 0.00329300 0.10251699 0.04020559    0.0498533 ----
    60   0   0   F    F  5.47D-01 0.00827665 0.00329300 0.05611898 0.02200900    0.0495013 ----
    61   0   0   F    F -8.31D-02 0.00827665 0.00329300 0.00466475 0.00182945    0.0494510 ----
    62   0   0   F    T  3.74D+00 0.00932946 0.00376353 0.15889192 0.06038515    0.0494506 ----
    63   0   0   T    F  4.69D-01 0.00932946 0.00376353 0.07451118 0.02831717    0.0494765 ----
    64   0   0   F    T  1.26D+00 0.01307594 0.00423049 0.07626412 0.02831717    0.0490941 ----
    65   0   0   F    F  5.34D-01 0.01307594 0.00423049 0.04070191 0.01511278    0.0486295 ----
    66   0   0   F    F -2.89D-02 0.01307594 0.00423049 0.00117502 0.00043629    0.0485649 ----
    67   0   0   F    T  1.84D+00 0.00783731 0.00384494 0.11715160 0.04299366    0.0485649 ----
    68   0   0   F    F  3.68D-01 0.00783731 0.00384494 0.04312759 0.01582747    0.0480052 ----
    69   0   0   F    F -4.50D-02 0.00783731 0.00384494 0.00193947 0.00071177    0.0479574 ----
    70   0   0   F    T  3.85D+00 0.01170262 0.00396212 0.14544442 0.05810935    0.0479573 ----
    71   0   0   F    F -4.80D-01 0.01170262 0.00396212 0.06988347 0.02792051    0.0478495 ----
    72   0   0   F    T  1.07D+00 0.01854244 0.00528209 0.07465084 0.03018884    0.0475000 ----
    73   0   0   F    F  1.62D+00 0.01854244 0.00528209 0.12085423 0.04887351    0.0467706 ----
    74   0   0   F    F -1.05D-01 0.01854244 0.00528209 0.01267681 0.00512651    0.0463510 ----
    75   0   0   F    T  1.53D+00 0.01592131 0.00648303 0.18578982 0.07393584    0.0463446 ----
    76   0   0   F    F -2.04D-01 0.01592131 0.00648303 0.03785158 0.01506320    0.0455609 ----
    77   0   0   F    F -1.14D-02 0.01592131 0.00648303 0.00043108 0.00017155    0.0454896 --++
    78   0   0   F    T  4.64D+00 0.01296078 0.00539613 0.17814224 0.05904420    0.0454896 ----
    79   0   0   T    F  3.46D-01 0.01296078 0.00539613 0.06170865 0.02045297    0.0471424 ----
    80   0   0   F    T  1.02D+00 0.01910084 0.00651276 0.06767574 0.02045297    0.0447954 ----
    81   0   0   F    F  1.15D+00 0.01910084 0.00651276 0.07785361 0.02352892    0.0438288 ----
    82   0   0   F    F -4.96D-03 0.01910084 0.00651276 0.00038585 0.00011661    0.0434693 --++
    83   0   0   F    T  3.54D+00 0.00963125 0.00408837 0.12607448 0.04386528    0.0434693 ----
    84   0   0   F    F -1.05D-01 0.00963125 0.00408837 0.01326656 0.00461585    0.0426445 ----
    85   0   0   F    T  2.11D+00 0.01556470 0.00484564 0.11927040 0.03924943    0.0426315 ----
    86   0   0   F    F  6.35D-01 0.01556470 0.00484564 0.07571415 0.02491596    0.0415338 ----
    87   0   0   F    F -2.97D-02 0.01556470 0.00484564 0.00225246 0.00074124    0.0413220 ----
    88   0   0   F    T  3.09D+00 0.01748971 0.00610079 0.22304547 0.06342415    0.0413218 ----
    89   0   0   F    F -2.35D-01 0.01748971 0.00610079 0.05243821 0.01491108    0.0401527 ----
    90   0   0   F    F -1.17D-02 0.01748971 0.00610079 0.00061205 0.00017404    0.0400425 ---+
    91   0   0   F    T  3.18D+00 0.01528725 0.00523588 0.17117831 0.04868711    0.0400425 ----
    92   0   0   T    F  3.86D-01 0.01528725 0.00523588 0.06599878 0.01877160    0.0407949 ----
    93   0   0   F    T  1.40D+00 0.01257589 0.00457703 0.06373114 0.01877160    0.0395422 ----
    94   0   0   F    F  1.35D+00 0.01257589 0.00457703 0.08587586 0.02529418    0.0388510 ----
    95   0   0   F    F -3.69D-02 0.01257589 0.00457703 0.00317280 0.00093453    0.0385179 ----
    96   0   0   F    T  3.08D+00 0.01189736 0.00451221 0.14501547 0.04313125    0.0385174 ----
    97   0   0   F    F -4.36D-01 0.01189736 0.00451221 0.06326374 0.01881623    0.0382985 ----
    98   0   0   F    T  4.23D+00 0.00664682 0.00266920 0.07333102 0.02431502    0.0379913 ----
    99   0   0   F    F -2.34D-01 0.00664682 0.00266920 0.01714105 0.00568361    0.0376779 ----
   100   0   0   F    T  1.93D+00 0.00844596 0.00332500 0.05122937 0.01863141    0.0376460 ----
   101   0   0   F    F -2.14D-01 0.00844596 0.00332500 0.01096667 0.00398843    0.0374116 ----
   102   0   0   F    T  1.55D+00 0.01036019 0.00320738 0.03832059 0.01464298    0.0373925 ----
   103   0   0   F    F  8.25D-02 0.01036019 0.00320738 0.00316094 0.00120785    0.0371339 ----
   104   0   0   F    T  3.97D+00 0.00480811 0.00202345 0.03978743 0.01585084    0.0371324 ----
   105   0   0   T    F  4.99D-01 0.00480811 0.00202345 0.01984687 0.00790676    0.0371329 ----
   106   0   0   F    T  2.11D+00 0.00498440 0.00182554 0.02322328 0.00790676    0.0370110 ----
   107   0   0   F    F  3.51D-01 0.00498440 0.00182554 0.00815422 0.00277624    0.0368782 ----
   108   0   0   F    T  2.68D+00 0.00573077 0.00177646 0.03047441 0.01068300    0.0368686 ----
   109   0   0   T    F  4.27D-01 0.00573077 0.00177646 0.01300932 0.00456050    0.0369118 ----
   110   0   0   F    T  1.61D+00 0.00402655 0.00139265 0.01119411 0.00456050    0.0368145 ----
   111   0   0   F    F  3.92D-01 0.00402655 0.00139265 0.00438750 0.00178747    0.0367543 ----
   112   0   0   F    T  2.09D+00 0.00455010 0.00136262 0.01416616 0.00634797    0.0367491 ----
   113   0   0   F    F  4.10D-01 0.00455010 0.00136262 0.00580402 0.00260083    0.0366738 ----
   114   0   0   F    T  5.49D+00 0.00216483 0.00092407 0.02307496 0.00894880    0.0366668 ----
   115   0   0   T    F  2.77D-01 0.00216483 0.00092407 0.00638311 0.00247546    0.0367797 ----
   116   0   0   F    T  1.13D+00 0.00325888 0.00100665 0.00633107 0.00247546    0.0366474 ----
   117   0   0   F    F  1.16D+00 0.00325888 0.00100665 0.00737224 0.00288256    0.0366208 ----
   118   0   0   F    T  1.99D+00 0.00256492 0.00106792 0.01411072 0.00535802    0.0366100 ----
   119   0   0   F    F -2.68D-01 0.00256492 0.00106792 0.00378121 0.00143577    0.0365884 ----
   120   0   0   F    T  4.39D+00 0.00131139 0.00054891 0.01125302 0.00392225    0.0365851 ----
   121   0   0   F    F -3.68D-01 0.00131139 0.00054891 0.00414142 0.00144349    0.0365768 ----
   122   0   0   F    T  2.02D+00 0.00157119 0.00059939 0.00740886 0.00247876    0.0365725 ----
   123   0   0   F    F -1.02D-01 0.00157119 0.00059939 0.00075489 0.00025256    0.0365629 ---+
   124   0   0   F    T  1.33D+00 0.00172236 0.00067198 0.00670290 0.00222619    0.0365627 ----
   125   0   0   F    F  1.24D-01 0.00172236 0.00067198 0.00082877 0.00027525    0.0365527 ---+
   126   0   0   F    T  3.41D+00 0.00073035 0.00040760 0.00808682 0.00250145    0.0365526 ----
   127   0   0   F    F  9.71D-02 0.00073035 0.00040760 0.00078499 0.00024282    0.0365434 ---+
   128   0   0   F    T  1.93D+00 0.00120902 0.00054432 0.00929248 0.00274426    0.0365433 ----
   129   0   0   F    F  7.80D-02 0.00120902 0.00054432 0.00072462 0.00021399    0.0365341 ---+
   130   0   0   F    T  2.27D+00 0.00135417 0.00050049 0.01014434 0.00295826    0.0365340 ----
   131   0   0   F    F -4.23D-01 0.00135417 0.00050049 0.00429437 0.00125231    0.0365318 ----
   132   0   0   F    T  1.52D+00 0.00106539 0.00044446 0.00596744 0.00170595    0.0365291 ----
   133   0   0   F    F  7.35D-01 0.00106539 0.00044446 0.00438492 0.00125354    0.0365227 ----
   134   0   0   F    T  2.35D+00 0.00133638 0.00045316 0.01012112 0.00295949    0.0365213 ----
   135   0   0   F    F  8.69D-01 0.00133638 0.00045316 0.00879690 0.00257228    0.0365106 ----
   136   0   0   F    T  2.47D+00 0.00162185 0.00060001 0.01817871 0.00553177    0.0365077 ----
   137   0   0   F    F -3.51D-01 0.00162185 0.00060001 0.00637791 0.00194080    0.0365015 ----
   138   0   0   F    T  1.40D+00 0.00144028 0.00062859 0.01154647 0.00359098    0.0364990 ----
   139   0   0   F    F  8.37D-01 0.00144028 0.00062859 0.00966410 0.00300556    0.0364869 ----
   140   0   0   F    T  1.42D+00 0.00229530 0.00083480 0.02065408 0.00659653    0.0364837 ----
   141   0   0   F    F  8.08D-01 0.00229530 0.00083480 0.01668180 0.00532786    0.0364624 ----
   142   0   0   F    T  4.14D+00 0.00137119 0.00065177 0.03615779 0.01192439    0.0364571 ----
   143   0   0   F    F -3.78D-01 0.00137119 0.00065177 0.01368135 0.00451194    0.0364468 ----
   144   0   0   F    T  1.99D+00 0.00211978 0.00072834 0.02252830 0.00741245    0.0364408 ----
   145   0   0   F    F -2.21D-01 0.00211978 0.00072834 0.00498482 0.00164015    0.0364294 ----
   146   0   0   F    T  1.13D+00 0.00172925 0.00085560 0.01726191 0.00577231    0.0364284 ----
   147   0   0   F    F  3.12D+00 0.00172925 0.00085560 0.05386802 0.01801322    0.0364065 ----
   148   0   0   F    F -1.66D-02 0.00172925 0.00085560 0.00089566 0.00029951    0.0363771 ---+
   149   0   0   F    T  4.53D+00 0.00244873 0.00093321 0.07009447 0.02348602    0.0363771 ----
   150   0   0   T    F  4.60D-01 0.00244873 0.00093321 0.03225766 0.01080833    0.0363862 ----
   151   0   0   F    T  1.23D+00 0.00308650 0.00120626 0.03273382 0.01080833    0.0363501 ----
   152   0   0   F    F  8.65D-01 0.00308650 0.00120626 0.02830960 0.00934750    0.0363100 ----
   153   0   0   F    T  1.45D+00 0.00385536 0.00151847 0.06003156 0.02015583    0.0362987 ----
   154   0   0   F    F  2.89D-01 0.00385536 0.00151847 0.01736795 0.00583136    0.0362392 ----
   155   0   0   F    T  4.49D+00 0.00258563 0.00101560 0.07490280 0.02598719    0.0362363 ----
   156   0   0   T    F  4.44D-01 0.00258563 0.00101560 0.03325429 0.01153743    0.0362501 ----
   157   0   0   F    T  1.46D+00 0.00290829 0.00114141 0.03353899 0.01153743    0.0362060 ----
   158   0   0   F    F  2.05D-02 0.00290829 0.00114141 0.00068881 0.00023695    0.0361765 ---+
   159   0   0   F    T  1.62D+00 0.00336096 0.00108027 0.03277066 0.01177438    0.0361765 ----
   160   0   0   F    F  2.24D-01 0.00336096 0.00108027 0.00734120 0.00263767    0.0361425 ----
   161   0   0   F    T  3.12D+00 0.00243443 0.00092086 0.03650817 0.01441205    0.0361413 ----
   162   0   0   F    F -3.84D-01 0.00243443 0.00092086 0.01401181 0.00553133    0.0361263 ----
   163   0   0   F    T  1.00D+00 0.00388061 0.00130481 0.02375844 0.00937926    0.0361170 ----
   164   0   0   F    F  1.36D+00 0.00388061 0.00130481 0.03229600 0.01274969    0.0360767 ----
   165   0   0   F    T  2.60D+00 0.00345898 0.00120264 0.05377515 0.02212895    0.0360567 ----
   166   0   0   F    F -2.78D-01 0.00345898 0.00120264 0.01494355 0.00614940    0.0360221 ----
   167   0   0   F    T  2.79D+00 0.00231983 0.00098990 0.03636053 0.01597955    0.0360161 ----
   168   0   0   T    F  4.67D-01 0.00231983 0.00098990 0.01697491 0.00746005    0.0360214 ----
   169   0   0   F    T  1.62D+00 0.00259388 0.00086590 0.01768240 0.00746005    0.0359970 ----
   170   0   0   F    F -1.01D-01 0.00259388 0.00086590 0.00178445 0.00075284    0.0359808 ----
   171   0   0   F    T  2.36D+00 0.00194126 0.00066630 0.01567495 0.00670721    0.0359806 ----
   172   0   0   F    F  4.91D-01 0.00194126 0.00066630 0.00769305 0.00329181    0.0359596 ----
   173   0   0   F    T  2.00D+00 0.00293154 0.00088434 0.02153823 0.00999902    0.0359570 ----
   174   0   0   T    F  4.66D-01 0.00293154 0.00088434 0.01004021 0.00466112    0.0359602 ----
   175   0   0   F    T  2.17D+00 0.00170147 0.00056610 0.01108363 0.00466112    0.0359461 ----
   176   0   0   F    F  4.60D-01 0.00170147 0.00056610 0.00510317 0.00214609    0.0359324 ----
   177   0   0   F    T  2.35D+00 0.00216631 0.00064497 0.01709935 0.00680721    0.0359309 ----
   178   0   0   F    F -3.69D-01 0.00216631 0.00064497 0.00630627 0.00251051    0.0359248 ----
   179   0   0   F    T  2.02D+00 0.00171415 0.00054551 0.01109972 0.00429670    0.0359217 ----
   180   0   0   F    F -4.98D-01 0.00171415 0.00054551 0.00552571 0.00213900    0.0359216 ----
   181   0   0   F    T  2.77D+00 0.00070770 0.00031433 0.00597128 0.00215770    0.0359171 ----
   182   0   0   F    F -9.01D-02 0.00070770 0.00031433 0.00053782 0.00019434    0.0359135 ---+
   183   0   0   F    T  1.98D+00 0.00072287 0.00034263 0.00639290 0.00196336    0.0359134 ----
   184   0   0   F    F -1.60D-01 0.00072287 0.00034263 0.00102253 0.00031403    0.0359106 ----
   185   0   0   F    T  1.32D+00 0.00117311 0.00037527 0.00579226 0.00164932    0.0359105 ----
   186   0   0   F    F  6.89D-02 0.00117311 0.00037527 0.00039894 0.00011360    0.0359075 --++
   187   0   0   F    T  2.79D+00 0.00077164 0.00025780 0.00605274 0.00176292    0.0359075 ----
   188   0   0   F    F  1.95D-01 0.00077164 0.00025780 0.00118027 0.00034377    0.0359043 ----
   189   0   0   F    T  1.38D+00 0.00102441 0.00039330 0.00737212 0.00210669    0.0359042 ----
   190   0   0   F    T  1.71D+00 0.00096352 0.00034699 0.00751171 0.00210669    0.0359010 ----
   191   0   0   F    F -4.10D-02 0.00096352 0.00034699 0.00030822 0.00008644    0.0358980 --++
   192   0   0   F    T  3.32D+00 0.00069949 0.00023129 0.00678083 0.00202024    0.0358980 ----
   193   0   0   F    F -3.69D-01 0.00069949 0.00023129 0.00250053 0.00074499    0.0358969 ----
   194   0   0   F    T  1.33D+00 0.00085596 0.00028367 0.00446893 0.00127525    0.0358963 ----
   195   0   0   F    F  1.49D-01 0.00085596 0.00028367 0.00066577 0.00018998    0.0358945 ---+
   196   0   0   F    T  1.57D+00 0.00064778 0.00027355 0.00545824 0.00146523    0.0358945 ----
   197   0   0   F    F  3.06D-01 0.00064778 0.00027355 0.00167202 0.00044885    0.0358923 ----
   198   0   0   F    T  3.19D+00 0.00043612 0.00021365 0.00602222 0.00191408    0.0358922 ----
   199   0   0   F    F -3.93D-01 0.00043612 0.00021365 0.00236485 0.00075163    0.0358914 ----
   200   0   0   F    T  1.11D+00 0.00078308 0.00027728 0.00337284 0.00116245    0.0358908 ----
   201   0   0   F    F  4.18D-01 0.00078308 0.00027728 0.00140942 0.00048575    0.0358892 ----
   202   0   0   F    T  2.37D+00 0.00066875 0.00021984 0.00478058 0.00164820    0.0358890 ----
   203   0   0   F    F  7.73D-02 0.00066875 0.00021984 0.00036940 0.00012736    0.0358872 --++
   204   0   0   F    T  2.93D+00 0.00051760 0.00019897 0.00488719 0.00177556    0.0358872 ----
   205   0   0   T    F  3.16D-01 0.00051760 0.00019897 0.00154231 0.00056033    0.0358892 ----
   206   0   0   F    T  1.78D+00 0.00031113 0.00013607 0.00146765 0.00056033    0.0358866 ----
   207   0   0   F    T  2.64D+00 0.00028733 0.00011263 0.00134053 0.00056033    0.0358861 ----
   208   0   0   F    F -2.48D-01 0.00028733 0.00011263 0.00033206 0.00013880    0.0358857 --++
   209   0   0   F    T  1.44D+00 0.00030300 0.00011755 0.00100713 0.00042153    0.0358856 ----
   210   0   0   F    T  1.20D+00 0.00024377 0.00012077 0.00104726 0.00042153    0.0358854 ----
   211   0   0   F    F  7.38D-01 0.00024377 0.00012077 0.00077282 0.00031107    0.0358851 ----
   212   0   0   F    T  2.56D+00 0.00048139 0.00014110 0.00172137 0.00073260    0.0358851 ----
   213   0   0   T    F  3.93D-01 0.00048139 0.00014110 0.00067728 0.00028825    0.0358855 ---+
   214   0   0   F    T  1.47D+00 0.00031521 0.00010347 0.00069631 0.00028825    0.0358848 ---+
   215   0   0   F    T  4.46D+00 0.00012032 0.00005381 0.00057871 0.00028825    0.0358845 -+-+
   216   0   0   T    T  1.00D+00 0.00043421 0.00017146 0.00043421 0.00017146    0.0358846 --++
   217   0   0   T    F  5.00D-01 0.00043421 0.00017146 0.00021710 0.00008573    0.0358854 --++
   218   0   0   T    F  5.00D-01 0.00043421 0.00017146 0.00010855 0.00004286    0.0358848 --++
   219   0   0   T    F  5.00D-01 0.00043421 0.00017146 0.00005428 0.00002143    0.0358846 --++
   220   0   0   T    F  5.00D-01 0.00043421 0.00017146 0.00002714 0.00001072    0.0358845 --++
   221   0   0   T    F  5.00D-01 0.00043421 0.00017146 0.00001357 0.00000536    0.0358845 --++
   222   0   0   T    F  5.00D-01 0.00043421 0.00017146 0.00000678 0.00000268    0.0358845 --++
   223   0   0   T    F  5.00D-01 0.00043421 0.00017146 0.00000339 0.00000134    0.0358845 --++
   224   0   0   T    F  5.00D-01 0.00043421 0.00017146 0.00000170 0.00000067    0.0358845 --++
   225   0   0   T    F  5.00D-01 0.00043421 0.00017146 0.00000085 0.00000033    0.0358845 --++
   226   0   0   T    T  1.00D+00 0.00012061 0.00005408 0.00009988 0.00004505    0.0358845 -+++
   227   0   0   F    T  1.00D+00 0.00011755 0.00004768 0.00011741 0.00004789    0.0358845 -+++
   228   0   0   F    T  1.00D+00 0.00010467 0.00003907 0.00011499 0.00005093    0.0358844 ====
 ****************************
 MOLECULAR MECHANICS FUNCTION
 ****************************
 Atomic parameters:
 Center  VDW
      1 1.9080 0.0860000
      2 1.7210 0.2104000
      3 1.9080 0.1094000
      4 1.4870 0.0157000
      5 1.4870 0.0157000
      6 1.8750 0.1700000
      7 0.6000 0.0157000
      8 0.6000 0.0157000
      9 1.6612 0.2100000
     10 0.0000 0.0000000
 Molecular mechanics terms:
 NBDir 3 1      0      0
 HrmStr1  1- 2  431.53 1.3510
 HrmStr1  1- 3  294.15 1.5090
 HrmStr1  1- 9  946.08 1.2030
 HrmStr1  2-10  566.76 0.9680
 HrmStr1  3- 4  358.05 1.0960
 HrmStr1  3- 5  358.05 1.0960
 HrmStr1  3- 6  380.82 1.4520
 HrmStr1  6- 7  506.01 1.0110
 HrmStr1  6- 8  506.01 1.0110
 HrmBnd1  1- 2-10  56.55 107.23
 HrmBnd1  1- 3- 4  46.41 106.89
 HrmBnd1  1- 3- 5  46.41 106.89
 HrmBnd1  1- 3- 6  59.93 110.61
 HrmBnd1  2- 1- 3  67.92 111.72
 HrmBnd1  2- 1- 9  91.40 123.02
 HrmBnd1  3- 1- 9  62.83 125.24
 HrmBnd1  3- 6- 7  52.60 110.71
 HrmBnd1  3- 6- 8  52.60 110.71
 HrmBnd1  4- 3- 5  44.68 106.22
 HrmBnd1  4- 3- 6  52.45 112.94
 HrmBnd1  5- 3- 6  52.45 112.94
 HrmBnd1  7- 6- 8  47.09 108.63
 AmbTrs  3- 1- 2-10   0 180   0   0  0.0000 14.5000  0.0000  0.0000  2.0
 AmbTrs  9- 1- 2-10   0   0   0   0  0.0000 14.5000  0.0000  0.0000  2.0
 AmbTrs  2- 1- 3- 4   0   0   0   0  0.0000 14.5000  0.0000  0.0000  6.0
 AmbTrs  2- 1- 3- 5   0   0   0   0  0.0000 14.5000  0.0000  0.0000  6.0
 AmbTrs  2- 1- 3- 6   0   0   0   0  0.0000 14.5000  0.0000  0.0000  6.0
 AmbTrs  9- 1- 3- 4   0   0   0   0  0.0000 14.5000  0.0000  0.0000  6.0
 AmbTrs  9- 1- 3- 5   0   0   0   0  0.0000 14.5000  0.0000  0.0000  6.0
 AmbTrs  9- 1- 3- 6   0   0   0   0  0.0000 14.5000  0.0000  0.0000  6.0
 AmbTrs  1- 3- 6- 7   0 180   0   0  0.0000 25.6300  0.0000  0.0000  6.0
 AmbTrs  1- 3- 6- 8   0 180   0   0  0.0000 25.6300  0.0000  0.0000  6.0
 AmbTrs  4- 3- 6- 7   0   0   0   0  0.0000  0.0000  0.0000  0.0000  6.0
 AmbTrs  4- 3- 6- 8   0   0   0   0  0.0000  0.0000  0.0000  0.0000  6.0
 AmbTrs  5- 3- 6- 7   0   0   0   0  0.0000  0.0000  0.0000  0.0000  6.0
 AmbTrs  5- 3- 6- 8   0   0   0   0  0.0000  0.0000  0.0000  0.0000  6.0
 NBPair  2- 1 3 1      0      0 -1.000 -1.000
 NBPair  3- 2 3 1      0      0 -1.000 -1.000
 NBPair 10- 3 3 1      0      0 -0.500 -0.167
 NBPair  9- 2 3 1      0      0 -1.000 -1.000
 NBPair 10- 9 3 1      0      0 -0.500 -0.167
 NBPair  3- 1 3 1      0      0 -1.000 -1.000
 NBPair  4- 2 3 1      0      0 -0.500 -0.167
 NBPair  5- 2 3 1      0      0 -0.500 -0.167
 NBPair  6- 2 3 1      0      0 -0.500 -0.167
 NBPair  9- 3 3 1      0      0 -1.000 -1.000
 NBPair  9- 4 3 1      0      0 -0.500 -0.167
 NBPair  9- 5 3 1      0      0 -0.500 -0.167
 NBPair  9- 6 3 1      0      0 -0.500 -0.167
 NBPair  9- 1 3 1      0      0 -1.000 -1.000
 NBPair 10- 1 3 1      0      0 -1.000 -1.000
 NBPair 10- 2 3 1      0      0 -1.000 -1.000
 NBPair  4- 1 3 1      0      0 -1.000 -1.000
 NBPair  5- 1 3 1      0      0 -1.000 -1.000
 NBPair  6- 1 3 1      0      0 -1.000 -1.000
 NBPair  4- 3 3 1      0      0 -1.000 -1.000
 NBPair  5- 4 3 1      0      0 -1.000 -1.000
 NBPair  6- 4 3 1      0      0 -1.000 -1.000
 NBPair  5- 3 3 1      0      0 -1.000 -1.000
 NBPair  6- 5 3 1      0      0 -1.000 -1.000
 NBPair  6- 3 3 1      0      0 -1.000 -1.000
 NBPair  7- 1 3 1      0      0 -0.500 -0.167
 NBPair  8- 1 3 1      0      0 -0.500 -0.167
 NBPair  7- 4 3 1      0      0 -0.500 -0.167
 NBPair  8- 4 3 1      0      0 -0.500 -0.167
 NBPair  7- 5 3 1      0      0 -0.500 -0.167
 NBPair  8- 5 3 1      0      0 -0.500 -0.167
 NBPair  7- 3 3 1      0      0 -1.000 -1.000
 NBPair  8- 3 3 1      0      0 -1.000 -1.000
 NBPair  7- 6 3 1      0      0 -1.000 -1.000
 NBPair  8- 7 3 1      0      0 -1.000 -1.000
 NBPair  8- 6 3 1      0      0 -1.000 -1.000
 Energy per function type:
 Direct Coulomb + vdW (small)                           0.003205300
 Direct Coulomb (large)                                -0.131554398
 Direct vdW (large)                                   269.140225136
 Non-direct Coulomb + vdW (small)                      -0.011788638
 Non-direct Coulomb (large)                             0.137961139
 Non-direct vdW (large)                              -269.140225136
 Harmonic stretch I                                     0.000096135
 Harmonic bend I                                        0.004599637
 Amber torsion                                          0.033365246
 Energy per function class:
        Coulomb              -0.003564425
    Vanderwaals               0.001387828
     Stretching               0.000096135
        Bending               0.004599637
        Torsion               0.033365246
 Energy=    3.588442045E-02 NIter=   0.
 Dipole moment=       0.531185       0.471444       0.152053
 Leave Link  402 at Wed Nov 29 12:05:17 2023, MaxMem=   134217728 cpu:               0.4 elap:               0.4
 (Enter /home/emanuele/chem_software/gaussian//gdv/l716.exe)
 Dipole        = 5.31185438D-01 4.71444493D-01 1.52052887D-01
 -------------------------------------------------------------------
 Center     Atomic                   Forces (Hartrees/Bohr)
 Number     Number              X              Y              Z
 -------------------------------------------------------------------
      1        6           0.000060676    0.000104669   -0.000015273
      2        8          -0.000004361   -0.000013284    0.000035204
      3        6          -0.000026914    0.000036805    0.000024760
      4        1           0.000004429    0.000041496    0.000066817
      5        1          -0.000000825   -0.000031332   -0.000017461
      6        7           0.000032063   -0.000029881   -0.000005486
      7        1           0.000007244   -0.000006923   -0.000011006
      8        1           0.000046158   -0.000021296   -0.000004171
      9        8          -0.000068992   -0.000066168   -0.000041974
     10        1          -0.000049478   -0.000014087   -0.000031411
 -------------------------------------------------------------------
 Cartesian Forces:  Max     0.000104669 RMS     0.000039072
 Z-matrix is all fixed cartesians, so copy forces.
 Leave Link  716 at Wed Nov 29 12:05:17 2023, MaxMem=   134217728 cpu:               0.0 elap:               0.0
 (Enter /home/emanuele/chem_software/gaussian//gdv/l103.exe)

 GradGradGradGradGradGradGradGradGradGradGradGradGradGradGradGradGradGrad
 Berny optimization.
 Search for a local minimum.
 Step number   1 out of a maximum of    2
 All quantities printed in internal units (Hartrees-Bohrs-Radians)
 RMS Force = .39072D-04 SwitMx=.10000D-02 MixMth= 2
 Mixed Optimization -- En-DIIS/RFO-DIIS
 Second derivative matrix not updated -- unit matrix used.
 ITU=  0
 RFO step:  Lambda=-4.57976553D-08 EMin= 1.00000000D+00
 Linear search not attempted -- first point.
 Variable       Old X    -DE/DX   Delta X   Delta X   Delta X     New X
                                 (Linear)    (Quad)   (Total)
    X1       -1.28312   0.00006   0.00000   0.00006   0.00006  -1.28306
    Y1       -0.71399   0.00010   0.00000   0.00010   0.00010  -0.71389
    Z1        0.08170  -0.00002   0.00000  -0.00002  -0.00002   0.08168
    X2       -1.94937  -0.00000   0.00000  -0.00000  -0.00000  -1.94937
    Y2        1.73982  -0.00001   0.00000  -0.00001  -0.00001   1.73981
    Z2       -0.12257   0.00004   0.00000   0.00004   0.00004  -0.12253
    X3        1.47800  -0.00003   0.00000  -0.00003  -0.00003   1.47798
    Y3       -0.96662   0.00004   0.00000   0.00004   0.00004  -0.96659
    Z3       -0.67253   0.00002   0.00000   0.00002   0.00002  -0.67250
    X4        1.63001   0.00000   0.00000   0.00000   0.00000   1.63001
    Y4       -2.79904   0.00004   0.00000   0.00004   0.00004  -2.79900
    Z4       -1.63105   0.00007   0.00000   0.00007   0.00007  -1.63099
    X5        1.85221  -0.00000   0.00000  -0.00000  -0.00000   1.85221
    Y5        0.36854  -0.00003   0.00000  -0.00003  -0.00003   0.36850
    Z5       -2.21455  -0.00002   0.00000  -0.00002  -0.00002  -2.21456
    X6        3.18461   0.00003   0.00000   0.00003   0.00003   3.18465
    Y6       -0.78093  -0.00003   0.00000  -0.00003  -0.00003  -0.78096
    Z6        1.48463  -0.00001   0.00000  -0.00001  -0.00001   1.48462
    X7        4.97258   0.00001   0.00000   0.00001   0.00001   4.97258
    Y7       -0.26618  -0.00001   0.00000  -0.00001  -0.00001  -0.26619
    Z7        1.04657  -0.00001   0.00000  -0.00001  -0.00001   1.04656
    X8        2.45314   0.00005   0.00000   0.00005   0.00005   2.45319
    Y8        0.12874  -0.00002   0.00000  -0.00002  -0.00002   0.12871
    Z8        2.99851  -0.00000   0.00000  -0.00000  -0.00000   2.99851
    X9       -2.75279  -0.00007   0.00000  -0.00007  -0.00007  -2.75286
    Y9       -2.31152  -0.00007   0.00000  -0.00007  -0.00007  -2.31158
    Z9       -0.58868  -0.00004   0.00000  -0.00004  -0.00004  -0.58872
   X10       -3.38314  -0.00005   0.00000  -0.00005  -0.00005  -3.38319
   Y10        1.96614  -0.00001   0.00000  -0.00001  -0.00001   1.96612
   Z10        0.98792  -0.00003   0.00000  -0.00003  -0.00003   0.98789
         Item               Value     Threshold  Converged?
 Maximum Force            0.000105     0.000450     YES
 RMS     Force            0.000039     0.000300     YES
 Maximum Displacement     0.000105     0.001800     YES
 RMS     Displacement     0.000039     0.001200     YES
 Predicted change in Energy=-2.289883D-08
 Optimization completed.
    -- Stationary point found.
 Largest change from initial coordinates is atom    7       0.223 Angstoms.
 GradGradGradGradGradGradGradGradGradGradGradGradGradGradGradGradGradGrad

 Leave Link  103 at Wed Nov 29 12:05:17 2023, MaxMem=   134217728 cpu:               0.0 elap:               0.0
 (Enter /home/emanuele/chem_software/gaussian//gdv/l202.exe)
                          Input orientation:                          
 ---------------------------------------------------------------------
 Center     Atomic      Atomic             Coordinates (Angstroms)
 Number     Number       Type             X           Y           Z
 ---------------------------------------------------------------------
      1          6    20001002       -0.678996   -0.377828    0.043233
      2          8    20001022       -1.031561    0.920672   -0.064861
      3          6    20001001        0.782126   -0.511515   -0.355886
      4          1    20001034        0.862563   -1.481188   -0.863116
      5          1    20001034        0.980147    0.195021   -1.171887
      6          7    20001020        1.685225   -0.413249    0.785632
      7          1    20001029        2.631375   -0.140857    0.553820
      8          1    20001029        1.298146    0.068124    1.586743
      9          8    20001025       -1.456715   -1.223202   -0.311514
     10          1    20001031       -1.790282    1.040434    0.522786
 ---------------------------------------------------------------------
                    Distance matrix (angstroms):
                    1          2          3          4          5
     1  C    0.000000
     2  O    1.349848   0.000000
     3  C    1.520541   2.329231   0.000000
     4  H    2.101256   3.161306   1.097278   0.000000
     5  H    2.134813   2.408121   1.097389   1.708462   0.000000
     6  N    2.478296   3.143822   1.458873   2.129704   2.167720
     7  H    3.357888   3.863510   2.093961   2.633039   2.411935
     8  H    2.547623   2.980296   2.091905   2.931196   2.779796
     9  O    1.202227   2.199498   2.349655   2.397890   2.947862
    10  H    1.864510   0.967124   3.130159   3.913680   3.355878
                    6          7          8          9         10
     6  N    0.000000
     7  H    1.011501   0.000000
     8  H    1.011597   1.699442   0.000000
     9  O    3.425134   4.316567   3.586106   0.000000
    10  H    3.776431   4.576839   3.408192   2.435441   0.000000
 Symmetry turned off by external request.
 Stoichiometry    C2H5NO2
 Framework group  C1[X(C2H5NO2)]
 Deg. of freedom    24
 Full point group                 C1      NOp   1
 Rotational constants (GHZ):           9.5088540           3.8353971           3.0793980
 Leave Link  202 at Wed Nov 29 12:05:17 2023, MaxMem=   134217728 cpu:               0.0 elap:               0.0
 (Enter /home/emanuele/chem_software/gaussian//gdv/l9999.exe)
 Unable to Open any file for archive entry.
 1\1\GINC-EMANUELE-XPS-13-9343\FOpt\AMBER\ZDO\C2H5N1O2\EMANUELE\29-Nov-
 2023\0\\#p Amber=(SoftFirst,Print) geom=nocrowd nosymm opt=(maxcycle=3
 00)\\Title\\0,1\C,-0.6789961509,-0.3778283425,0.0432330912\O,-1.031561
 3097,0.9206724663,-0.0648605903\C,0.7821259871,-0.5115148675,-0.355886
 3858\H,0.8625630074,-1.481188447,-0.8631164148\H,0.98014655,0.19502078
 21,-1.1718869497\N,1.6852249823,-0.4132493921,0.7856324547\H,2.6313747
 09,-0.1408568431,0.5538200436\H,1.2981455479,0.0681239899,1.5867427821
 \O,-1.4567153832,-1.2232016462,-0.3115140605\H,-1.79028194,1.0404343,0
 .5227860294\\Version=ES64L-GDVRevJ.14\HF=0.0358844\RMSD=0.000e+00\RMSF
 =3.907e-05\Dipole=0.5311854,0.4714445,0.1520529\PG=C01 [X(C2H5N1O2)]\\
 @
 The archive entry for this job was punched.


 A HARD FALL SHOULD MEAN A HIGH BOUNCE 
 IF ONE IS MADE OF THE RIGHT MATERIAL.

                -- THE CHEMIST ANALYST, MARCH 1950
 Job cpu time:       0 days  0 hours  0 minutes  1.0 seconds.
 Elapsed time:       0 days  0 hours  0 minutes  1.0 seconds.
 File lengths (MBytes):  RWF=      6 Int=      0 D2E=      0 Chk=      1 Scr=      1
 Normal termination of Gaussian DV at Wed Nov 29 12:05:17 2023.
