 Entering Gaussian System, Link 0=/home/emanuele/chem_software/gaussian//g09/g09
 Input=0_qm.gjf
 Output=0_qm.log
 Initial command:
 /home/emanuele/chem_software/gaussian//gdv/l1.exe "/home/emanuele/chem_software/gaussian/scratch/Gau-8577.inp" -scrdir="/home/emanuele/chem_software/gaussian/scratch/"
 Entering Link 1 = /home/emanuele/chem_software/gaussian//gdv/l1.exe PID=      8579.
  
 Copyright (c) 1988-2020, Gaussian, Inc.  All Rights Reserved.
  
 This is the private, development version of
 the Gaussian(R) DV system of programs. It is based on
 the Gaussian(R) 16 system (copyright 2016, Gaussian, Inc.),
 the Gaussian(R) 09 system (copyright 2009, Gaussian, Inc.),
 the Gaussian(R) 03 system (copyright 2003, Gaussian, Inc.),
 the Gaussian(R) 98 system (copyright 1998, Gaussian, Inc.),
 the Gaussian(R) 94 system (copyright 1995, Gaussian, Inc.),
 the Gaussian 92(TM) system (copyright 1992, Gaussian, Inc.),
 the Gaussian 90(TM) system (copyright 1990, Gaussian, Inc.),
 the Gaussian 88(TM) system (copyright 1988, Gaussian, Inc.),
 the Gaussian 86(TM) system (copyright 1986, Carnegie Mellon
 University), and the Gaussian 82(TM) system (copyright 1983,
 Carnegie Mellon University). Gaussian is a federally registered
 trademark of Gaussian, Inc.
  
 This software contains proprietary and confidential information,
 including trade secrets, belonging to Gaussian, Inc.
  
 This software is provided under written license and may be
 used, copied, transmitted, or stored only in accord with that
 written license.
  
 The following legend is applicable only to US Government
 contracts under FAR:
  
                    RESTRICTED RIGHTS LEGEND
  
 Use, reproduction and disclosure by the US Government is
 subject to restrictions as set forth in subparagraphs (a)
 and (c) of the Commercial Computer Software - Restricted
 Rights clause in FAR 52.227-19.
  
 Gaussian, Inc.
 340 Quinnipiac St., Bldg. 40, Wallingford CT 06492
  
  
 ---------------------------------------------------------------
 Warning -- This program may not be used in any manner that
 competes with the business of Gaussian, Inc. or will provide
 assistance to any competitor of Gaussian, Inc.  The licensee
 of this program is prohibited from giving any competitor of
 Gaussian, Inc. access to this program.  By using this program,
 the user acknowledges that Gaussian, Inc. is engaged in the
 business of creating and licensing software in the field of
 computational chemistry and represents and warrants to the
 licensee that it is not a competitor of Gaussian, Inc. and that
 it will not use this program in any manner prohibited above.
 ---------------------------------------------------------------
  

 Cite this work as:
 Gaussian Development Version, Revision J.14,
 M. J. Frisch, G. W. Trucks, H. B. Schlegel, G. E. Scuseria, 
 M. A. Robb, J. R. Cheeseman, G. Scalmani, V. Barone, 
 G. A. Petersson, H. Nakatsuji, X. Li, A. V. Marenich, M. Caricato, 
 J. Bloino, B. G. Janesko, J. Zheng, R. Gomperts, B. Mennucci, 
 H. P. Hratchian, J. V. Ortiz, A. F. Izmaylov, J. L. Sonnenberg, 
 D. Williams-Young, F. Ding, F. Lipparini, F. Egidi, J. Goings, 
 B. Peng, A. Petrone, T. Henderson, D. Ranasinghe, V. G. Zakrzewski, 
 J. Gao, N. Rega, G. Zheng, W. Liang, M. Hada, M. Ehara, K. Toyota, 
 R. Fukuda, J. Hasegawa, M. Ishida, T. Nakajima, Y. Honda, O. Kitao, 
 H. Nakai, T. Vreven, K. Throssell, J. A. Montgomery, Jr., 
 J. E. Peralta, F. Ogliaro, M. J. Bearpark, J. J. Heyd, 
 E. N. Brothers, K. N. Kudin, V. N. Staroverov, T. A. Keith, 
 R. Kobayashi, J. Normand, K. Raghavachari, A. P. Rendell, 
 J. C. Burant, S. S. Iyengar, J. Tomasi, M. Cossi, J. M. Millam, 
 M. Klene, C. Adamo, R. Cammi, J. W. Ochterski, R. L. Martin, 
 K. Morokuma, O. Farkas, J. B. Foresman, and D. J. Fox, 
 Gaussian, Inc., Wallingford CT, 2020.
 
 ******************************************
 Gaussian DV:  ES64L-GDVRevJ.14 29-Dec-2020
                28-Nov-2023 
 ******************************************
 %mem=1GB
 %nprocshared=4
 Will use up to    4 processors via shared memory.
 %chk=0_qm.chk
 ----------------------------------------------------------
 #p nosymm geom=nocrowd opt=(modredundant,maxcycle=100) PM6
 ----------------------------------------------------------
 1/6=100,18=120,19=15,26=1,37=210000000,38=1/1,3;
 2/9=110,12=1,15=1,40=1/2;
 3/5=2,25=1,41=3900000,71=1/1,2,3;
 4/35=1/1;
 5/5=2,35=1,38=5/2;
 6/7=2,8=2,9=2,10=2,28=1/1;
 7/30=1/1,2,3,16;
 1/6=100,18=20,19=15,26=1/3(2);
 2/9=110,12=1,15=1/2;
 99//99;
 2/9=110,12=1,15=1/2;
 3/5=2,25=1,41=3900000,71=1,135=20/1,2,3;
 4/5=5,16=3,35=1/1;
 5/5=2,35=1,38=5/2;
 7/30=1/1,2,3,16;
 1/6=100,18=20,19=15,26=1/3(-5);
 2/9=110,12=1,15=1/2;
 6/7=2,8=2,9=2,10=2,19=2,28=1/1;
 99/9=1/99;
 Leave Link    1 at Tue Nov 28 15:47:32 2023, MaxMem=   134217728 cpu:               0.2 elap:               0.1
 (Enter /home/emanuele/chem_software/gaussian//gdv/l101.exe)
 -----
 Title
 -----
 Symbolic Z-matrix:
 Charge =  0 Multiplicity = 1
 C                    -0.53685   0.10417   0.01464 
 O                    -1.63632  -0.67637  -0.06827 
 C                     0.72601  -0.7177    0.10528 
 H                     0.71699  -1.15712   1.11445 
 H                     0.64338  -1.5538   -0.59228 
 N                     1.88901   0.09773  -0.1951 
 H                     1.74816   1.04081   0.14593 
 H                     2.72354  -0.27843   0.23189 
 O                    -0.58681   1.30563   0.04628 
 H                    -2.40509  -0.08851  -0.07785 
 
 The following ModRedundant input section has been read:
 D       2       1       3       4 S  10 36.000                                
 
 ITRead=  0  0  0  0  0  0  0  0  0  0
 MicOpt= -1 -1 -1 -1 -1 -1 -1 -1 -1 -1
 NAtoms=     10 NQM=       10 NQMF=       0 NMMI=      0 NMMIF=      0
                NMic=       0 NMicF=      0.
                    Isotopes and Nuclear Properties:
 (Nuclear quadrupole moments (NQMom) in fm**2, nuclear magnetic moments (NMagM)
  in nuclear magnetons)

  Atom         1           2           3           4           5           6           7           8           9          10
 IAtWgt=          12          16          12           1           1          14           1           1          16           1
 AtmWgt=  12.0000000  15.9949146  12.0000000   1.0078250   1.0078250  14.0030740   1.0078250   1.0078250  15.9949146   1.0078250
 NucSpn=           0           0           0           1           1           2           1           1           0           1
 AtZEff=  -0.0000000  -0.0000000  -0.0000000  -0.0000000  -0.0000000  -0.0000000  -0.0000000  -0.0000000  -0.0000000  -0.0000000
 NQMom=    0.0000000   0.0000000   0.0000000   0.0000000   0.0000000   2.0440000   0.0000000   0.0000000   0.0000000   0.0000000
 NMagM=    0.0000000   0.0000000   0.0000000   2.7928460   2.7928460   0.4037610   2.7928460   2.7928460   0.0000000   2.7928460
 AtZNuc=   6.0000000   8.0000000   6.0000000   1.0000000   1.0000000   7.0000000   1.0000000   1.0000000   8.0000000   1.0000000
 Leave Link  101 at Tue Nov 28 15:47:33 2023, MaxMem=   134217728 cpu:               0.8 elap:               0.3
 (Enter /home/emanuele/chem_software/gaussian//gdv/l103.exe)

 GradGradGradGradGradGradGradGradGradGradGradGradGradGradGradGradGradGrad
 Berny optimization.
 Initialization pass.
                           ----------------------------
                           !    Initial Parameters    !
                           ! (Angstroms and Degrees)  !
 --------------------------                            --------------------------
 ! Name  Definition              Value          Derivative Info.                !
 --------------------------------------------------------------------------------
 ! R1    R(1,2)                  1.3509         estimate D2E/DX2                !
 ! R2    R(1,3)                  1.5095         estimate D2E/DX2                !
 ! R3    R(1,9)                  1.2029         estimate D2E/DX2                !
 ! R4    R(2,10)                 0.9678         estimate D2E/DX2                !
 ! R5    R(3,4)                  1.1007         estimate D2E/DX2                !
 ! R6    R(3,5)                  1.092          estimate D2E/DX2                !
 ! R7    R(3,6)                  1.4518         estimate D2E/DX2                !
 ! R8    R(6,7)                  1.0127         estimate D2E/DX2                !
 ! R9    R(6,8)                  1.0101         estimate D2E/DX2                !
 ! A1    A(2,1,3)              111.7154         estimate D2E/DX2                !
 ! A2    A(2,1,9)              123.0182         estimate D2E/DX2                !
 ! A3    A(3,1,9)              125.2388         estimate D2E/DX2                !
 ! A4    A(1,2,10)             107.2257         estimate D2E/DX2                !
 ! A5    A(1,3,4)              105.4003         estimate D2E/DX2                !
 ! A6    A(1,3,5)              108.3736         estimate D2E/DX2                !
 ! A7    A(1,3,6)              110.6071         estimate D2E/DX2                !
 ! A8    A(4,3,5)              106.2232         estimate D2E/DX2                !
 ! A9    A(4,3,6)              114.8648         estimate D2E/DX2                !
 ! A10   A(5,3,6)              111.0079         estimate D2E/DX2                !
 ! A11   A(3,6,7)              109.9968         estimate D2E/DX2                !
 ! A12   A(3,6,8)              111.4207         estimate D2E/DX2                !
 ! A13   A(7,6,8)              108.6253         estimate D2E/DX2                !
 ! D1    D(3,1,2,10)           177.195          estimate D2E/DX2                !
 ! D2    D(9,1,2,10)            -0.9857         estimate D2E/DX2                !
 ! D3    D(2,1,3,4)            -71.8288         Scan                            !
 ! D4    D(2,1,3,5)             41.552          estimate D2E/DX2                !
 ! D5    D(2,1,3,6)            163.4539         estimate D2E/DX2                !
 ! D6    D(9,1,3,4)            106.3034         estimate D2E/DX2                !
 ! D7    D(9,1,3,5)           -140.3158         estimate D2E/DX2                !
 ! D8    D(9,1,3,6)            -18.4139         estimate D2E/DX2                !
 ! D9    D(1,3,6,7)             34.6533         estimate D2E/DX2                !
 ! D10   D(1,3,6,8)            155.1742         estimate D2E/DX2                !
 ! D11   D(4,3,6,7)            -84.4877         estimate D2E/DX2                !
 ! D12   D(4,3,6,8)             36.0331         estimate D2E/DX2                !
 ! D13   D(5,3,6,7)            154.9936         estimate D2E/DX2                !
 ! D14   D(5,3,6,8)            -84.4855         estimate D2E/DX2                !
 --------------------------------------------------------------------------------
 Trust Radius=3.00D-01 FncErr=1.00D-07 GrdErr=1.00D-07 EigMax=2.50D+02 EigMin=1.00D-04
 Number of optimizations in scan=  11
 Number of steps in this run=    100 maximum allowed number of steps=    100.
 GradGradGradGradGradGradGradGradGradGradGradGradGradGradGradGradGradGrad

 Leave Link  103 at Tue Nov 28 15:47:33 2023, MaxMem=   134217728 cpu:               0.0 elap:               0.0
 (Enter /home/emanuele/chem_software/gaussian//gdv/l202.exe)
                          Input orientation:                          
 ---------------------------------------------------------------------
 Center     Atomic      Atomic             Coordinates (Angstroms)
 Number     Number       Type             X           Y           Z
 ---------------------------------------------------------------------
      1          6           0       -0.536850    0.104174    0.014636
      2          8           0       -1.636322   -0.676373   -0.068268
      3          6           0        0.726013   -0.717700    0.105280
      4          1           0        0.716994   -1.157121    1.114447
      5          1           0        0.643380   -1.553795   -0.592281
      6          7           0        1.889013    0.097733   -0.195097
      7          1           0        1.748159    1.040807    0.145925
      8          1           0        2.723536   -0.278432    0.231888
      9          8           0       -0.586810    1.305633    0.046275
     10          1           0       -2.405088   -0.088514   -0.077854
 ---------------------------------------------------------------------
                    Distance matrix (angstroms):
                    1          2          3          4          5
     1  C    0.000000
     2  O    1.350913   0.000000
     3  C    1.509475   2.369062   0.000000
     4  H    2.091070   2.677318   1.100723   0.000000
     5  H    2.123712   2.498299   1.092005   1.753764   0.000000
     6  N    2.434921   3.611553   1.451801   2.159443   2.106395
     7  H    2.473011   3.801223   2.034400   2.613852   2.915038
     8  H    3.289940   4.388258   2.049167   2.361613   2.575433
     9  O    1.202913   2.245650   2.412646   2.984301   3.177648
    10  H    1.880424   0.967818   3.198938   3.508689   3.421234
                    6          7          8          9         10
     6  N    0.000000
     7  H    1.012682   0.000000
     8  H    1.010072   1.642906   0.000000
     9  O    2.765318   2.352051   3.674521   0.000000
    10  H    4.299737   4.309861   5.141478   2.294600   0.000000
 Symmetry turned off by external request.
 Stoichiometry    C2H5NO2
 Framework group  C1[X(C2H5NO2)]
 Deg. of freedom    24
 Full point group                 C1      NOp   1
 Rotational constants (GHZ):          10.4489861           3.9571341           2.9518000
 Leave Link  202 at Tue Nov 28 15:47:33 2023, MaxMem=   134217728 cpu:               0.1 elap:               0.0
 (Enter /home/emanuele/chem_software/gaussian//gdv/l301.exe)
 Standard basis: VSTO-6G (5D, 7F)
 Ernie: Thresh=  0.10000D-02 Tol=  0.10000D-05 Strict=F.
  NNHCO=     0 NNPyr=     0 NCTC=     0               EPep=         0.000000000
    EC=        84.002832998  ECS=         2.253874644   EG=         0.126211539
   EHC=         0.001112369  EAt=       -38.066560349  AtH=         1.329713788
 EPDDG=         0.000000000  ECC=        86.384031549 EAtT=        39.396274136
    25 basis functions,   150 primitive gaussians,    25 cartesian basis functions
    15 alpha electrons       15 beta electrons
       nuclear repulsion energy       125.7803056858 Hartrees.
 IExCor=       0 DFT=F Ex=HF Corr=None N6=None ScaHFX=  1.000000
 ScaDFX=  1.000000  1.000000  1.000000  1.000000  1.000000  0.000000
 ScaDFX=  0.000000  0.000000  0.000000  0.000000  0.000000  0.000000
 IRadAn=      5 IRanWt=     -1 IRanGd=            0 ICorTp=0 IEmpDi=  4
 Integral buffers will be    131072 words long.
 Regular integral format.
 Two-electron integral symmetry is turned off.
 Leave Link  301 at Tue Nov 28 15:47:33 2023, MaxMem=   134217728 cpu:               0.2 elap:               0.1
 (Enter /home/emanuele/chem_software/gaussian//gdv/l302.exe)
 Do NDO integrals.
 NPDir=0 NMtPBC=     1 NCelOv=     1 NCel=       1 NClECP=     1 NCelD=      1
         NCelK=      1 NCelE2=     1 NClLst=     1 CellRange=     0.0.
 One-electron integrals computed using PRISM.
 NBasis=    25 RedAO= F EigKep=  0.00D+00  NBF=    25
 NBsUse=    25 1.00D-04 EigRej=  0.00D+00 NBFU=    25
 Leave Link  302 at Tue Nov 28 15:47:33 2023, MaxMem=   134217728 cpu:               0.3 elap:               0.1
 (Enter /home/emanuele/chem_software/gaussian//gdv/l303.exe)
 DipDrv:  MaxL=1.
 Leave Link  303 at Tue Nov 28 15:47:33 2023, MaxMem=   134217728 cpu:               0.2 elap:               0.0
 (Enter /home/emanuele/chem_software/gaussian//gdv/l401.exe)
 Simple Huckel Guess.
 JPrj=0 DoOrth=F DoCkMO=F.
 Leave Link  401 at Tue Nov 28 15:47:33 2023, MaxMem=   134217728 cpu:               0.1 elap:               0.0
 (Enter /home/emanuele/chem_software/gaussian//gdv/l502.exe)
 Keep J ints in memory in canonical form, NReq=861126.
 FoFCou: FMM=F IPFlag=           0 FMFlag=           0 FMFlg1=           0
         NFxFlg=           0 DoJE=F BraDBF=F KetDBF=F FulRan=T
         wScrn=  0.000000 ICntrl=       600 IOpCl=  2 I1Cent=           0 NGrid=           0
         NMat0=    1 NMatS0=     55 NMatT0=    0 NMatD0=    1 NMtDS0=    0 NMtDT0=    0
 Symmetry not used in FoFCou.
 Two-electron integral symmetry not used.
 Closed shell SCF:
 Using DIIS extrapolation, IDIIS=  1040.
 Overlap will be assumed to be unity.
 NGot=   134217728 LenX=   134155015 LenY=   134153949
 Requested convergence on RMS density matrix=1.00D-08 within 128 cycles.
 Requested convergence on MAX density matrix=1.00D-06.
 Requested convergence on             energy=1.00D-06.
 No special actions if energy rises.

 Cycle   1  Pass 1  IDiag  1:
 E= 0.171768323968593    
 DIIS: error= 5.87D-02 at cycle   1 NSaved=   1.
 NSaved= 1 IEnMin= 1 EnMin= 0.171768323968593     IErMin= 1 ErrMin= 5.87D-02
 ErrMax= 5.87D-02  0.00D+00 EMaxC= 1.00D-01 BMatC= 8.86D-02 BMatP= 8.86D-02
 IDIUse=3 WtCom= 4.13D-01 WtEn= 5.87D-01
 Coeff-Com:  0.100D+01
 Coeff-En:   0.100D+01
 Coeff:      0.100D+01
 GapD=    2.000 DampG=2.000 DampE=0.500 DampFc=1.0000 IDamp=-1.
 RMSDP=1.97D-02 MaxDP=1.61D-01              OVMax= 0.00D+00

 Cycle   2  Pass 1  IDiag  1:
 E=-0.907243624587153E-01 Delta-E=       -0.262492686427 Rises=F Damp=F
 DIIS: error= 1.89D-02 at cycle   2 NSaved=   2.
 NSaved= 2 IEnMin= 2 EnMin=-0.907243624587153E-01 IErMin= 2 ErrMin= 1.89D-02
 ErrMax= 1.89D-02  0.00D+00 EMaxC= 1.00D-01 BMatC= 1.04D-02 BMatP= 8.86D-02
 IDIUse=3 WtCom= 8.11D-01 WtEn= 1.89D-01
 Coeff-Com: -0.330D+00 0.133D+01
 Coeff-En:   0.000D+00 0.100D+01
 Coeff:     -0.268D+00 0.127D+01
 RMSDP=9.09D-03 MaxDP=5.88D-02 DE=-2.62D-01 OVMax= 0.00D+00

 Cycle   3  Pass 1  IDiag  3:
 E=-0.131686604490383     Delta-E=       -0.040962242032 Rises=F Damp=F
 DIIS: error= 5.72D-03 at cycle   3 NSaved=   3.
 NSaved= 3 IEnMin= 3 EnMin=-0.131686604490383     IErMin= 3 ErrMin= 5.72D-03
 ErrMax= 5.72D-03  0.00D+00 EMaxC= 1.00D-01 BMatC= 9.51D-04 BMatP= 1.04D-02
 IDIUse=3 WtCom= 9.43D-01 WtEn= 5.72D-02
 Coeff-Com:  0.114D+00-0.663D+00 0.155D+01
 Coeff-En:   0.000D+00 0.000D+00 0.100D+01
 Coeff:      0.108D+00-0.625D+00 0.152D+01
 Gap=     0.372 Goal=   None    Shift=    0.000
 RMSDP=4.00D-03 MaxDP=3.01D-02 DE=-4.10D-02 OVMax= 2.54D-02

 Cycle   4  Pass 1  IDiag  3:
 E=-0.136696101732383     Delta-E=       -0.005009497242 Rises=F Damp=F
 DIIS: error= 1.40D-03 at cycle   4 NSaved=   4.
 NSaved= 4 IEnMin= 4 EnMin=-0.136696101732383     IErMin= 4 ErrMin= 1.40D-03
 ErrMax= 1.40D-03  0.00D+00 EMaxC= 1.00D-01 BMatC= 4.28D-05 BMatP= 9.51D-04
 IDIUse=3 WtCom= 9.86D-01 WtEn= 1.40D-02
 Coeff-Com: -0.400D-01 0.258D+00-0.755D+00 0.154D+01
 Coeff-En:   0.000D+00 0.000D+00 0.000D+00 0.100D+01
 Coeff:     -0.394D-01 0.254D+00-0.745D+00 0.153D+01
 Gap=     0.372 Goal=   None    Shift=    0.000
 RMSDP=1.04D-03 MaxDP=9.03D-03 DE=-5.01D-03 OVMax= 7.57D-03

 Cycle   5  Pass 1  IDiag  3:
 E=-0.136963559301549     Delta-E=       -0.000267457569 Rises=F Damp=F
 DIIS: error= 1.91D-04 at cycle   5 NSaved=   5.
 NSaved= 5 IEnMin= 5 EnMin=-0.136963559301549     IErMin= 5 ErrMin= 1.91D-04
 ErrMax= 1.91D-04  0.00D+00 EMaxC= 1.00D-01 BMatC= 1.66D-06 BMatP= 4.28D-05
 IDIUse=3 WtCom= 9.98D-01 WtEn= 1.91D-03
 Coeff-Com:  0.842D-02-0.624D-01 0.208D+00-0.597D+00 0.144D+01
 Coeff-En:   0.000D+00 0.000D+00 0.000D+00 0.000D+00 0.100D+01
 Coeff:      0.840D-02-0.622D-01 0.208D+00-0.596D+00 0.144D+01
 Gap=     0.372 Goal=   None    Shift=    0.000
 RMSDP=2.12D-04 MaxDP=1.77D-03 DE=-2.67D-04 OVMax= 1.33D-03

 Cycle   6  Pass 1  IDiag  3:
 E=-0.136973636601908     Delta-E=       -0.000010077300 Rises=F Damp=F
 DIIS: error= 3.70D-05 at cycle   6 NSaved=   6.
 NSaved= 6 IEnMin= 6 EnMin=-0.136973636601908     IErMin= 6 ErrMin= 3.70D-05
 ErrMax= 3.70D-05  0.00D+00 EMaxC= 1.00D-01 BMatC= 5.72D-08 BMatP= 1.66D-06
 IDIUse=1 WtCom= 1.00D+00 WtEn= 0.00D+00
 Coeff-Com: -0.207D-02 0.176D-01-0.620D-01 0.206D+00-0.642D+00 0.148D+01
 Coeff:     -0.207D-02 0.176D-01-0.620D-01 0.206D+00-0.642D+00 0.148D+01
 Gap=     0.372 Goal=   None    Shift=    0.000
 RMSDP=3.64D-05 MaxDP=2.48D-04 DE=-1.01D-05 OVMax= 2.53D-04

 Cycle   7  Pass 1  IDiag  3:
 E=-0.136973965269405     Delta-E=       -0.000000328667 Rises=F Damp=F
 DIIS: error= 5.99D-06 at cycle   7 NSaved=   7.
 NSaved= 7 IEnMin= 7 EnMin=-0.136973965269405     IErMin= 7 ErrMin= 5.99D-06
 ErrMax= 5.99D-06  0.00D+00 EMaxC= 1.00D-01 BMatC= 2.51D-09 BMatP= 5.72D-08
 IDIUse=1 WtCom= 1.00D+00 WtEn= 0.00D+00
 Coeff-Com:  0.699D-03-0.607D-02 0.203D-01-0.682D-01 0.223D+00-0.593D+00
 Coeff-Com:  0.142D+01
 Coeff:      0.699D-03-0.607D-02 0.203D-01-0.682D-01 0.223D+00-0.593D+00
 Coeff:      0.142D+01
 Gap=     0.372 Goal=   None    Shift=    0.000
 RMSDP=8.01D-06 MaxDP=5.07D-05 DE=-3.29D-07 OVMax= 6.55D-05

 Cycle   8  Pass 1  IDiag  3:
 E=-0.136973981683084     Delta-E=       -0.000000016414 Rises=F Damp=F
 DIIS: error= 2.82D-06 at cycle   8 NSaved=   8.
 NSaved= 8 IEnMin= 8 EnMin=-0.136973981683084     IErMin= 8 ErrMin= 2.82D-06
 ErrMax= 2.82D-06  0.00D+00 EMaxC= 1.00D-01 BMatC= 2.98D-10 BMatP= 2.51D-09
 IDIUse=1 WtCom= 1.00D+00 WtEn= 0.00D+00
 Coeff-Com: -0.111D-03 0.111D-02-0.319D-02 0.121D-01-0.468D-01 0.147D+00
 Coeff-Com: -0.696D+00 0.159D+01
 Coeff:     -0.111D-03 0.111D-02-0.319D-02 0.121D-01-0.468D-01 0.147D+00
 Coeff:     -0.696D+00 0.159D+01
 Gap=     0.372 Goal=   None    Shift=    0.000
 RMSDP=3.21D-06 MaxDP=1.72D-05 DE=-1.64D-08 OVMax= 1.97D-05

 Cycle   9  Pass 1  IDiag  3:
 E=-0.136973983708913     Delta-E=       -0.000000002026 Rises=F Damp=F
 DIIS: error= 6.46D-07 at cycle   9 NSaved=   9.
 NSaved= 9 IEnMin= 9 EnMin=-0.136973983708913     IErMin= 9 ErrMin= 6.46D-07
 ErrMax= 6.46D-07  0.00D+00 EMaxC= 1.00D-01 BMatC= 1.61D-11 BMatP= 2.98D-10
 IDIUse=1 WtCom= 1.00D+00 WtEn= 0.00D+00
 Coeff-Com: -0.274D-06-0.722D-04-0.551D-04-0.350D-03 0.401D-02-0.184D-01
 Coeff-Com:  0.170D+00-0.565D+00 0.141D+01
 Coeff:     -0.274D-06-0.722D-04-0.551D-04-0.350D-03 0.401D-02-0.184D-01
 Coeff:      0.170D+00-0.565D+00 0.141D+01
 Gap=     0.372 Goal=   None    Shift=    0.000
 RMSDP=6.23D-07 MaxDP=3.84D-06 DE=-2.03D-09 OVMax= 3.31D-06

 Cycle  10  Pass 1  IDiag  3:
 E=-0.136973983799180     Delta-E=       -0.000000000090 Rises=F Damp=F
 DIIS: error= 1.49D-07 at cycle  10 NSaved=  10.
 NSaved=10 IEnMin=10 EnMin=-0.136973983799180     IErMin=10 ErrMin= 1.49D-07
 ErrMax= 1.49D-07  0.00D+00 EMaxC= 1.00D-01 BMatC= 1.06D-12 BMatP= 1.61D-11
 IDIUse=1 WtCom= 1.00D+00 WtEn= 0.00D+00
 Coeff-Com:  0.607D-05-0.280D-04 0.163D-03-0.381D-03 0.520D-03 0.145D-03
 Coeff-Com: -0.175D-01 0.762D-01-0.426D+00 0.137D+01
 Coeff:      0.607D-05-0.280D-04 0.163D-03-0.381D-03 0.520D-03 0.145D-03
 Coeff:     -0.175D-01 0.762D-01-0.426D+00 0.137D+01
 Gap=     0.372 Goal=   None    Shift=    0.000
 RMSDP=1.63D-07 MaxDP=1.11D-06 DE=-9.03D-11 OVMax= 8.46D-07

 Cycle  11  Pass 1  IDiag  3:
 E=-0.136973983805575     Delta-E=       -0.000000000006 Rises=F Damp=F
 DIIS: error= 4.05D-08 at cycle  11 NSaved=  11.
 NSaved=11 IEnMin=11 EnMin=-0.136973983805575     IErMin=11 ErrMin= 4.05D-08
 ErrMax= 4.05D-08  0.00D+00 EMaxC= 1.00D-01 BMatC= 8.06D-14 BMatP= 1.06D-12
 IDIUse=1 WtCom= 1.00D+00 WtEn= 0.00D+00
 Coeff-Com: -0.131D-05 0.896D-05-0.282D-04 0.921D-04-0.355D-03 0.116D-02
 Coeff-Com: -0.918D-02 0.286D-01 0.130D-01-0.454D+00 0.142D+01
 Coeff:     -0.131D-05 0.896D-05-0.282D-04 0.921D-04-0.355D-03 0.116D-02
 Coeff:     -0.918D-02 0.286D-01 0.130D-01-0.454D+00 0.142D+01
 Gap=     0.372 Goal=   None    Shift=    0.000
 RMSDP=4.85D-08 MaxDP=2.87D-07 DE=-6.39D-12 OVMax= 3.58D-07

 Cycle  12  Pass 1  IDiag  3:
 E=-0.136973983806030     Delta-E=       -0.000000000000 Rises=F Damp=F
 DIIS: error= 9.46D-09 at cycle  12 NSaved=  12.
 NSaved=12 IEnMin=12 EnMin=-0.136973983806030     IErMin=12 ErrMin= 9.46D-09
 ErrMax= 9.46D-09  0.00D+00 EMaxC= 1.00D-01 BMatC= 5.27D-15 BMatP= 8.06D-14
 IDIUse=1 WtCom= 1.00D+00 WtEn= 0.00D+00
 Coeff-Com:  0.184D-06-0.112D-05 0.111D-05-0.665D-05 0.719D-04-0.344D-03
 Coeff-Com:  0.455D-02-0.166D-01 0.736D-02 0.197D+00-0.845D+00 0.165D+01
 Coeff:      0.184D-06-0.112D-05 0.111D-05-0.665D-05 0.719D-04-0.344D-03
 Coeff:      0.455D-02-0.166D-01 0.736D-02 0.197D+00-0.845D+00 0.165D+01
 Gap=     0.372 Goal=   None    Shift=    0.000
 RMSDP=1.45D-08 MaxDP=8.88D-08 DE=-4.55D-13 OVMax= 1.01D-07

 Cycle  13  Pass 1  IDiag  3:
 E=-0.136973983806101     Delta-E=       -0.000000000000 Rises=F Damp=F
 DIIS: error= 1.67D-09 at cycle  13 NSaved=  13.
 NSaved=13 IEnMin=13 EnMin=-0.136973983806101     IErMin=13 ErrMin= 1.67D-09
 ErrMax= 1.67D-09  0.00D+00 EMaxC= 1.00D-01 BMatC= 1.79D-16 BMatP= 5.27D-15
 IDIUse=1 WtCom= 1.00D+00 WtEn= 0.00D+00
 Coeff-Com:  0.881D-08-0.179D-06 0.222D-05-0.531D-05-0.960D-05 0.107D-03
 Coeff-Com: -0.209D-02 0.799D-02-0.547D-02-0.862D-01 0.398D+00-0.885D+00
 Coeff-Com:  0.157D+01
 Coeff:      0.881D-08-0.179D-06 0.222D-05-0.531D-05-0.960D-05 0.107D-03
 Coeff:     -0.209D-02 0.799D-02-0.547D-02-0.862D-01 0.398D+00-0.885D+00
 Coeff:      0.157D+01
 Gap=     0.372 Goal=   None    Shift=    0.000
 RMSDP=2.50D-09 MaxDP=1.75D-08 DE=-7.11D-14 OVMax= 2.13D-08

 Cycle  14  Pass 2  IDiag  1:
 SCF Done:  E(RPM6) = -0.136973983806     A.U. after   14 cycles
            NFock= 13  Conv=0.25D-08     -V/T= 0.9979
 KE=-6.559711597378D+01 PE=-1.647720729518D+02 EE= 1.044519092559D+02
 Leave Link  502 at Tue Nov 28 15:47:33 2023, MaxMem=   134217728 cpu:               0.2 elap:               0.1
 (Enter /home/emanuele/chem_software/gaussian//gdv/l601.exe)
 Copying SCF densities to generalized density rwf, IOpCl= 0 IROHF=0.

 **********************************************************************

            Population analysis using the SCF Density.

 **********************************************************************

 Alpha  occ. eigenvalues --       -1.22033      -1.17650      -1.15177      -0.96585      -0.79048
 Alpha  occ. eigenvalues --       -0.69293      -0.65535      -0.63929      -0.58072      -0.56742
 Alpha  occ. eigenvalues --       -0.53691      -0.50561      -0.46483      -0.42332      -0.36139
 Alpha virt. eigenvalues --        0.01043       0.05109       0.09137       0.11428       0.13931
 Alpha virt. eigenvalues --        0.16361       0.16810       0.19059       0.21211       0.24502
          Condensed to atoms (all electrons):
               1          2          3          4          5          6
     1  C    3.389636   0.000000   0.000000   0.000000   0.000000   0.000000
     2  O    0.000000   6.491501   0.000000   0.000000   0.000000   0.000000
     3  C    0.000000   0.000000   4.256520   0.000000   0.000000   0.000000
     4  H    0.000000   0.000000   0.000000   0.847919   0.000000   0.000000
     5  H    0.000000   0.000000   0.000000   0.000000   0.808674   0.000000
     6  N    0.000000   0.000000   0.000000   0.000000   0.000000   5.485381
     7  H    0.000000   0.000000   0.000000   0.000000   0.000000   0.000000
     8  H    0.000000   0.000000   0.000000   0.000000   0.000000   0.000000
     9  O    0.000000   0.000000   0.000000   0.000000   0.000000   0.000000
    10  H    0.000000   0.000000   0.000000   0.000000   0.000000   0.000000
               7          8          9         10
     1  C    0.000000   0.000000   0.000000   0.000000
     2  O    0.000000   0.000000   0.000000   0.000000
     3  C    0.000000   0.000000   0.000000   0.000000
     4  H    0.000000   0.000000   0.000000   0.000000
     5  H    0.000000   0.000000   0.000000   0.000000
     6  N    0.000000   0.000000   0.000000   0.000000
     7  H    0.770909   0.000000   0.000000   0.000000
     8  H    0.000000   0.782627   0.000000   0.000000
     9  O    0.000000   0.000000   6.501898   0.000000
    10  H    0.000000   0.000000   0.000000   0.664933
 Mulliken charges:
               1
     1  C    0.610364
     2  O   -0.491501
     3  C   -0.256520
     4  H    0.152081
     5  H    0.191326
     6  N   -0.485381
     7  H    0.229091
     8  H    0.217373
     9  O   -0.501898
    10  H    0.335067
 Sum of Mulliken charges =  -0.00000
 Mulliken charges with hydrogens summed into heavy atoms:
               1
     1  C    0.610364
     2  O   -0.156434
     3  C    0.086886
     6  N   -0.038918
     9  O   -0.501898
 Charge=             -0.0000 electrons
 Dipole moment (field-independent basis, Debye):
    X=             -0.0442    Y=             -1.7562    Z=              2.0287  Tot=              2.6836
 N-N= 1.257803056858D+02 E-N=-1.647720729272D+02  KE=-6.559711597378D+01
 Leave Link  601 at Tue Nov 28 15:47:33 2023, MaxMem=   134217728 cpu:               0.2 elap:               0.0
 (Enter /home/emanuele/chem_software/gaussian//gdv/l701.exe)
 ... and contract with generalized density number  0.
 Compute integral first derivatives.
 Leave Link  701 at Tue Nov 28 15:47:33 2023, MaxMem=   134217728 cpu:               0.2 elap:               0.1
 (Enter /home/emanuele/chem_software/gaussian//gdv/l702.exe)
 L702 exits ... SP integral derivatives will be done elsewhere.
 Leave Link  702 at Tue Nov 28 15:47:33 2023, MaxMem=   134217728 cpu:               0.1 elap:               0.0
 (Enter /home/emanuele/chem_software/gaussian//gdv/l703.exe)
 Integral derivatives from FoFJK, PRISM(SPDF).
 Compute integral first derivatives, UseDBF=F ICtDFT=           0.
 Calling FoFJK, ICntrl=      2127 FMM=F ISym2X=0 I1Cent= 0 IOpClX= 0 NMat=1 NMatS=1 NMatT=0.
 FoFJK:  IHMeth=40 ICntrl=    2127 DoSepK=F KAlg= 0 I1Cent=           0 FoldK=F
 IRaf=         0 NMat=       1 IRICut=       1 DoRegI=T DoRafI=F ISym2E= 0 IDoP0=3 IntGTp=3.
 FoFCou: FMM=F IPFlag=           0 FMFlag=      100000 FMFlg1=         800
         NFxFlg=           0 DoJE=F BraDBF=F KetDBF=F FulRan=T
         wScrn=  0.000000 ICntrl=      2127 IOpCl=  0 I1Cent=           0 NGrid=           0
         NMat0=    1 NMatS0=      1 NMatT0=    0 NMatD0=    1 NMtDS0=    0 NMtDT0=    0
 Symmetry not used in FoFCou.
 Leave Link  703 at Tue Nov 28 15:47:33 2023, MaxMem=   134217728 cpu:               0.2 elap:               0.0
 (Enter /home/emanuele/chem_software/gaussian//gdv/l716.exe)
 Dipole        =-1.73953341D-02-6.90951364D-01 7.98140051D-01
 -------------------------------------------------------------------
 Center     Atomic                   Forces (Hartrees/Bohr)
 Number     Number              X              Y              Z
 -------------------------------------------------------------------
      1        6           0.029519480    0.004598071   -0.001501695
      2        8          -0.002629323   -0.006351354    0.000288808
      3        6          -0.021332520   -0.010188111    0.011815132
      4        1           0.002225947   -0.007671509    0.009764009
      5        1           0.003016531   -0.011675785   -0.010628727
      6        7           0.018023015    0.011316189   -0.011554417
      7        1           0.003069768    0.006682372    0.000517805
      8        1           0.002494252   -0.001031591    0.002148452
      9        8          -0.009778131    0.012789983    0.001092432
     10        1          -0.024609020    0.001531735   -0.001941798
 -------------------------------------------------------------------
 Cartesian Forces:  Max     0.029519480 RMS     0.010928384
 Leave Link  716 at Tue Nov 28 15:47:33 2023, MaxMem=   134217728 cpu:               0.1 elap:               0.0
 (Enter /home/emanuele/chem_software/gaussian//gdv/l103.exe)

 GradGradGradGradGradGradGradGradGradGradGradGradGradGradGradGradGradGrad
 Berny optimization.
 FormGI is forming the generalized inverse of G from B-inverse, IUseBI=4.
 Internal  Forces:  Max     0.030263752 RMS     0.010202630
 Search for a local minimum.
 Step number   1 out of a maximum of  100 on scan point     1 out of    11
 All quantities printed in internal units (Hartrees-Bohrs-Radians)
 RMS Force = .10347D-01 SwitMx=.10000D-02 MixMth= 1
 Mixed Optimization -- RFO/linear search
 Second derivative matrix not updated -- first step.
 ITU=  0
     Eigenvalues ---    0.00871   0.01007   0.02341   0.04206   0.04505
     Eigenvalues ---    0.05865   0.08805   0.12976   0.16000   0.16000
     Eigenvalues ---    0.16000   0.21867   0.24991   0.25000   0.31403
     Eigenvalues ---    0.33602   0.34582   0.38010   0.45526   0.45961
     Eigenvalues ---    0.53825   0.54828   1.033731000.000001000.00000
     Eigenvalues --- 1000.000001000.000001000.000001000.000001000.00000
     Eigenvalues --- 1000.000001000.000001000.000001000.000001000.00000
     Eigenvalues --- 1000.00000
 RFO step:  Lambda=-1.19594603D-02 EMin= 8.71369894D-03
 Linear search not attempted -- first point.
 Iteration  1 RMS(Cart)=  0.07147272 RMS(Int)=  0.00346251
 Iteration  2 RMS(Cart)=  0.00338683 RMS(Int)=  0.00019044
 Iteration  3 RMS(Cart)=  0.00001625 RMS(Int)=  0.00019006
 Iteration  4 RMS(Cart)=  0.00000000 RMS(Int)=  0.00019006
 Fixing frozen coordinates.
 Iteration  1 RMS(Cart)=  0.00002524 RMS(Int)=  0.00002363
 Iteration  2 RMS(Cart)=  0.00001371 RMS(Int)=  0.00002639
 Iteration  3 RMS(Cart)=  0.00000745 RMS(Int)=  0.00002980
 Iteration  4 RMS(Cart)=  0.00000405 RMS(Int)=  0.00003203
 Iteration  5 RMS(Cart)=  0.00000220 RMS(Int)=  0.00003334
 Iteration  6 RMS(Cart)=  0.00000119 RMS(Int)=  0.00003407
 Iteration  7 RMS(Cart)=  0.00000065 RMS(Int)=  0.00003447
 ITry= 1 IFail=0 DXMaxC= 2.26D-01 DCOld= 1.00D+10 DXMaxT= 3.00D-01 DXLimC= 3.00D+00 Rises=F
 Variable       Old X    -DE/DX   Delta X   Delta X   Delta X     New X
                                 (Linear)    (Quad)   (Total)
    R1        2.55286   0.02505   0.00000   0.04472   0.04472   2.59758
    R2        2.85250   0.01324   0.00000   0.04061   0.04061   2.89311
    R3        2.27318   0.01321   0.00000   0.01263   0.01263   2.28581
    R4        1.82891   0.02050   0.00000   0.03725   0.03725   1.86616
    R5        2.08006   0.01200   0.00000   0.03447   0.03447   2.11454
    R6        2.06359   0.01550   0.00000   0.04333   0.04333   2.10692
    R7        2.74351   0.03026   0.00000   0.07719   0.07719   2.82070
    R8        1.91369   0.00597   0.00000   0.01278   0.01278   1.92647
    R9        1.90876   0.00335   0.00000   0.00711   0.00711   1.91587
    A1        1.94980  -0.00359   0.00000  -0.01387  -0.01392   1.93588
    A2        2.14707  -0.00860   0.00000  -0.03306  -0.03309   2.11398
    A3        2.18583   0.01219   0.00000   0.04637   0.04631   2.23214
    A4        1.87144   0.02526   0.00000   0.14690   0.14690   2.01835
    A5        1.83958   0.00243   0.00000   0.03377   0.03337   1.87296
    A6        1.89148   0.00261   0.00000   0.01318   0.01304   1.90451
    A7        1.93046   0.00003   0.00000   0.00432   0.00401   1.93447
    A8        1.85394  -0.00055   0.00000  -0.01200  -0.01230   1.84164
    A9        2.00477   0.00048   0.00000   0.01132   0.01070   2.01547
   A10        1.93745  -0.00453   0.00000  -0.04681  -0.04686   1.89059
   A11        1.91981   0.00706   0.00000   0.04371   0.04364   1.96345
   A12        1.94466  -0.00170   0.00000  -0.00730  -0.00737   1.93729
   A13        1.89587  -0.00228   0.00000  -0.00829  -0.00841   1.88746
    D1        3.09264   0.00086   0.00000   0.01334   0.01379   3.10643
    D2       -0.01720   0.00071   0.00000   0.03088   0.03044   0.01323
    D3       -1.25365  -0.00021   0.00000   0.00000   0.00000  -1.25365
    D4        0.72522   0.00150   0.00000   0.00837   0.00854   0.73376
    D5        2.85281  -0.00239   0.00000  -0.03831  -0.03850   2.81431
    D6        1.85534  -0.00051   0.00000  -0.01977  -0.01990   1.83544
    D7       -2.44897   0.00119   0.00000  -0.01140  -0.01136  -2.46034
    D8       -0.32138  -0.00270   0.00000  -0.05809  -0.05840  -0.37979
    D9        0.60481   0.00046   0.00000   0.00462   0.00455   0.60936
   D10        2.70830   0.00122   0.00000   0.01870   0.01869   2.72699
   D11       -1.47459  -0.00306   0.00000  -0.05026  -0.05025  -1.52484
   D12        0.62890  -0.00230   0.00000  -0.03618  -0.03610   0.59280
   D13        2.70515   0.00077   0.00000  -0.00684  -0.00688   2.69827
   D14       -1.47455   0.00153   0.00000   0.00724   0.00726  -1.46729
         Item               Value     Threshold  Converged?
 Maximum Force            0.030264     0.000450     NO 
 RMS     Force            0.010347     0.000300     NO 
 Maximum Displacement     0.226322     0.001800     NO 
 RMS     Displacement     0.071886     0.001200     NO 
 Predicted change in Energy=-6.318703D-03
 Lowest energy point so far.  Saving SCF results.
 GradGradGradGradGradGradGradGradGradGradGradGradGradGradGradGradGradGrad

 Leave Link  103 at Tue Nov 28 15:47:33 2023, MaxMem=   134217728 cpu:               0.1 elap:               0.0
 (Enter /home/emanuele/chem_software/gaussian//gdv/l202.exe)
                          Input orientation:                          
 ---------------------------------------------------------------------
 Center     Atomic      Atomic             Coordinates (Angstroms)
 Number     Number       Type             X           Y           Z
 ---------------------------------------------------------------------
      1          6           0       -0.544933    0.143086    0.028596
      2          8           0       -1.662896   -0.649211   -0.080437
      3          6           0        0.721929   -0.710344    0.131444
      4          1           0        0.722646   -1.184476    1.144993
      5          1           0        0.653032   -1.555056   -0.592977
      6          7           0        1.933468    0.095550   -0.201287
      7          1           0        1.855598    1.063374    0.109389
      8          1           0        2.763659   -0.305538    0.220343
      9          8           0       -0.635626    1.347957    0.085059
     10          1           0       -2.524852   -0.168929   -0.120172
 ---------------------------------------------------------------------
                    Distance matrix (angstroms):
                    1          2          3          4          5
     1  C    0.000000
     2  O    1.374579   0.000000
     3  C    1.530966   2.395000   0.000000
     4  H    2.148375   2.734776   1.118965   0.000000
     5  H    2.169138   2.539050   1.114931   1.778403   0.000000
     6  N    2.489493   3.674658   1.492649   2.217437   2.125427
     7  H    2.572159   3.917752   2.105176   2.721926   2.965748
     8  H    3.344370   4.450053   2.083370   2.406916   2.584092
     9  O    1.209598   2.251967   2.466112   3.062936   3.247747
    10  H    2.009868   0.987531   3.301216   3.630182   3.499120
                    6          7          8          9         10
     6  N    0.000000
     7  H    1.019444   0.000000
     8  H    1.013835   1.646452   0.000000
     9  O    2.872414   2.507544   3.782524   0.000000
    10  H    4.466895   4.556272   5.301223   2.431510   0.000000
 Symmetry turned off by external request.
 Stoichiometry    C2H5NO2
 Framework group  C1[X(C2H5NO2)]
 Deg. of freedom    24
 Full point group                 C1      NOp   1
 Rotational constants (GHZ):          10.1280874           3.7733598           2.8327484
 Leave Link  202 at Tue Nov 28 15:47:33 2023, MaxMem=   134217728 cpu:               0.1 elap:               0.0
 (Enter /home/emanuele/chem_software/gaussian//gdv/l301.exe)
 Standard basis: VSTO-6G (5D, 7F)
 Ernie: Thresh=  0.10000D-02 Tol=  0.10000D-05 Strict=F.
  NNHCO=     0 NNPyr=     0 NCTC=     0               EPep=         0.000000000
    EC=        82.764366473  ECS=         2.132587501   EG=         0.120852450
   EHC=         0.000970240  EAt=       -38.066560349  AtH=         1.329713788
 EPDDG=         0.000000000  ECC=        85.018776664 EAtT=        39.396274136
    25 basis functions,   150 primitive gaussians,    25 cartesian basis functions
    15 alpha electrons       15 beta electrons
       nuclear repulsion energy       124.4150508008 Hartrees.
 IExCor=       0 DFT=F Ex=HF Corr=None N6=None ScaHFX=  1.000000
 ScaDFX=  1.000000  1.000000  1.000000  1.000000  1.000000  0.000000
 ScaDFX=  0.000000  0.000000  0.000000  0.000000  0.000000  0.000000
 IRadAn=      5 IRanWt=     -1 IRanGd=            0 ICorTp=0 IEmpDi=  4
 Integral buffers will be    131072 words long.
 Regular integral format.
 Two-electron integral symmetry is turned off.
 Leave Link  301 at Tue Nov 28 15:47:33 2023, MaxMem=   134217728 cpu:               0.2 elap:               0.1
 (Enter /home/emanuele/chem_software/gaussian//gdv/l302.exe)
 Do NDO integrals.
 NPDir=0 NMtPBC=     1 NCelOv=     1 NCel=       1 NClECP=     1 NCelD=      1
         NCelK=      1 NCelE2=     1 NClLst=     1 CellRange=     0.0.
 One-electron integrals computed using PRISM.
 NBasis=    25 RedAO= F EigKep=  0.00D+00  NBF=    25
 NBsUse=    25 1.00D-04 EigRej=  0.00D+00 NBFU=    25
 Leave Link  302 at Tue Nov 28 15:47:34 2023, MaxMem=   134217728 cpu:               0.3 elap:               0.1
 (Enter /home/emanuele/chem_software/gaussian//gdv/l303.exe)
 DipDrv:  MaxL=1.
 Leave Link  303 at Tue Nov 28 15:47:34 2023, MaxMem=   134217728 cpu:               0.2 elap:               0.0
 (Enter /home/emanuele/chem_software/gaussian//gdv/l401.exe)
 Initial guess from the checkpoint file:  "0_qm.chk"
 B after Tr=     0.000000    0.000000    0.000000
         Rot=    1.000000    0.000000    0.000000    0.000000 Ang=   0.00 deg.
 AO Guess basis will be translated and rotated to current coordinates.
 JPrj=0 DoOrth=T DoCkMO=T.
 Leave Link  401 at Tue Nov 28 15:47:34 2023, MaxMem=   134217728 cpu:               0.8 elap:               0.2
 (Enter /home/emanuele/chem_software/gaussian//gdv/l502.exe)
 Keep J ints in memory in canonical form, NReq=861126.
 FoFCou: FMM=F IPFlag=           0 FMFlag=           0 FMFlg1=           0
         NFxFlg=           0 DoJE=F BraDBF=F KetDBF=F FulRan=T
         wScrn=  0.000000 ICntrl=       600 IOpCl=  2 I1Cent=           0 NGrid=           0
         NMat0=    1 NMatS0=     55 NMatT0=    0 NMatD0=    1 NMtDS0=    0 NMtDT0=    0
 Symmetry not used in FoFCou.
 Two-electron integral symmetry not used.
 Closed shell SCF:
 Using DIIS extrapolation, IDIIS=  1040.
 Overlap will be assumed to be unity.
 NGot=   134217728 LenX=   134155015 LenY=   134153949
 Requested convergence on RMS density matrix=1.00D-08 within 128 cycles.
 Requested convergence on MAX density matrix=1.00D-06.
 Requested convergence on             energy=1.00D-06.
 No special actions if energy rises.

 Cycle   1  Pass 1  IDiag  1:
 E=-0.134740931910059    
 DIIS: error= 7.33D-03 at cycle   1 NSaved=   1.
 NSaved= 1 IEnMin= 1 EnMin=-0.134740931910059     IErMin= 1 ErrMin= 7.33D-03
 ErrMax= 7.33D-03  0.00D+00 EMaxC= 1.00D-01 BMatC= 1.79D-03 BMatP= 1.79D-03
 IDIUse=3 WtCom= 9.27D-01 WtEn= 7.33D-02
 Coeff-Com:  0.100D+01
 Coeff-En:   0.100D+01
 Coeff:      0.100D+01
 GapD=    2.000 DampG=2.000 DampE=1.000 DampFc=2.0000 IDamp=-1.
 RMSDP=2.88D-03 MaxDP=1.94D-02              OVMax= 0.00D+00

 Cycle   2  Pass 1  IDiag  3:
 E=-0.140333751241613     Delta-E=       -0.005592819332 Rises=F Damp=F
 DIIS: error= 2.61D-03 at cycle   2 NSaved=   2.
 NSaved= 2 IEnMin= 2 EnMin=-0.140333751241613     IErMin= 2 ErrMin= 2.61D-03
 ErrMax= 2.61D-03  0.00D+00 EMaxC= 1.00D-01 BMatC= 2.17D-04 BMatP= 1.79D-03
 IDIUse=3 WtCom= 9.74D-01 WtEn= 2.61D-02
 Coeff-Com: -0.449D+00 0.145D+01
 Coeff-En:   0.000D+00 0.100D+01
 Coeff:     -0.438D+00 0.144D+01
 Gap=     0.376 Goal=   None    Shift=    0.000
 RMSDP=1.61D-03 MaxDP=1.15D-02 DE=-5.59D-03 OVMax= 9.51D-03

 Cycle   3  Pass 1  IDiag  3:
 E=-0.141273007589561     Delta-E=       -0.000939256348 Rises=F Damp=F
 DIIS: error= 3.48D-04 at cycle   3 NSaved=   3.
 NSaved= 3 IEnMin= 3 EnMin=-0.141273007589561     IErMin= 3 ErrMin= 3.48D-04
 ErrMax= 3.48D-04  0.00D+00 EMaxC= 1.00D-01 BMatC= 7.02D-06 BMatP= 2.17D-04
 IDIUse=3 WtCom= 9.97D-01 WtEn= 3.48D-03
 Coeff-Com:  0.149D+00-0.580D+00 0.143D+01
 Coeff-En:   0.000D+00 0.000D+00 0.100D+01
 Coeff:      0.149D+00-0.578D+00 0.143D+01
 Gap=     0.376 Goal=   None    Shift=    0.000
 RMSDP=3.68D-04 MaxDP=2.38D-03 DE=-9.39D-04 OVMax= 2.34D-03

 Cycle   4  Pass 1  IDiag  3:
 E=-0.141311728928784     Delta-E=       -0.000038721339 Rises=F Damp=F
 DIIS: error= 7.36D-05 at cycle   4 NSaved=   4.
 NSaved= 4 IEnMin= 4 EnMin=-0.141311728928784     IErMin= 4 ErrMin= 7.36D-05
 ErrMax= 7.36D-05  0.00D+00 EMaxC= 1.00D-01 BMatC= 3.16D-07 BMatP= 7.02D-06
 IDIUse=1 WtCom= 1.00D+00 WtEn= 0.00D+00
 Coeff-Com: -0.266D-01 0.117D+00-0.440D+00 0.135D+01
 Coeff:     -0.266D-01 0.117D+00-0.440D+00 0.135D+01
 Gap=     0.376 Goal=   None    Shift=    0.000
 RMSDP=8.46D-05 MaxDP=4.64D-04 DE=-3.87D-05 OVMax= 5.34D-04

 Cycle   5  Pass 1  IDiag  3:
 E=-0.141313772988553     Delta-E=       -0.000002044060 Rises=F Damp=F
 DIIS: error= 2.05D-05 at cycle   5 NSaved=   5.
 NSaved= 5 IEnMin= 5 EnMin=-0.141313772988553     IErMin= 5 ErrMin= 2.05D-05
 ErrMax= 2.05D-05  0.00D+00 EMaxC= 1.00D-01 BMatC= 3.13D-08 BMatP= 3.16D-07
 IDIUse=1 WtCom= 1.00D+00 WtEn= 0.00D+00
 Coeff-Com:  0.173D-02-0.120D-01 0.100D+00-0.661D+00 0.157D+01
 Coeff:      0.173D-02-0.120D-01 0.100D+00-0.661D+00 0.157D+01
 Gap=     0.376 Goal=   None    Shift=    0.000
 RMSDP=3.38D-05 MaxDP=1.84D-04 DE=-2.04D-06 OVMax= 2.68D-04

 Cycle   6  Pass 1  IDiag  3:
 E=-0.141314007347418     Delta-E=       -0.000000234359 Rises=F Damp=F
 DIIS: error= 5.68D-06 at cycle   6 NSaved=   6.
 NSaved= 6 IEnMin= 6 EnMin=-0.141314007347418     IErMin= 6 ErrMin= 5.68D-06
 ErrMax= 5.68D-06  0.00D+00 EMaxC= 1.00D-01 BMatC= 1.45D-09 BMatP= 3.13D-08
 IDIUse=1 WtCom= 1.00D+00 WtEn= 0.00D+00
 Coeff-Com:  0.501D-03 0.479D-03-0.338D-01 0.305D+00-0.886D+00 0.161D+01
 Coeff:      0.501D-03 0.479D-03-0.338D-01 0.305D+00-0.886D+00 0.161D+01
 Gap=     0.376 Goal=   None    Shift=    0.000
 RMSDP=7.51D-06 MaxDP=4.93D-05 DE=-2.34D-07 OVMax= 7.06D-05

 Cycle   7  Pass 1  IDiag  3:
 E=-0.141314018178406     Delta-E=       -0.000000010831 Rises=F Damp=F
 DIIS: error= 1.12D-06 at cycle   7 NSaved=   7.
 NSaved= 7 IEnMin= 7 EnMin=-0.141314018178406     IErMin= 7 ErrMin= 1.12D-06
 ErrMax= 1.12D-06  0.00D+00 EMaxC= 1.00D-01 BMatC= 5.98D-11 BMatP= 1.45D-09
 IDIUse=1 WtCom= 1.00D+00 WtEn= 0.00D+00
 Coeff-Com: -0.341D-03 0.704D-04 0.164D-01-0.155D+00 0.461D+00-0.955D+00
 Coeff-Com:  0.163D+01
 Coeff:     -0.341D-03 0.704D-04 0.164D-01-0.155D+00 0.461D+00-0.955D+00
 Coeff:      0.163D+01
 Gap=     0.376 Goal=   None    Shift=    0.000
 RMSDP=1.48D-06 MaxDP=1.01D-05 DE=-1.08D-08 OVMax= 1.49D-05

 Cycle   8  Pass 1  IDiag  3:
 E=-0.141314018615432     Delta-E=       -0.000000000437 Rises=F Damp=F
 DIIS: error= 1.94D-07 at cycle   8 NSaved=   8.
 NSaved= 8 IEnMin= 8 EnMin=-0.141314018615432     IErMin= 8 ErrMin= 1.94D-07
 ErrMax= 1.94D-07  0.00D+00 EMaxC= 1.00D-01 BMatC= 2.85D-12 BMatP= 5.98D-11
 IDIUse=1 WtCom= 1.00D+00 WtEn= 0.00D+00
 Coeff-Com:  0.130D-03 0.931D-04-0.824D-02 0.759D-01-0.227D+00 0.479D+00
 Coeff-Com: -0.945D+00 0.162D+01
 Coeff:      0.130D-03 0.931D-04-0.824D-02 0.759D-01-0.227D+00 0.479D+00
 Coeff:     -0.945D+00 0.162D+01
 Gap=     0.376 Goal=   None    Shift=    0.000
 RMSDP=3.17D-07 MaxDP=1.89D-06 DE=-4.37D-10 OVMax= 2.89D-06

 Cycle   9  Pass 1  IDiag  3:
 E=-0.141314018636223     Delta-E=       -0.000000000021 Rises=F Damp=F
 DIIS: error= 3.87D-08 at cycle   9 NSaved=   9.
 NSaved= 9 IEnMin= 9 EnMin=-0.141314018636223     IErMin= 9 ErrMin= 3.87D-08
 ErrMax= 3.87D-08  0.00D+00 EMaxC= 1.00D-01 BMatC= 1.42D-13 BMatP= 2.85D-12
 IDIUse=1 WtCom= 1.00D+00 WtEn= 0.00D+00
 Coeff-Com: -0.535D-04-0.581D-04 0.369D-02-0.337D-01 0.101D+00-0.213D+00
 Coeff-Com:  0.429D+00-0.866D+00 0.158D+01
 Coeff:     -0.535D-04-0.581D-04 0.369D-02-0.337D-01 0.101D+00-0.213D+00
 Coeff:      0.429D+00-0.866D+00 0.158D+01
 Gap=     0.376 Goal=   None    Shift=    0.000
 RMSDP=7.05D-08 MaxDP=3.88D-07 DE=-2.08D-11 OVMax= 5.44D-07

 Cycle  10  Pass 1  IDiag  3:
 E=-0.141314018637090     Delta-E=       -0.000000000001 Rises=F Damp=F
 DIIS: error= 1.01D-08 at cycle  10 NSaved=  10.
 NSaved=10 IEnMin=10 EnMin=-0.141314018637090     IErMin=10 ErrMin= 1.01D-08
 ErrMax= 1.01D-08  0.00D+00 EMaxC= 1.00D-01 BMatC= 6.18D-15 BMatP= 1.42D-13
 IDIUse=1 WtCom= 1.00D+00 WtEn= 0.00D+00
 Coeff-Com:  0.158D-04 0.221D-04-0.117D-02 0.107D-01-0.318D-01 0.676D-01
 Coeff-Com: -0.137D+00 0.285D+00-0.674D+00 0.148D+01
 Coeff:      0.158D-04 0.221D-04-0.117D-02 0.107D-01-0.318D-01 0.676D-01
 Coeff:     -0.137D+00 0.285D+00-0.674D+00 0.148D+01
 Gap=     0.376 Goal=   None    Shift=    0.000
 RMSDP=1.47D-08 MaxDP=8.31D-08 DE=-8.67D-13 OVMax= 1.31D-07

 Cycle  11  Pass 1  IDiag  3:
 E=-0.141314018637189     Delta-E=       -0.000000000000 Rises=F Damp=F
 DIIS: error= 1.58D-09 at cycle  11 NSaved=  11.
 NSaved=11 IEnMin=11 EnMin=-0.141314018637189     IErMin=11 ErrMin= 1.58D-09
 ErrMax= 1.58D-09  0.00D+00 EMaxC= 1.00D-01 BMatC= 1.67D-16 BMatP= 6.18D-15
 IDIUse=1 WtCom= 1.00D+00 WtEn= 0.00D+00
 Coeff-Com: -0.333D-05-0.602D-05 0.269D-03-0.244D-02 0.725D-02-0.154D-01
 Coeff-Com:  0.312D-01-0.646D-01 0.166D+00-0.465D+00 0.134D+01
 Coeff:     -0.333D-05-0.602D-05 0.269D-03-0.244D-02 0.725D-02-0.154D-01
 Coeff:      0.312D-01-0.646D-01 0.166D+00-0.465D+00 0.134D+01
 Gap=     0.376 Goal=   None    Shift=    0.000
 RMSDP=1.93D-09 MaxDP=1.22D-08 DE=-9.95D-14 OVMax= 1.44D-08

 Cycle  12  Pass 2  IDiag  1:
 SCF Done:  E(RPM6) = -0.141314018637     A.U. after   12 cycles
            NFock= 11  Conv=0.19D-08     -V/T= 0.9978
 KE=-6.556173145267D+01 PE=-1.623571851923D+02 EE= 1.033625518256D+02
 Leave Link  502 at Tue Nov 28 15:47:34 2023, MaxMem=   134217728 cpu:               0.2 elap:               0.1
 (Enter /home/emanuele/chem_software/gaussian//gdv/l701.exe)
 ... and contract with generalized density number  0.
 Compute integral first derivatives.
 Leave Link  701 at Tue Nov 28 15:47:34 2023, MaxMem=   134217728 cpu:               0.2 elap:               0.1
 (Enter /home/emanuele/chem_software/gaussian//gdv/l702.exe)
 L702 exits ... SP integral derivatives will be done elsewhere.
 Leave Link  702 at Tue Nov 28 15:47:34 2023, MaxMem=   134217728 cpu:               0.1 elap:               0.0
 (Enter /home/emanuele/chem_software/gaussian//gdv/l703.exe)
 Integral derivatives from FoFJK, PRISM(SPDF).
 Compute integral first derivatives, UseDBF=F ICtDFT=           0.
 Calling FoFJK, ICntrl=      2127 FMM=F ISym2X=0 I1Cent= 0 IOpClX= 0 NMat=1 NMatS=1 NMatT=0.
 FoFJK:  IHMeth=40 ICntrl=    2127 DoSepK=F KAlg= 0 I1Cent=           0 FoldK=F
 IRaf=         0 NMat=       1 IRICut=       1 DoRegI=T DoRafI=F ISym2E= 0 IDoP0=3 IntGTp=3.
 FoFCou: FMM=F IPFlag=           0 FMFlag=      100000 FMFlg1=         800
         NFxFlg=           0 DoJE=F BraDBF=F KetDBF=F FulRan=T
         wScrn=  0.000000 ICntrl=      2127 IOpCl=  0 I1Cent=           0 NGrid=           0
         NMat0=    1 NMatS0=      1 NMatT0=    0 NMatD0=    1 NMtDS0=    0 NMtDT0=    0
 Symmetry not used in FoFCou.
 Leave Link  703 at Tue Nov 28 15:47:34 2023, MaxMem=   134217728 cpu:               0.1 elap:               0.0
 (Enter /home/emanuele/chem_software/gaussian//gdv/l716.exe)
 Dipole        = 6.06509425D-02-7.15260716D-01 7.54291004D-01
 -------------------------------------------------------------------
 Center     Atomic                   Forces (Hartrees/Bohr)
 Number     Number              X              Y              Z
 -------------------------------------------------------------------
      1        6           0.009367423    0.005619621    0.001771172
      2        8           0.007226191   -0.004895112    0.000204959
      3        6          -0.009028538    0.006493391    0.003179996
      4        1           0.001694962    0.001724731   -0.001499067
      5        1           0.001075387   -0.000607967   -0.002356514
      6        7          -0.005439414   -0.003042492   -0.003778731
      7        1          -0.002641255   -0.001810355    0.001184323
      8        1          -0.001477962   -0.000757726    0.002061477
      9        8          -0.002511037   -0.007055226   -0.000546921
     10        1           0.001734244    0.004331136   -0.000220694
 -------------------------------------------------------------------
 Cartesian Forces:  Max     0.009367423 RMS     0.004072819
 Leave Link  716 at Tue Nov 28 15:47:34 2023, MaxMem=   134217728 cpu:               0.2 elap:               0.0
 (Enter /home/emanuele/chem_software/gaussian//gdv/l103.exe)

 GradGradGradGradGradGradGradGradGradGradGradGradGradGradGradGradGradGrad
 Berny optimization.
 Using GEDIIS/GDIIS optimizer.
 FormGI is forming the generalized inverse of G from B-inverse, IUseBI=4.
 Internal  Forces:  Max     0.014284126 RMS     0.004297969
 Search for a local minimum.
 Step number   2 out of a maximum of  100 on scan point     1 out of    11
 All quantities printed in internal units (Hartrees-Bohrs-Radians)
 RMS Force = .43341D-02 SwitMx=.10000D-02 MixMth= 1
 Mixed Optimization -- RFO/linear search
 Update second derivatives using D2CorX and points    1    2
 DE= -4.34D-03 DEPred=-6.32D-03 R= 6.87D-01
 TightC=F SS=  1.41D+00  RLast= 2.37D-01 DXNew= 5.0454D-01 7.1085D-01
 Trust test= 6.87D-01 RLast= 2.37D-01 DXMaxT set to 5.05D-01
 ITU=  1  0
 Use linear search instead of GDIIS.
     Eigenvalues ---    0.00857   0.01005   0.02337   0.04009   0.04329
     Eigenvalues ---    0.05948   0.08819   0.12971   0.15728   0.16000
     Eigenvalues ---    0.17975   0.21856   0.23275   0.25173   0.32153
     Eigenvalues ---    0.33948   0.34520   0.43665   0.45787   0.46007
     Eigenvalues ---    0.53224   0.58354   1.049561000.000001000.00000
     Eigenvalues --- 1000.000001000.000001000.000001000.000001000.00000
     Eigenvalues --- 1000.000001000.000001000.000001000.000001000.00000
     Eigenvalues --- 1000.00000
 RFO step:  Lambda=-1.25117735D-03 EMin= 8.57341513D-03
 Quartic linear search produced a step of -0.20369.
 Iteration  1 RMS(Cart)=  0.02643157 RMS(Int)=  0.00040259
 Iteration  2 RMS(Cart)=  0.00033175 RMS(Int)=  0.00024196
 Iteration  3 RMS(Cart)=  0.00000016 RMS(Int)=  0.00024196
 Fixing frozen coordinates.
 Iteration  1 RMS(Cart)=  0.00001651 RMS(Int)=  0.00001525
 Iteration  2 RMS(Cart)=  0.00000891 RMS(Int)=  0.00001704
 Iteration  3 RMS(Cart)=  0.00000480 RMS(Int)=  0.00001922
 Iteration  4 RMS(Cart)=  0.00000259 RMS(Int)=  0.00002064
 Iteration  5 RMS(Cart)=  0.00000140 RMS(Int)=  0.00002146
 Iteration  6 RMS(Cart)=  0.00000075 RMS(Int)=  0.00002192
 ITry= 1 IFail=0 DXMaxC= 8.00D-02 DCOld= 1.00D+10 DXMaxT= 5.05D-01 DXLimC= 3.00D+00 Rises=F
 Variable       Old X    -DE/DX   Delta X   Delta X   Delta X     New X
                                 (Linear)    (Quad)   (Total)
    R1        2.59758  -0.00696  -0.00911   0.00357  -0.00554   2.59203
    R2        2.89311  -0.01428  -0.00827  -0.02381  -0.03208   2.86103
    R3        2.28581  -0.00686  -0.00257  -0.00139  -0.00397   2.28184
    R4        1.86616   0.00060  -0.00759   0.01225   0.00466   1.87083
    R5        2.11454  -0.00209  -0.00702   0.00549  -0.00154   2.11300
    R6        2.10692   0.00193  -0.00882   0.01751   0.00868   2.11560
    R7        2.82070  -0.01067  -0.01572   0.00112  -0.01460   2.80610
    R8        1.92647  -0.00116  -0.00260   0.00187  -0.00073   1.92574
    R9        1.91587  -0.00005  -0.00145   0.00207   0.00062   1.91649
    A1        1.93588  -0.00629   0.00283  -0.02405  -0.02121   1.91467
    A2        2.11398  -0.00031   0.00674  -0.01090  -0.00415   2.10983
    A3        2.23214   0.00663  -0.00943   0.03495   0.02553   2.25767
    A4        2.01835  -0.00859  -0.02992   0.00068  -0.02924   1.98910
    A5        1.87296   0.00230  -0.00680   0.02033   0.01356   1.88652
    A6        1.90451   0.00204  -0.00266   0.01126   0.00843   1.91294
    A7        1.93447  -0.00429  -0.00082  -0.01601  -0.01677   1.91769
    A8        1.84164   0.00046   0.00251   0.00499   0.00743   1.84907
    A9        2.01547   0.00019  -0.00218   0.00298   0.00103   2.01650
   A10        1.89059  -0.00032   0.00954  -0.02162  -0.01207   1.87852
   A11        1.96345  -0.00483  -0.00889  -0.02013  -0.02952   1.93392
   A12        1.93729  -0.00287   0.00150  -0.02559  -0.02461   1.91268
   A13        1.88746   0.00239   0.00171  -0.00736  -0.00665   1.88080
    D1        3.10643   0.00081  -0.00281   0.01892   0.01597   3.12240
    D2        0.01323   0.00005  -0.00620   0.01782   0.01176   0.02499
    D3       -1.25365  -0.00186  -0.00000   0.00000  -0.00001  -1.25365
    D4        0.73376   0.00088  -0.00174   0.02191   0.02024   0.75401
    D5        2.81431  -0.00084   0.00784  -0.00740   0.00052   2.81483
    D6        1.83544  -0.00132   0.00405  -0.00059   0.00345   1.83889
    D7       -2.46034   0.00142   0.00231   0.02132   0.02370  -2.43663
    D8       -0.37979  -0.00030   0.01190  -0.00799   0.00398  -0.37581
    D9        0.60936   0.00088  -0.00093   0.00660   0.00537   0.61473
   D10        2.72699  -0.00149  -0.00381  -0.03540  -0.03897   2.68802
   D11       -1.52484   0.00110   0.01023  -0.00998  -0.00005  -1.52489
   D12        0.59280  -0.00126   0.00735  -0.05198  -0.04439   0.54840
   D13        2.69827   0.00062   0.00140  -0.00273  -0.00152   2.69675
   D14       -1.46729  -0.00175  -0.00148  -0.04473  -0.04586  -1.51315
         Item               Value     Threshold  Converged?
 Maximum Force            0.014284     0.000450     NO 
 RMS     Force            0.004334     0.000300     NO 
 Maximum Displacement     0.079975     0.001800     NO 
 RMS     Displacement     0.026603     0.001200     NO 
 Predicted change in Energy=-9.131085D-04
 Lowest energy point so far.  Saving SCF results.
 GradGradGradGradGradGradGradGradGradGradGradGradGradGradGradGradGradGrad

 Leave Link  103 at Tue Nov 28 15:47:34 2023, MaxMem=   134217728 cpu:               0.0 elap:               0.0
 (Enter /home/emanuele/chem_software/gaussian//gdv/l202.exe)
                          Input orientation:                          
 ---------------------------------------------------------------------
 Center     Atomic      Atomic             Coordinates (Angstroms)
 Number     Number       Type             X           Y           Z
 ---------------------------------------------------------------------
      1          6           0       -0.525358    0.146987    0.031065
      2          8           0       -1.634895   -0.653515   -0.066586
      3          6           0        0.717051   -0.712534    0.130109
      4          1           0        0.730259   -1.188405    1.141859
      5          1           0        0.650934   -1.554415   -0.604876
      6          7           0        1.916471    0.092223   -0.214498
      7          1           0        1.813277    1.052780    0.109784
      8          1           0        2.732626   -0.301943    0.240532
      9          8           0       -0.630311    1.349104    0.075262
     10          1           0       -2.488030   -0.153870   -0.117702
 ---------------------------------------------------------------------
                    Distance matrix (angstroms):
                    1          2          3          4          5
     1  C    0.000000
     2  O    1.371645   0.000000
     3  C    1.513991   2.360895   0.000000
     4  H    2.143294   2.709317   1.118152   0.000000
     5  H    2.163990   2.515232   1.119526   1.786432   0.000000
     6  N    2.454757   3.631832   1.484923   2.210614   2.113149
     7  H    2.509158   3.851290   2.078090   2.694627   2.942660
     8  H    3.295433   4.392398   2.059932   2.368054   2.572323
     9  O    1.207499   2.244948   2.463482   3.070460   3.245705
    10  H    1.991162   0.989999   3.262830   3.607511   3.471593
                    6          7          8          9         10
     6  N    0.000000
     7  H    1.019057   0.000000
     8  H    1.014164   1.642428   0.000000
     9  O    2.854787   2.461731   3.750015   0.000000
    10  H    4.412432   4.473141   5.235027   2.397350   0.000000
 Symmetry turned off by external request.
 Stoichiometry    C2H5NO2
 Framework group  C1[X(C2H5NO2)]
 Deg. of freedom    24
 Full point group                 C1      NOp   1
 Rotational constants (GHZ):          10.0936708           3.8670249           2.8832422
 Leave Link  202 at Tue Nov 28 15:47:34 2023, MaxMem=   134217728 cpu:               0.1 elap:               0.0
 (Enter /home/emanuele/chem_software/gaussian//gdv/l301.exe)
 Standard basis: VSTO-6G (5D, 7F)
 Ernie: Thresh=  0.10000D-02 Tol=  0.10000D-05 Strict=F.
  NNHCO=     0 NNPyr=     0 NCTC=     0               EPep=         0.000000000
    EC=        83.178962322  ECS=         2.151935959   EG=         0.122573273
   EHC=         0.000975288  EAt=       -38.066560349  AtH=         1.329713788
 EPDDG=         0.000000000  ECC=        85.454446842 EAtT=        39.396274136
    25 basis functions,   150 primitive gaussians,    25 cartesian basis functions
    15 alpha electrons       15 beta electrons
       nuclear repulsion energy       124.8507209789 Hartrees.
 IExCor=       0 DFT=F Ex=HF Corr=None N6=None ScaHFX=  1.000000
 ScaDFX=  1.000000  1.000000  1.000000  1.000000  1.000000  0.000000
 ScaDFX=  0.000000  0.000000  0.000000  0.000000  0.000000  0.000000
 IRadAn=      5 IRanWt=     -1 IRanGd=            0 ICorTp=0 IEmpDi=  4
 Integral buffers will be    131072 words long.
 Regular integral format.
 Two-electron integral symmetry is turned off.
 Leave Link  301 at Tue Nov 28 15:47:34 2023, MaxMem=   134217728 cpu:               0.2 elap:               0.1
 (Enter /home/emanuele/chem_software/gaussian//gdv/l302.exe)
 Do NDO integrals.
 NPDir=0 NMtPBC=     1 NCelOv=     1 NCel=       1 NClECP=     1 NCelD=      1
         NCelK=      1 NCelE2=     1 NClLst=     1 CellRange=     0.0.
 One-electron integrals computed using PRISM.
 NBasis=    25 RedAO= F EigKep=  0.00D+00  NBF=    25
 NBsUse=    25 1.00D-04 EigRej=  0.00D+00 NBFU=    25
 Leave Link  302 at Tue Nov 28 15:47:34 2023, MaxMem=   134217728 cpu:               0.4 elap:               0.1
 (Enter /home/emanuele/chem_software/gaussian//gdv/l303.exe)
 DipDrv:  MaxL=1.
 Leave Link  303 at Tue Nov 28 15:47:34 2023, MaxMem=   134217728 cpu:               0.2 elap:               0.0
 (Enter /home/emanuele/chem_software/gaussian//gdv/l401.exe)
 Initial guess from the checkpoint file:  "0_qm.chk"
 B after Tr=     0.000000    0.000000    0.000000
         Rot=    1.000000    0.000000    0.000000    0.000000 Ang=   0.00 deg.
 AO Guess basis will be translated and rotated to current coordinates.
 JPrj=0 DoOrth=T DoCkMO=T.
 Leave Link  401 at Tue Nov 28 15:47:35 2023, MaxMem=   134217728 cpu:               0.8 elap:               0.2
 (Enter /home/emanuele/chem_software/gaussian//gdv/l502.exe)
 Keep J ints in memory in canonical form, NReq=861126.
 FoFCou: FMM=F IPFlag=           0 FMFlag=           0 FMFlg1=           0
         NFxFlg=           0 DoJE=F BraDBF=F KetDBF=F FulRan=T
         wScrn=  0.000000 ICntrl=       600 IOpCl=  2 I1Cent=           0 NGrid=           0
         NMat0=    1 NMatS0=     55 NMatT0=    0 NMatD0=    1 NMtDS0=    0 NMtDT0=    0
 Symmetry not used in FoFCou.
 Two-electron integral symmetry not used.
 Closed shell SCF:
 Using DIIS extrapolation, IDIIS=  1040.
 Overlap will be assumed to be unity.
 NGot=   134217728 LenX=   134155015 LenY=   134153949
 Requested convergence on RMS density matrix=1.00D-08 within 128 cycles.
 Requested convergence on MAX density matrix=1.00D-06.
 Requested convergence on             energy=1.00D-06.
 No special actions if energy rises.

 Cycle   1  Pass 1  IDiag  1:
 E=-0.141540805593749    
 DIIS: error= 1.82D-03 at cycle   1 NSaved=   1.
 NSaved= 1 IEnMin= 1 EnMin=-0.141540805593749     IErMin= 1 ErrMin= 1.82D-03
 ErrMax= 1.82D-03  0.00D+00 EMaxC= 1.00D-01 BMatC= 1.87D-04 BMatP= 1.87D-04
 IDIUse=3 WtCom= 9.82D-01 WtEn= 1.82D-02
 Coeff-Com:  0.100D+01
 Coeff-En:   0.100D+01
 Coeff:      0.100D+01
 GapD=    2.000 DampG=2.000 DampE=1.000 DampFc=2.0000 IDamp=-1.
 RMSDP=1.01D-03 MaxDP=6.34D-03              OVMax= 0.00D+00

 Cycle   2  Pass 1  IDiag  3:
 E=-0.142194151234463     Delta-E=       -0.000653345641 Rises=F Damp=F
 DIIS: error= 8.59D-04 at cycle   2 NSaved=   2.
 NSaved= 2 IEnMin= 2 EnMin=-0.142194151234463     IErMin= 2 ErrMin= 8.59D-04
 ErrMax= 8.59D-04  0.00D+00 EMaxC= 1.00D-01 BMatC= 2.75D-05 BMatP= 1.87D-04
 IDIUse=3 WtCom= 9.91D-01 WtEn= 8.59D-03
 Coeff-Com: -0.534D+00 0.153D+01
 Coeff-En:   0.000D+00 0.100D+01
 Coeff:     -0.529D+00 0.153D+01
 Gap=     0.379 Goal=   None    Shift=    0.000
 RMSDP=6.80D-04 MaxDP=4.77D-03 DE=-6.53D-04 OVMax= 4.81D-03

 Cycle   3  Pass 1  IDiag  3:
 E=-0.142335001342019     Delta-E=       -0.000140850108 Rises=F Damp=F
 DIIS: error= 1.82D-04 at cycle   3 NSaved=   3.
 NSaved= 3 IEnMin= 3 EnMin=-0.142335001342019     IErMin= 3 ErrMin= 1.82D-04
 ErrMax= 1.82D-04  0.00D+00 EMaxC= 1.00D-01 BMatC= 1.01D-06 BMatP= 2.75D-05
 IDIUse=3 WtCom= 9.98D-01 WtEn= 1.82D-03
 Coeff-Com:  0.265D+00-0.859D+00 0.159D+01
 Coeff-En:   0.000D+00 0.000D+00 0.100D+01
 Coeff:      0.265D+00-0.857D+00 0.159D+01
 Gap=     0.379 Goal=   None    Shift=    0.000
 RMSDP=1.74D-04 MaxDP=1.28D-03 DE=-1.41D-04 OVMax= 1.16D-03

 Cycle   4  Pass 1  IDiag  3:
 E=-0.142341753695860     Delta-E=       -0.000006752354 Rises=F Damp=F
 DIIS: error= 3.46D-05 at cycle   4 NSaved=   4.
 NSaved= 4 IEnMin= 4 EnMin=-0.142341753695860     IErMin= 4 ErrMin= 3.46D-05
 ErrMax= 3.46D-05  0.00D+00 EMaxC= 1.00D-01 BMatC= 4.19D-08 BMatP= 1.01D-06
 IDIUse=1 WtCom= 1.00D+00 WtEn= 0.00D+00
 Coeff-Com: -0.136D+00 0.448D+00-0.921D+00 0.161D+01
 Coeff:     -0.136D+00 0.448D+00-0.921D+00 0.161D+01
 Gap=     0.379 Goal=   None    Shift=    0.000
 RMSDP=3.42D-05 MaxDP=2.23D-04 DE=-6.75D-06 OVMax= 2.08D-04

 Cycle   5  Pass 1  IDiag  3:
 E=-0.142342032066395     Delta-E=       -0.000000278371 Rises=F Damp=F
 DIIS: error= 9.25D-06 at cycle   5 NSaved=   5.
 NSaved= 5 IEnMin= 5 EnMin=-0.142342032066395     IErMin= 5 ErrMin= 9.25D-06
 ErrMax= 9.25D-06  0.00D+00 EMaxC= 1.00D-01 BMatC= 2.64D-09 BMatP= 4.19D-08
 IDIUse=1 WtCom= 1.00D+00 WtEn= 0.00D+00
 Coeff-Com:  0.526D-01-0.174D+00 0.367D+00-0.817D+00 0.157D+01
 Coeff:      0.526D-01-0.174D+00 0.367D+00-0.817D+00 0.157D+01
 Gap=     0.379 Goal=   None    Shift=    0.000
 RMSDP=8.90D-06 MaxDP=6.89D-05 DE=-2.78D-07 OVMax= 4.76D-05

 Cycle   6  Pass 1  IDiag  3:
 E=-0.142342049806132     Delta-E=       -0.000000017740 Rises=F Damp=F
 DIIS: error= 1.69D-06 at cycle   6 NSaved=   6.
 NSaved= 6 IEnMin= 6 EnMin=-0.142342049806132     IErMin= 6 ErrMin= 1.69D-06
 ErrMax= 1.69D-06  0.00D+00 EMaxC= 1.00D-01 BMatC= 1.54D-10 BMatP= 2.64D-09
 IDIUse=1 WtCom= 1.00D+00 WtEn= 0.00D+00
 Coeff-Com: -0.185D-01 0.609D-01-0.129D+00 0.315D+00-0.797D+00 0.157D+01
 Coeff:     -0.185D-01 0.609D-01-0.129D+00 0.315D+00-0.797D+00 0.157D+01
 Gap=     0.379 Goal=   None    Shift=    0.000
 RMSDP=2.06D-06 MaxDP=1.60D-05 DE=-1.77D-08 OVMax= 1.05D-05

 Cycle   7  Pass 1  IDiag  3:
 E=-0.142342050790617     Delta-E=       -0.000000000984 Rises=F Damp=F
 DIIS: error= 3.08D-07 at cycle   7 NSaved=   7.
 NSaved= 7 IEnMin= 7 EnMin=-0.142342050790617     IErMin= 7 ErrMin= 3.08D-07
 ErrMax= 3.08D-07  0.00D+00 EMaxC= 1.00D-01 BMatC= 6.54D-12 BMatP= 1.54D-10
 IDIUse=1 WtCom= 1.00D+00 WtEn= 0.00D+00
 Coeff-Com:  0.411D-02-0.136D-01 0.290D-01-0.751D-01 0.218D+00-0.585D+00
 Coeff-Com:  0.142D+01
 Coeff:      0.411D-02-0.136D-01 0.290D-01-0.751D-01 0.218D+00-0.585D+00
 Coeff:      0.142D+01
 Gap=     0.379 Goal=   None    Shift=    0.000
 RMSDP=4.07D-07 MaxDP=2.51D-06 DE=-9.84D-10 OVMax= 2.87D-06

 Cycle   8  Pass 1  IDiag  3:
 E=-0.142342050833008     Delta-E=       -0.000000000042 Rises=F Damp=F
 DIIS: error= 9.91D-08 at cycle   8 NSaved=   8.
 NSaved= 8 IEnMin= 8 EnMin=-0.142342050833008     IErMin= 8 ErrMin= 9.91D-08
 ErrMax= 9.91D-08  0.00D+00 EMaxC= 1.00D-01 BMatC= 4.53D-13 BMatP= 6.54D-12
 IDIUse=1 WtCom= 1.00D+00 WtEn= 0.00D+00
 Coeff-Com: -0.742D-03 0.245D-02-0.528D-02 0.153D-01-0.536D-01 0.183D+00
 Coeff-Com: -0.687D+00 0.155D+01
 Coeff:     -0.742D-03 0.245D-02-0.528D-02 0.153D-01-0.536D-01 0.183D+00
 Coeff:     -0.687D+00 0.155D+01
 Gap=     0.379 Goal=   None    Shift=    0.000
 RMSDP=1.20D-07 MaxDP=8.21D-07 DE=-4.24D-11 OVMax= 8.91D-07

 Cycle   9  Pass 1  IDiag  3:
 E=-0.142342050836191     Delta-E=       -0.000000000003 Rises=F Damp=F
 DIIS: error= 1.78D-08 at cycle   9 NSaved=   9.
 NSaved= 9 IEnMin= 9 EnMin=-0.142342050836191     IErMin= 9 ErrMin= 1.78D-08
 ErrMax= 1.78D-08  0.00D+00 EMaxC= 1.00D-01 BMatC= 1.92D-14 BMatP= 4.53D-13
 IDIUse=1 WtCom= 1.00D+00 WtEn= 0.00D+00
 Coeff-Com:  0.265D-03-0.875D-03 0.189D-02-0.562D-02 0.206D-01-0.749D-01
 Coeff-Com:  0.310D+00-0.837D+00 0.159D+01
 Coeff:      0.265D-03-0.875D-03 0.189D-02-0.562D-02 0.206D-01-0.749D-01
 Coeff:      0.310D+00-0.837D+00 0.159D+01
 Gap=     0.379 Goal=   None    Shift=    0.000
 RMSDP=2.57D-08 MaxDP=1.66D-07 DE=-3.18D-12 OVMax= 2.09D-07

 Cycle  10  Pass 1  IDiag  3:
 E=-0.142342050836234     Delta-E=       -0.000000000000 Rises=F Damp=F
 DIIS: error= 2.43D-09 at cycle  10 NSaved=  10.
 NSaved=10 IEnMin=10 EnMin=-0.142342050836234     IErMin=10 ErrMin= 2.43D-09
 ErrMax= 2.43D-09  0.00D+00 EMaxC= 1.00D-01 BMatC= 4.41D-16 BMatP= 1.92D-14
 IDIUse=1 WtCom= 1.00D+00 WtEn= 0.00D+00
 Coeff-Com: -0.788D-04 0.261D-03-0.564D-03 0.170D-02-0.637D-02 0.234D-01
 Coeff-Com: -0.984D-01 0.273D+00-0.604D+00 0.141D+01
 Coeff:     -0.788D-04 0.261D-03-0.564D-03 0.170D-02-0.637D-02 0.234D-01
 Coeff:     -0.984D-01 0.273D+00-0.604D+00 0.141D+01
 Gap=     0.379 Goal=   None    Shift=    0.000
 RMSDP=3.44D-09 MaxDP=1.92D-08 DE=-4.26D-14 OVMax= 2.66D-08

 Cycle  11  Pass 2  IDiag  1:
 SCF Done:  E(RPM6) = -0.142342050836     A.U. after   11 cycles
            NFock= 10  Conv=0.34D-08     -V/T= 0.9978
 KE=-6.557044311869D+01 PE=-1.631635626378D+02 EE= 1.037409427268D+02
 Leave Link  502 at Tue Nov 28 15:47:35 2023, MaxMem=   134217728 cpu:               0.2 elap:               0.1
 (Enter /home/emanuele/chem_software/gaussian//gdv/l701.exe)
 ... and contract with generalized density number  0.
 Compute integral first derivatives.
 Leave Link  701 at Tue Nov 28 15:47:35 2023, MaxMem=   134217728 cpu:               0.2 elap:               0.1
 (Enter /home/emanuele/chem_software/gaussian//gdv/l702.exe)
 L702 exits ... SP integral derivatives will be done elsewhere.
 Leave Link  702 at Tue Nov 28 15:47:35 2023, MaxMem=   134217728 cpu:               0.1 elap:               0.0
 (Enter /home/emanuele/chem_software/gaussian//gdv/l703.exe)
 Integral derivatives from FoFJK, PRISM(SPDF).
 Compute integral first derivatives, UseDBF=F ICtDFT=           0.
 Calling FoFJK, ICntrl=      2127 FMM=F ISym2X=0 I1Cent= 0 IOpClX= 0 NMat=1 NMatS=1 NMatT=0.
 FoFJK:  IHMeth=40 ICntrl=    2127 DoSepK=F KAlg= 0 I1Cent=           0 FoldK=F
 IRaf=         0 NMat=       1 IRICut=       1 DoRegI=T DoRafI=F ISym2E= 0 IDoP0=3 IntGTp=3.
 FoFCou: FMM=F IPFlag=           0 FMFlag=      100000 FMFlg1=         800
         NFxFlg=           0 DoJE=F BraDBF=F KetDBF=F FulRan=T
         wScrn=  0.000000 ICntrl=      2127 IOpCl=  0 I1Cent=           0 NGrid=           0
         NMat0=    1 NMatS0=      1 NMatT0=    0 NMatD0=    1 NMtDS0=    0 NMtDT0=    0
 Symmetry not used in FoFCou.
 Leave Link  703 at Tue Nov 28 15:47:35 2023, MaxMem=   134217728 cpu:               0.2 elap:               0.0
 (Enter /home/emanuele/chem_software/gaussian//gdv/l716.exe)
 Dipole        = 5.62446916D-02-7.04978402D-01 7.68086343D-01
 -------------------------------------------------------------------
 Center     Atomic                   Forces (Hartrees/Bohr)
 Number     Number              X              Y              Z
 -------------------------------------------------------------------
      1        6           0.003328132    0.003232497    0.001368942
      2        8           0.000747222   -0.003409721   -0.000417699
      3        6          -0.005914143    0.000057147    0.001407789
      4        1           0.001079539    0.000693501   -0.001248800
      5        1          -0.000083591   -0.000701450   -0.000688910
      6        7           0.000781034   -0.001173974   -0.000589840
      7        1           0.000319493    0.001041567   -0.000065149
      8        1           0.001508852    0.000456105    0.000603367
      9        8          -0.001318675   -0.002171753   -0.000097706
     10        1          -0.000447862    0.001976082   -0.000271995
 -------------------------------------------------------------------
 Cartesian Forces:  Max     0.005914143 RMS     0.001769375
 Leave Link  716 at Tue Nov 28 15:47:35 2023, MaxMem=   134217728 cpu:               0.1 elap:               0.0
 (Enter /home/emanuele/chem_software/gaussian//gdv/l103.exe)

 GradGradGradGradGradGradGradGradGradGradGradGradGradGradGradGradGradGrad
 Berny optimization.
 Using GEDIIS/GDIIS optimizer.
 FormGI is forming the generalized inverse of G from B-inverse, IUseBI=4.
 Internal  Forces:  Max     0.002741850 RMS     0.001145121
 Search for a local minimum.
 Step number   3 out of a maximum of  100 on scan point     1 out of    11
 All quantities printed in internal units (Hartrees-Bohrs-Radians)
 RMS Force = .11463D-02 SwitMx=.10000D-02 MixMth= 1
 Mixed Optimization -- RFO/linear search
 Update second derivatives using D2CorX and points    1    2    3
 DE= -1.03D-03 DEPred=-9.13D-04 R= 1.13D+00
 TightC=F SS=  1.41D+00  RLast= 1.12D-01 DXNew= 8.4853D-01 3.3728D-01
 Trust test= 1.13D+00 RLast= 1.12D-01 DXMaxT set to 5.05D-01
 ITU=  1  1  0
 Use linear search instead of GDIIS.
     Eigenvalues ---    0.00844   0.00979   0.02323   0.04247   0.04554
     Eigenvalues ---    0.06114   0.08518   0.12965   0.15969   0.16569
     Eigenvalues ---    0.17183   0.19839   0.22816   0.25175   0.30884
     Eigenvalues ---    0.33778   0.34420   0.43977   0.45771   0.47290
     Eigenvalues ---    0.53080   0.59608   1.038301000.000001000.00000
     Eigenvalues --- 1000.000001000.000001000.000001000.000001000.00000
     Eigenvalues --- 1000.000001000.000001000.000001000.000001000.00000
     Eigenvalues --- 1000.00000
 RFO step:  Lambda=-2.47520996D-04 EMin= 8.44309068D-03
 Quartic linear search produced a step of  0.10550.
 Iteration  1 RMS(Cart)=  0.01185619 RMS(Int)=  0.00010542
 Iteration  2 RMS(Cart)=  0.00011738 RMS(Int)=  0.00003242
 Iteration  3 RMS(Cart)=  0.00000001 RMS(Int)=  0.00003242
 Fixing frozen coordinates.
 Iteration  1 RMS(Cart)=  0.00000105 RMS(Int)=  0.00000097
 Iteration  2 RMS(Cart)=  0.00000057 RMS(Int)=  0.00000108
 ITry= 1 IFail=0 DXMaxC= 3.32D-02 DCOld= 1.00D+10 DXMaxT= 5.05D-01 DXLimC= 3.00D+00 Rises=F
 Variable       Old X    -DE/DX   Delta X   Delta X   Delta X     New X
                                 (Linear)    (Quad)   (Total)
    R1        2.59203   0.00064  -0.00058   0.00266   0.00207   2.59411
    R2        2.86103  -0.00214  -0.00338  -0.00774  -0.01112   2.84990
    R3        2.28184  -0.00205  -0.00042  -0.00199  -0.00240   2.27944
    R4        1.87083   0.00140   0.00049   0.00446   0.00495   1.87578
    R5        2.11300  -0.00141  -0.00016  -0.00367  -0.00383   2.10917
    R6        2.11560   0.00098   0.00092   0.00509   0.00600   2.12160
    R7        2.80610   0.00230  -0.00154   0.00890   0.00736   2.81346
    R8        1.92574   0.00093  -0.00008   0.00273   0.00266   1.92839
    R9        1.91649   0.00131   0.00007   0.00351   0.00358   1.92007
    A1        1.91467  -0.00156  -0.00224  -0.00843  -0.01067   1.90400
    A2        2.10983  -0.00091  -0.00044  -0.00546  -0.00590   2.10392
    A3        2.25767   0.00250   0.00269   0.01401   0.01670   2.27436
    A4        1.98910  -0.00274  -0.00308  -0.01596  -0.01904   1.97006
    A5        1.88652   0.00028   0.00143   0.00719   0.00861   1.89512
    A6        1.91294  -0.00029   0.00089  -0.00204  -0.00115   1.91179
    A7        1.91769   0.00122  -0.00177   0.00790   0.00611   1.92380
    A8        1.84907   0.00023   0.00078  -0.00496  -0.00421   1.84487
    A9        2.01650  -0.00102   0.00011  -0.00265  -0.00259   2.01391
   A10        1.87852  -0.00047  -0.00127  -0.00616  -0.00744   1.87108
   A11        1.93392   0.00064  -0.00311   0.00599   0.00282   1.93674
   A12        1.91268   0.00139  -0.00260   0.00992   0.00726   1.91995
   A13        1.88080  -0.00082  -0.00070  -0.00369  -0.00452   1.87629
    D1        3.12240   0.00052   0.00168   0.01313   0.01480   3.13719
    D2        0.02499  -0.00004   0.00124   0.01035   0.01160   0.03660
    D3       -1.25365  -0.00075  -0.00000   0.00000   0.00001  -1.25365
    D4        0.75401  -0.00047   0.00214  -0.00303  -0.00089   0.75311
    D5        2.81483  -0.00049   0.00005  -0.00705  -0.00702   2.80781
    D6        1.83889  -0.00026   0.00036   0.00236   0.00275   1.84164
    D7       -2.43663   0.00001   0.00250  -0.00066   0.00185  -2.43478
    D8       -0.37581  -0.00000   0.00042  -0.00468  -0.00428  -0.38009
    D9        0.61473  -0.00015   0.00057  -0.01879  -0.01827   0.59646
   D10        2.68802   0.00010  -0.00411  -0.01342  -0.01751   2.67051
   D11       -1.52489  -0.00075  -0.00001  -0.03272  -0.03274  -1.55763
   D12        0.54840  -0.00050  -0.00468  -0.02735  -0.03198   0.51642
   D13        2.69675  -0.00009  -0.00016  -0.02043  -0.02063   2.67612
   D14       -1.51315   0.00016  -0.00484  -0.01505  -0.01987  -1.53302
         Item               Value     Threshold  Converged?
 Maximum Force            0.002742     0.000450     NO 
 RMS     Force            0.001146     0.000300     NO 
 Maximum Displacement     0.033218     0.001800     NO 
 RMS     Displacement     0.011885     0.001200     NO 
 Predicted change in Energy=-1.376137D-04
 Lowest energy point so far.  Saving SCF results.
 GradGradGradGradGradGradGradGradGradGradGradGradGradGradGradGradGradGrad

 Leave Link  103 at Tue Nov 28 15:47:35 2023, MaxMem=   134217728 cpu:               0.1 elap:               0.0
 (Enter /home/emanuele/chem_software/gaussian//gdv/l202.exe)
                          Input orientation:                          
 ---------------------------------------------------------------------
 Center     Atomic      Atomic             Coordinates (Angstroms)
 Number     Number       Type             X           Y           Z
 ---------------------------------------------------------------------
      1          6           0       -0.524776    0.149823    0.038135
      2          8           0       -1.628348   -0.660209   -0.063839
      3          6           0        0.710784   -0.709606    0.133789
      4          1           0        0.730227   -1.193884    1.139189
      5          1           0        0.641672   -1.550274   -0.607132
      6          7           0        1.919695    0.086379   -0.214814
      7          1           0        1.820489    1.054490    0.092206
      8          1           0        2.736188   -0.299685    0.250660
      9          8           0       -0.646604    1.349039    0.083118
     10          1           0       -2.477303   -0.149662   -0.126361
 ---------------------------------------------------------------------
                    Distance matrix (angstroms):
                    1          2          3          4          5
     1  C    0.000000
     2  O    1.372742   0.000000
     3  C    1.508104   2.347986   0.000000
     4  H    2.143106   2.700919   1.116124   0.000000
     5  H    2.160394   2.498075   1.122704   1.784515   0.000000
     6  N    2.458343   3.628884   1.488819   2.210708   2.113265
     7  H    2.514283   3.854740   2.084517   2.709249   2.943379
     8  H    3.298653   4.390679   2.069772   2.369168   2.585880
     9  O    1.206227   2.241092   2.466391   3.078539   3.246862
    10  H    1.982198   0.992618   3.247324   3.602813   3.452660
                    6          7          8          9         10
     6  N    0.000000
     7  H    1.020462   0.000000
     8  H    1.016057   1.642377   0.000000
     9  O    2.875581   2.484630   3.766914   0.000000
    10  H    4.404218   4.468643   5.229258   2.375173   0.000000
 Symmetry turned off by external request.
 Stoichiometry    C2H5NO2
 Framework group  C1[X(C2H5NO2)]
 Deg. of freedom    24
 Full point group                 C1      NOp   1
[...]
    R9        1.92490  -0.00006  -0.00010  -0.00009  -0.00019   1.92470
    A1        1.92028  -0.00001  -0.00005  -0.00003  -0.00008   1.92020
    A2        2.10329  -0.00004  -0.00004  -0.00019  -0.00023   2.10306
    A3        2.25960   0.00004   0.00009   0.00022   0.00031   2.25991
    A4        1.97258  -0.00002  -0.00003  -0.00006  -0.00009   1.97249
    A5        1.89914  -0.00007   0.00010  -0.00019  -0.00009   1.89905
    A6        1.91772  -0.00006  -0.00020   0.00021   0.00001   1.91774
    A7        1.98934   0.00005   0.00009  -0.00010  -0.00001   1.98932
    A8        1.83531  -0.00013   0.00022  -0.00036  -0.00015   1.83517
    A9        1.90249   0.00017  -0.00012   0.00035   0.00023   1.90272
   A10        1.91337   0.00002  -0.00008   0.00008  -0.00000   1.91337
   A11        1.93826   0.00000   0.00004  -0.00001   0.00002   1.93829
   A12        1.93605  -0.00000   0.00008  -0.00005   0.00003   1.93608
   A13        1.86976   0.00000   0.00008   0.00006   0.00013   1.86989
    D1        3.12984  -0.00008   0.00026   0.00052   0.00078   3.13061
    D2       -0.01572   0.00010   0.00013   0.00024   0.00038  -0.01534
    D3       -1.25365   0.00038   0.00000   0.00000  -0.00000  -1.25365
    D4        0.74714   0.00016   0.00021  -0.00043  -0.00022   0.74693
    D5        2.90242   0.00018   0.00002  -0.00024  -0.00022   2.90220
    D6        1.89237   0.00018   0.00014   0.00031   0.00045   1.89282
    D7       -2.39003  -0.00005   0.00035  -0.00012   0.00023  -2.38979
    D8       -0.23474  -0.00003   0.00016   0.00007   0.00023  -0.23451
    D9       -1.07929   0.00003   0.00062  -0.00007   0.00056  -1.07874
   D10        0.99798   0.00004   0.00080  -0.00004   0.00076   0.99874
   D11        3.07863  -0.00004   0.00052  -0.00001   0.00051   3.07914
   D12       -1.12728  -0.00004   0.00070   0.00002   0.00072  -1.12657
   D13        1.07834   0.00001   0.00037   0.00019   0.00056   1.07890
   D14       -3.12757   0.00001   0.00055   0.00022   0.00077  -3.12681
         Item               Value     Threshold  Converged?
 Maximum Force            0.000103     0.000450     YES
 RMS     Force            0.000026     0.000300     YES
 Maximum Displacement     0.001034     0.001800     YES
 RMS     Displacement     0.000344     0.001200     YES
 Predicted change in Energy=-4.488728D-08
 Optimization completed.
    -- Stationary point found.
                           ----------------------------
                           !   Optimized Parameters   !
                           ! (Angstroms and Degrees)  !
 --------------------------                            --------------------------
 ! Name  Definition              Value          Derivative Info.                !
 --------------------------------------------------------------------------------
 ! R1    R(1,2)                  1.3729         -DE/DX =    0.0                 !
 ! R2    R(1,3)                  1.5166         -DE/DX =    0.0                 !
 ! R3    R(1,9)                  1.2073         -DE/DX =    0.0001              !
 ! R4    R(2,10)                 0.9954         -DE/DX =    0.0                 !
 ! R5    R(3,4)                  1.1198         -DE/DX =    0.0                 !
 ! R6    R(3,5)                  1.1183         -DE/DX =    0.0                 !
 ! R7    R(3,6)                  1.4739         -DE/DX =    0.0                 !
 ! R8    R(6,7)                  1.0173         -DE/DX =    0.0                 !
 ! R9    R(6,8)                  1.0186         -DE/DX =   -0.0001              !
 ! A1    A(2,1,3)              110.0241         -DE/DX =    0.0                 !
 ! A2    A(2,1,9)              120.5098         -DE/DX =    0.0                 !
 ! A3    A(3,1,9)              129.4657         -DE/DX =    0.0                 !
 ! A4    A(1,2,10)             113.0207         -DE/DX =    0.0                 !
 ! A5    A(1,3,4)              108.8125         -DE/DX =   -0.0001              !
 ! A6    A(1,3,5)              109.8775         -DE/DX =   -0.0001              !
 ! A7    A(1,3,6)              113.9807         -DE/DX =    0.0001              !
 ! A8    A(4,3,5)              105.1557         -DE/DX =   -0.0001              !
 ! A9    A(4,3,6)              109.0047         -DE/DX =    0.0002              !
 ! A10   A(5,3,6)              109.6283         -DE/DX =    0.0                 !
 ! A11   A(3,6,7)              111.0544         -DE/DX =    0.0                 !
 ! A12   A(3,6,8)              110.9274         -DE/DX =    0.0                 !
 ! A13   A(7,6,8)              107.1294         -DE/DX =    0.0                 !
 ! D1    D(3,1,2,10)           179.3264         -DE/DX =   -0.0001              !
 ! D2    D(9,1,2,10)            -0.9007         -DE/DX =    0.0001              !
 ! D3    D(2,1,3,4)            -71.8286         -DE/DX =    0.0004              !
 ! D4    D(2,1,3,5)             42.8082         -DE/DX =    0.0002              !
 ! D5    D(2,1,3,6)            166.2967         -DE/DX =    0.0002              !
 ! D6    D(9,1,3,4)            108.4248         -DE/DX =    0.0002              !
 ! D7    D(9,1,3,5)           -136.9384         -DE/DX =    0.0                 !
 ! D8    D(9,1,3,6)            -13.4499         -DE/DX =    0.0                 !
 ! D9    D(1,3,6,7)            -61.839          -DE/DX =    0.0                 !
 ! D10   D(1,3,6,8)             57.1799         -DE/DX =    0.0                 !
 ! D11   D(4,3,6,7)            176.3924         -DE/DX =    0.0                 !
 ! D12   D(4,3,6,8)            -64.5887         -DE/DX =    0.0                 !
 ! D13   D(5,3,6,7)             61.7844         -DE/DX =    0.0                 !
 ! D14   D(5,3,6,8)           -179.1966         -DE/DX =    0.0                 !
 --------------------------------------------------------------------------------
 Lowest energy point so far.  Saving SCF results.
 Summary of Optimized Potential Surface Scan (add -0.0 to energies):
                           1         2         3         4         5
     Eigenvalues --    -0.14819  -0.14807  -0.14680  -0.14574  -0.14622
           R1           1.37308   1.37323   1.37315   1.37479   1.37740
           R2           1.51649   1.51640   1.51973   1.52141   1.51900
           R3           1.20739   1.20739   1.20666   1.20561   1.20529
           R4           0.99516   0.99432   0.99477   0.99501   0.99453
           R5           1.11968   1.11839   1.11799   1.11846   1.12018
           R6           1.11835   1.12015   1.12013   1.11864   1.11844
           R7           1.47399   1.47354   1.47317   1.47407   1.47483
           R8           1.01725   1.01874   1.01817   1.01624   1.01581
           R9           1.01845   1.01700   1.01607   1.01635   1.01864
           A1         110.00473 110.01940 109.92219 109.86958 110.25909
           A2         120.49227 120.45865 120.39264 120.22494 120.00428
           A3         129.50240 129.52057 129.66562 129.89190 129.73455
           A4         113.03093 113.08610 113.25223 113.15097 112.90326
           A5         108.81555 110.09507 110.39292 109.75148 108.46272
           A6         109.86890 108.53731 108.11593 108.47282 108.63994
           A7         113.98220 114.08183 113.74312 113.86294 115.36113
           A8         105.16030 104.74150 105.37642 106.38597 106.34050
           A9         109.00626 109.88851 109.95720 109.04678 108.35975
           A10        109.62651 109.06333 108.88718 109.04992 109.30254
           A11        111.05831 110.92093 111.11754 111.37569 111.14085
           A12        110.93143 111.07639 111.30451 111.17821 110.67744
           A13        107.13358 107.22070 107.93805 108.25933 107.62615
           D1         179.39689-179.11125-179.51614 179.58691-179.70710
           D2          -0.85769   1.27667   1.94196   0.79884  -0.18227
           D3         -71.82883 -35.82872   0.17089  36.17102  72.17133
           D4          42.81055  78.27923 114.95919 152.01849-172.63679
           D5         166.29118-159.90462-123.97727 -86.37586 -49.54724
           D6         108.45547 143.73781 178.53697-145.19384-107.29358
           D7        -136.90515-102.15424 -66.67472 -29.34637   7.89830
           D8         -13.42451  19.66191  54.38881  92.25929 130.98785
           D9         -61.80353 -56.46756 -56.85686 -58.47143 -60.03102
           D10         57.22592  62.67609  63.47410  62.35767  59.50373
           D11        176.42175 179.34568 178.75998 178.59575 178.19501
           D12        -64.54880 -61.51067 -60.90906 -60.57516 -62.27023
           D13         61.80835  65.05831  63.77455  62.81365  62.70661
           D14       -179.16221-175.79804-175.89449-176.35725-177.75863
                           6         7         8         9        10
     Eigenvalues --    -0.14714  -0.14703  -0.14602  -0.14586  -0.14712
           R1           1.37835   1.37843   1.37682   1.37420   1.37285
           R2           1.51572   1.51583   1.51979   1.52134   1.51895
           R3           1.20557   1.20561   1.20529   1.20583   1.20693
           R4           0.99484   0.99461   0.99467   0.99506   0.99530
           R5           1.12082   1.11965   1.11867   1.11888   1.11989
           R6           1.11985   1.12102   1.11998   1.11805   1.11784
           R7           1.47479   1.47412   1.47363   1.47458   1.47455
           R8           1.01758   1.01889   1.01830   1.01604   1.01614
           R9           1.01862   1.01714   1.01590   1.01664   1.01833
           A1         110.72554 110.71653 110.13931 109.84099 109.95904
           A2         119.91083 119.89463 120.05263 120.27764 120.43376
           A3         129.36085 129.38422 129.80766 129.85929 129.59148
           A4         112.76268 112.76191 112.95270 113.20081 113.19829
           A5         108.00337 108.46899 108.58084 108.44803 108.23565
           A6         108.40488 107.94368 108.62345 110.03644 110.48322
           A7         116.61058 116.62252 115.19322 113.54820 113.54725
           A8         105.43190 104.96944 105.80474 106.74309 106.24887
           A9         108.68243 109.41938 109.54935 108.76310 108.44650
           A10        109.13595 108.78488 108.67595 109.06951 109.58966
           A11        110.69666 110.53323 110.76204 111.28489 111.28739
           A12        110.54862 110.75034 111.21969 111.35765 111.05639
           A13        106.76803 106.90396 107.81373 108.23499 107.76843
           D1        -179.46084 179.34212 179.80832-179.59767 179.29286
           D2          -0.01215   0.05174   0.01575  -1.14387  -2.01574
           D3         108.17127 144.17131-179.82872-143.82871-107.82876
           D4        -138.06201-102.59940 -65.21493 -27.41127   8.11984
           D5         -14.48065  20.14856  56.92297  95.15613 131.70745
           D6         -71.21065 -36.62465  -0.06244  37.91086  73.63543
           D7          42.55607  76.60464 114.55134 154.32830-170.41597
           D8         166.13743-160.64740-123.31076 -83.10430 -46.82836
           D9         -59.32694 -58.67458 -60.01905 -62.71346 -63.51759
           D10         58.77070  59.61562  59.85935  58.14562  56.54566
           D11        178.37488 177.79036 177.24824 176.44842 176.13774
           D12        -63.52748 -63.91945 -62.87335 -62.69251 -63.79902
           D13         63.87751  63.63554  62.09063  60.38614  60.55625
           D14       -178.02485-178.07426-178.03097-178.75479-179.38051
                          11
     Eigenvalues --    -0.14819
           R1           1.37292
           R2           1.51656
           R3           1.20735
           R4           0.99540
           R5           1.11978
           R6           1.11828
           R7           1.47392
           R8           1.01729
           R9           1.01861
           A1         110.02405
           A2         120.50976
           A3         129.46572
           A4         113.02074
           A5         108.81251
           A6         109.87750
           A7         113.98068
           A8         105.15565
           A9         109.00468
           A10        109.62828
           A11        111.05439
           A12        110.92742
           A13        107.12936
           D1         179.32644
           D2          -0.90068
           D3         -71.82864
           D4          42.80817
           D5         166.29668
           D6         108.42482
           D7        -136.93837
           D8         -13.44985
           D9         -61.83905
           D10         57.17994
           D11        176.39236
           D12        -64.58866
           D13         61.78439
           D14       -179.19662
 Largest change from initial coordinates is atom    4       0.935 Angstoms.
 GradGradGradGradGradGradGradGradGradGradGradGradGradGradGradGradGradGrad

 Leave Link  103 at Tue Nov 28 15:48:24 2023, MaxMem=   134217728 cpu:               0.0 elap:               0.0
 (Enter /home/emanuele/chem_software/gaussian//gdv/l202.exe)
                          Input orientation:                          
 ---------------------------------------------------------------------
 Center     Atomic      Atomic             Coordinates (Angstroms)
 Number     Number       Type             X           Y           Z
 ---------------------------------------------------------------------
      1          6           0       -0.519982   -0.039489    0.170503
      2          8           0       -1.311279    0.555815   -0.780477
      3          6           0        0.857223   -0.318082   -0.400150
      4          1           0        0.780481   -1.160704   -1.133636
      5          1           0        1.205451    0.559891   -0.998852
      6          7           0        1.869423   -0.657122    0.616188
      7          1           0        2.007278    0.113397    1.265940
      8          1           0        1.577692   -1.463993    1.165208
      9          8           0       -0.952304   -0.262555    1.275506
     10          1           0       -2.231957    0.749254   -0.455281
 ---------------------------------------------------------------------
                    Distance matrix (angstroms):
                    1          2          3          4          5
     1  C    0.000000
     2  O    1.372917   0.000000
     3  C    1.516560   2.368701   0.000000
     4  H    2.156179   2.728849   1.119778   0.000000
     5  H    2.168817   2.526189   1.118277   1.777418   0.000000
     6  N    2.507861   3.679505   1.473921   2.121621   2.128459
     7  H    2.758695   3.923822   2.069942   2.980995   2.443679
     8  H    2.723764   4.026347   2.069429   2.451982   2.986273
     9  O    1.207349   2.241799   2.466839   3.100513   3.241146
    10  H    1.986096   0.995399   3.268834   3.630824   3.485268
                    6          7          8          9         10
     6  N    0.000000
     7  H    1.017291   0.000000
     8  H    1.018612   1.637941   0.000000
     9  O    2.924471   2.983380   2.802945   0.000000
    10  H    4.466235   4.619310   4.694451   2.378422   0.000000
 Symmetry turned off by external request.
 Stoichiometry    C2H5NO2
 Framework group  C1[X(C2H5NO2)]
 Deg. of freedom    24
 Full point group                 C1      NOp   1
 Rotational constants (GHZ):          10.0547488           3.8130845           2.8730168
 Leave Link  202 at Tue Nov 28 15:48:24 2023, MaxMem=   134217728 cpu:               0.1 elap:               0.0
 (Enter /home/emanuele/chem_software/gaussian//gdv/l601.exe)
 Copying SCF densities to generalized density rwf, IOpCl= 0 IROHF=0.

 **********************************************************************

            Population analysis using the SCF Density.

 **********************************************************************

 Alpha  occ. eigenvalues --       -1.20533      -1.15837      -1.13522      -0.95571      -0.79255
 Alpha  occ. eigenvalues --       -0.67712      -0.66146      -0.63160      -0.59299      -0.56767
 Alpha  occ. eigenvalues --       -0.51845      -0.49041      -0.46138      -0.43389      -0.37353
 Alpha virt. eigenvalues --        0.00787       0.04838       0.08495       0.11204       0.13853
 Alpha virt. eigenvalues --        0.16148       0.16868       0.18536       0.20534       0.23549
          Condensed to atoms (all electrons):
               1          2          3          4          5          6
     1  C    3.419270   0.000000   0.000000   0.000000   0.000000   0.000000
     2  O    0.000000   6.528520   0.000000   0.000000   0.000000   0.000000
     3  C    0.000000   0.000000   4.249605   0.000000   0.000000   0.000000
     4  H    0.000000   0.000000   0.000000   0.806740   0.000000   0.000000
     5  H    0.000000   0.000000   0.000000   0.000000   0.805329   0.000000
     6  N    0.000000   0.000000   0.000000   0.000000   0.000000   5.464937
     7  H    0.000000   0.000000   0.000000   0.000000   0.000000   0.000000
     8  H    0.000000   0.000000   0.000000   0.000000   0.000000   0.000000
     9  O    0.000000   0.000000   0.000000   0.000000   0.000000   0.000000
    10  H    0.000000   0.000000   0.000000   0.000000   0.000000   0.000000
               7          8          9         10
     1  C    0.000000   0.000000   0.000000   0.000000
     2  O    0.000000   0.000000   0.000000   0.000000
     3  C    0.000000   0.000000   0.000000   0.000000
     4  H    0.000000   0.000000   0.000000   0.000000
     5  H    0.000000   0.000000   0.000000   0.000000
     6  N    0.000000   0.000000   0.000000   0.000000
     7  H    0.783016   0.000000   0.000000   0.000000
     8  H    0.000000   0.778558   0.000000   0.000000
     9  O    0.000000   0.000000   6.506973   0.000000
    10  H    0.000000   0.000000   0.000000   0.657052
 Mulliken charges:
               1
     1  C    0.580730
     2  O   -0.528520
     3  C   -0.249605
     4  H    0.193260
     5  H    0.194671
     6  N   -0.464937
     7  H    0.216984
     8  H    0.221442
     9  O   -0.506973
    10  H    0.342948
 Sum of Mulliken charges =  -0.00000
 Mulliken charges with hydrogens summed into heavy atoms:
               1
     1  C    0.580730
     2  O   -0.185572
     3  C    0.138326
     6  N   -0.026511
     9  O   -0.506973
 Charge=             -0.0000 electrons
 Dipole moment (field-independent basis, Debye):
    X=             -0.4904    Y=              0.5082    Z=             -0.7942  Tot=              1.0628
 N-N= 1.247889537643D+02 E-N=-1.629598757426D+02  KE=-6.560307270688D+01
 Leave Link  601 at Tue Nov 28 15:48:24 2023, MaxMem=   134217728 cpu:               0.1 elap:               0.0
 (Enter /home/emanuele/chem_software/gaussian//gdv/l9999.exe)
 Unable to Open any file for archive entry.
 1\1\GINC-EMANUELE-XPS-13-9343\Scan\RPM6\ZDO\C2H5N1O2\EMANUELE\28-Nov-2
 023\0\\#p nosymm geom=nocrowd opt=(modredundant,maxcycle=100) PM6\\Tit
 le\\0,1\C,-0.5199823742,-0.039488832,0.1705033232\O,-1.311278843,0.555
 8147227,-0.7804771926\C,0.8572225653,-0.3180821086,-0.4001499863\H,0.7
 804806631,-1.160704236,-1.133636098\H,1.2054505395,0.5598912322,-0.998
 8520149\N,1.8694232402,-0.6571217855,0.6161884871\H,2.0072778308,0.113
 3974316,1.2659403397\H,1.5776921365,-1.4639929704,1.1652084027\O,-0.95
 23040794,-0.2625549821,1.275506496\H,-2.2319566787,0.7492535281,-0.455
 2807568\\Version=ES64L-GDVRevJ.14\HF=-0.1481884,-0.1480669,-0.1467983,
 -0.1457407,-0.1462183,-0.1471408,-0.1470285,-0.1460242,-0.1458632,-0.1
 47118,-0.1481884\RMSD=4.145e-09,8.086e-09,3.977e-09,3.722e-09,9.612e-0
 9,9.710e-09,3.934e-09,2.791e-09,2.887e-09,7.525e-09,9.411e-09\PG=C01 [
 X(C2H5N1O2)]\\@
 The archive entry for this job was punched.


 GOD DOES NOT PLAY WITH DICE.
               -- A. EINSTEIN
 Job cpu time:       0 days  0 hours  2 minutes 58.6 seconds.
 Elapsed time:       0 days  0 hours  0 minutes 46.5 seconds.
 File lengths (MBytes):  RWF=      6 Int=      0 D2E=      0 Chk=      2 Scr=      1
 Normal termination of Gaussian DV at Tue Nov 28 15:48:24 2023.
