 Entering Gaussian System, Link 0=/home/emanuele/chem_software/gaussian//g09/g09
 Input=0_qm.gjf
 Output=0_qm.log
 Initial command:
 /home/emanuele/chem_software/gaussian//gdv/l1.exe "/home/emanuele/chem_software/gaussian/scratch/Gau-6563.inp" -scrdir="/home/emanuele/chem_software/gaussian/scratch/"
 Entering Link 1 = /home/emanuele/chem_software/gaussian//gdv/l1.exe PID=      6565.
  
 Copyright (c) 1988-2020, Gaussian, Inc.  All Rights Reserved.
  
 This is the private, development version of
 the Gaussian(R) DV system of programs. It is based on
 the Gaussian(R) 16 system (copyright 2016, Gaussian, Inc.),
 the Gaussian(R) 09 system (copyright 2009, Gaussian, Inc.),
 the Gaussian(R) 03 system (copyright 2003, Gaussian, Inc.),
 the Gaussian(R) 98 system (copyright 1998, Gaussian, Inc.),
 the Gaussian(R) 94 system (copyright 1995, Gaussian, Inc.),
 the Gaussian 92(TM) system (copyright 1992, Gaussian, Inc.),
 the Gaussian 90(TM) system (copyright 1990, Gaussian, Inc.),
 the Gaussian 88(TM) system (copyright 1988, Gaussian, Inc.),
 the Gaussian 86(TM) system (copyright 1986, Carnegie Mellon
 University), and the Gaussian 82(TM) system (copyright 1983,
 Carnegie Mellon University). Gaussian is a federally registered
 trademark of Gaussian, Inc.
  
 This software contains proprietary and confidential information,
 including trade secrets, belonging to Gaussian, Inc.
  
 This software is provided under written license and may be
 used, copied, transmitted, or stored only in accord with that
 written license.
  
 The following legend is applicable only to US Government
 contracts under FAR:
  
                    RESTRICTED RIGHTS LEGEND
  
 Use, reproduction and disclosure by the US Government is
 subject to restrictions as set forth in subparagraphs (a)
 and (c) of the Commercial Computer Software - Restricted
 Rights clause in FAR 52.227-19.
  
 Gaussian, Inc.
 340 Quinnipiac St., Bldg. 40, Wallingford CT 06492
  
  
 ---------------------------------------------------------------
 Warning -- This program may not be used in any manner that
 competes with the business of Gaussian, Inc. or will provide
 assistance to any competitor of Gaussian, Inc.  The licensee
 of this program is prohibited from giving any competitor of
 Gaussian, Inc. access to this program.  By using this program,
 the user acknowledges that Gaussian, Inc. is engaged in the
 business of creating and licensing software in the field of
 computational chemistry and represents and warrants to the
 licensee that it is not a competitor of Gaussian, Inc. and that
 it will not use this program in any manner prohibited above.
 ---------------------------------------------------------------
  

 Cite this work as:
 Gaussian Development Version, Revision J.14,
 M. J. Frisch, G. W. Trucks, H. B. Schlegel, G. E. Scuseria, 
 M. A. Robb, J. R. Cheeseman, G. Scalmani, V. Barone, 
 G. A. Petersson, H. Nakatsuji, X. Li, A. V. Marenich, M. Caricato, 
 J. Bloino, B. G. Janesko, J. Zheng, R. Gomperts, B. Mennucci, 
 H. P. Hratchian, J. V. Ortiz, A. F. Izmaylov, J. L. Sonnenberg, 
 D. Williams-Young, F. Ding, F. Lipparini, F. Egidi, J. Goings, 
 B. Peng, A. Petrone, T. Henderson, D. Ranasinghe, V. G. Zakrzewski, 
 J. Gao, N. Rega, G. Zheng, W. Liang, M. Hada, M. Ehara, K. Toyota, 
 R. Fukuda, J. Hasegawa, M. Ishida, T. Nakajima, Y. Honda, O. Kitao, 
 H. Nakai, T. Vreven, K. Throssell, J. A. Montgomery, Jr., 
 J. E. Peralta, F. Ogliaro, M. J. Bearpark, J. J. Heyd, 
 E. N. Brothers, K. N. Kudin, V. N. Staroverov, T. A. Keith, 
 R. Kobayashi, J. Normand, K. Raghavachari, A. P. Rendell, 
 J. C. Burant, S. S. Iyengar, J. Tomasi, M. Cossi, J. M. Millam, 
 M. Klene, C. Adamo, R. Cammi, J. W. Ochterski, R. L. Martin, 
 K. Morokuma, O. Farkas, J. B. Foresman, and D. J. Fox, 
 Gaussian, Inc., Wallingford CT, 2020.
 
 ******************************************
 Gaussian DV:  ES64L-GDVRevJ.14 29-Dec-2020
                 1-Jan-2024 
 ******************************************
 %mem=1GB
 %nprocshared=4
 Will use up to    4 processors via shared memory.
 %chk=0_qm.chk
 -------------------------------------------------------------------
 #p nosymm geom=nocrowd opt=(modredundant,maxcycle=100) PBEPBE/6-31G
 -------------------------------------------------------------------
 1/6=100,18=120,19=15,26=3,37=210000000,38=1/1,3;
 2/9=110,12=1,15=1,40=1/2;
 3/5=1,6=6,11=2,25=1,30=1,71=1,74=10009/1,2,3;
 4//1;
 5/5=2,38=5/2;
 6/7=2,8=2,9=2,10=2,28=1/1;
 7/30=1/1,2,3,16;
 1/6=100,18=20,19=15,26=3/3(2);
 2/9=110,12=1,15=1/2;
 99//99;
 2/9=110,12=1,15=1/2;
 3/5=1,6=6,11=2,25=1,30=1,71=1,74=10009/1,2,3;
 4/5=5,16=3,69=1/1;
 5/5=2,38=5/2;
 7/30=1/1,2,3,16;
 1/6=100,18=20,19=15,26=3/3(-5);
 2/9=110,12=1,15=1/2;
 6/7=2,8=2,9=2,10=2,19=2,28=1/1;
 99/9=1/99;
 Leave Link    1 at Mon Jan  1 11:51:17 2024, MaxMem=   134217728 cpu:               0.2 elap:               0.1
 (Enter /home/emanuele/chem_software/gaussian//gdv/l101.exe)
 -----
 Title
 -----
 Symbolic Z-matrix:
 Charge =  0 Multiplicity = 1
 C                    -0.53685   0.10417   0.01464 
 O                    -1.63632  -0.67637  -0.06827 
 C                     0.72601  -0.7177    0.10528 
 H                     0.71699  -1.15712   1.11445 
 H                     0.64338  -1.5538   -0.59228 
 N                     1.88901   0.09773  -0.1951 
 H                     1.74816   1.04081   0.14593 
 H                     2.72354  -0.27843   0.23189 
 O                    -0.58681   1.30563   0.04628 
 H                    -2.40509  -0.08851  -0.07785 
 
 The following ModRedundant input section has been read:
 D       2       1       3       4 S  10 36.000                                
 
 ITRead=  0  0  0  0  0  0  0  0  0  0
 MicOpt= -1 -1 -1 -1 -1 -1 -1 -1 -1 -1
 NAtoms=     10 NQM=       10 NQMF=       0 NMMI=      0 NMMIF=      0
                NMic=       0 NMicF=      0.
                    Isotopes and Nuclear Properties:
 (Nuclear quadrupole moments (NQMom) in fm**2, nuclear magnetic moments (NMagM)
  in nuclear magnetons)

  Atom         1           2           3           4           5           6           7           8           9          10
 IAtWgt=          12          16          12           1           1          14           1           1          16           1
 AtmWgt=  12.0000000  15.9949146  12.0000000   1.0078250   1.0078250  14.0030740   1.0078250   1.0078250  15.9949146   1.0078250
 NucSpn=           0           0           0           1           1           2           1           1           0           1
 AtZEff=  -0.0000000  -0.0000000  -0.0000000  -0.0000000  -0.0000000  -0.0000000  -0.0000000  -0.0000000  -0.0000000  -0.0000000
 NQMom=    0.0000000   0.0000000   0.0000000   0.0000000   0.0000000   2.0440000   0.0000000   0.0000000   0.0000000   0.0000000
 NMagM=    0.0000000   0.0000000   0.0000000   2.7928460   2.7928460   0.4037610   2.7928460   2.7928460   0.0000000   2.7928460
 AtZNuc=   6.0000000   8.0000000   6.0000000   1.0000000   1.0000000   7.0000000   1.0000000   1.0000000   8.0000000   1.0000000
 Leave Link  101 at Mon Jan  1 11:51:17 2024, MaxMem=   134217728 cpu:               0.9 elap:               0.3
 (Enter /home/emanuele/chem_software/gaussian//gdv/l103.exe)

 GradGradGradGradGradGradGradGradGradGradGradGradGradGradGradGradGradGrad
 Berny optimization.
 Initialization pass.
                           ----------------------------
                           !    Initial Parameters    !
                           ! (Angstroms and Degrees)  !
 --------------------------                            --------------------------
 ! Name  Definition              Value          Derivative Info.                !
 --------------------------------------------------------------------------------
 ! R1    R(1,2)                  1.3509         estimate D2E/DX2                !
 ! R2    R(1,3)                  1.5095         estimate D2E/DX2                !
 ! R3    R(1,9)                  1.2029         estimate D2E/DX2                !
 ! R4    R(2,10)                 0.9678         estimate D2E/DX2                !
 ! R5    R(3,4)                  1.1007         estimate D2E/DX2                !
 ! R6    R(3,5)                  1.092          estimate D2E/DX2                !
 ! R7    R(3,6)                  1.4518         estimate D2E/DX2                !
 ! R8    R(6,7)                  1.0127         estimate D2E/DX2                !
 ! R9    R(6,8)                  1.0101         estimate D2E/DX2                !
 ! A1    A(2,1,3)              111.7154         estimate D2E/DX2                !
 ! A2    A(2,1,9)              123.0182         estimate D2E/DX2                !
 ! A3    A(3,1,9)              125.2388         estimate D2E/DX2                !
 ! A4    A(1,2,10)             107.2257         estimate D2E/DX2                !
 ! A5    A(1,3,4)              105.4003         estimate D2E/DX2                !
 ! A6    A(1,3,5)              108.3736         estimate D2E/DX2                !
 ! A7    A(1,3,6)              110.6071         estimate D2E/DX2                !
 ! A8    A(4,3,5)              106.2232         estimate D2E/DX2                !
 ! A9    A(4,3,6)              114.8648         estimate D2E/DX2                !
 ! A10   A(5,3,6)              111.0079         estimate D2E/DX2                !
 ! A11   A(3,6,7)              109.9968         estimate D2E/DX2                !
 ! A12   A(3,6,8)              111.4207         estimate D2E/DX2                !
 ! A13   A(7,6,8)              108.6253         estimate D2E/DX2                !
 ! D1    D(3,1,2,10)           177.195          estimate D2E/DX2                !
 ! D2    D(9,1,2,10)            -0.9857         estimate D2E/DX2                !
 ! D3    D(2,1,3,4)            -71.8288         Scan                            !
 ! D4    D(2,1,3,5)             41.552          estimate D2E/DX2                !
 ! D5    D(2,1,3,6)            163.4539         estimate D2E/DX2                !
 ! D6    D(9,1,3,4)            106.3034         estimate D2E/DX2                !
 ! D7    D(9,1,3,5)           -140.3158         estimate D2E/DX2                !
 ! D8    D(9,1,3,6)            -18.4139         estimate D2E/DX2                !
 ! D9    D(1,3,6,7)             34.6533         estimate D2E/DX2                !
 ! D10   D(1,3,6,8)            155.1742         estimate D2E/DX2                !
 ! D11   D(4,3,6,7)            -84.4877         estimate D2E/DX2                !
 ! D12   D(4,3,6,8)             36.0331         estimate D2E/DX2                !
 ! D13   D(5,3,6,7)            154.9936         estimate D2E/DX2                !
 ! D14   D(5,3,6,8)            -84.4855         estimate D2E/DX2                !
 --------------------------------------------------------------------------------
 Trust Radius=3.00D-01 FncErr=1.00D-07 GrdErr=1.00D-06 EigMax=2.50D+02 EigMin=1.00D-04
 Number of optimizations in scan=  11
 Number of steps in this run=    100 maximum allowed number of steps=    100.
 GradGradGradGradGradGradGradGradGradGradGradGradGradGradGradGradGradGrad

 Leave Link  103 at Mon Jan  1 11:51:18 2024, MaxMem=   134217728 cpu:               0.0 elap:               0.0
 (Enter /home/emanuele/chem_software/gaussian//gdv/l202.exe)
                          Input orientation:                          
 ---------------------------------------------------------------------
 Center     Atomic      Atomic             Coordinates (Angstroms)
 Number     Number       Type             X           Y           Z
 ---------------------------------------------------------------------
      1          6           0       -0.536850    0.104174    0.014636
      2          8           0       -1.636322   -0.676373   -0.068268
      3          6           0        0.726013   -0.717700    0.105280
      4          1           0        0.716994   -1.157121    1.114447
      5          1           0        0.643380   -1.553795   -0.592281
      6          7           0        1.889013    0.097733   -0.195097
      7          1           0        1.748159    1.040807    0.145925
      8          1           0        2.723536   -0.278432    0.231888
      9          8           0       -0.586810    1.305633    0.046275
     10          1           0       -2.405088   -0.088514   -0.077854
 ---------------------------------------------------------------------
                    Distance matrix (angstroms):
                    1          2          3          4          5
     1  C    0.000000
     2  O    1.350913   0.000000
     3  C    1.509475   2.369062   0.000000
     4  H    2.091070   2.677318   1.100723   0.000000
     5  H    2.123712   2.498299   1.092005   1.753764   0.000000
     6  N    2.434921   3.611553   1.451801   2.159443   2.106395
     7  H    2.473011   3.801223   2.034400   2.613852   2.915038
     8  H    3.289940   4.388258   2.049167   2.361613   2.575433
     9  O    1.202913   2.245650   2.412646   2.984301   3.177648
    10  H    1.880424   0.967818   3.198938   3.508689   3.421234
                    6          7          8          9         10
     6  N    0.000000
     7  H    1.012682   0.000000
     8  H    1.010072   1.642906   0.000000
     9  O    2.765318   2.352051   3.674521   0.000000
    10  H    4.299737   4.309861   5.141478   2.294600   0.000000
 Symmetry turned off by external request.
 Stoichiometry    C2H5NO2
 Framework group  C1[X(C2H5NO2)]
 Deg. of freedom    24
 Full point group                 C1      NOp   1
 Rotational constants (GHZ):          10.4489861           3.9571341           2.9518000
 Leave Link  202 at Mon Jan  1 11:51:18 2024, MaxMem=   134217728 cpu:               0.1 elap:               0.0
 (Enter /home/emanuele/chem_software/gaussian//gdv/l301.exe)
 Standard basis: 6-31G (6D, 7F)
 Ernie: Thresh=  0.10000D-02 Tol=  0.10000D-05 Strict=F.
    55 basis functions,   130 primitive gaussians,    55 cartesian basis functions
    20 alpha electrons       20 beta electrons
       nuclear repulsion energy       179.9791115102 Hartrees.
 IExCor=   10009 DFT=T Ex=PBE Corr=PBE N6=None ScaHFX=  0.000000
 ScaDFX=  1.000000  1.000000  1.000000  1.000000  1.000000  0.000000
 ScaDFX=  0.000000  0.000000  0.000000  0.000000  0.000000  0.000000
 IRadAn=      5 IRanWt=     -1 IRanGd=            0 ICorTp=0 IEmpDi=  4
 NAtoms=   10 NActive=   10 NUniq=   10 SFac= 1.00D+00 NAtFMM=   60 NAOKFM=F Big=F
 Integral buffers will be    131072 words long.
 Raffenetti 2 integral format.
 Two-electron integral symmetry is turned off.
 Leave Link  301 at Mon Jan  1 11:51:18 2024, MaxMem=   134217728 cpu:               0.2 elap:               0.1
 (Enter /home/emanuele/chem_software/gaussian//gdv/l302.exe)
 NPDir=0 NMtPBC=     1 NCelOv=     1 NCel=       1 NClECP=     1 NCelD=      1
         NCelK=      1 NCelE2=     1 NClLst=     1 CellRange=     0.0.
 One-electron integrals computed using PRISM.
 NBasis=    55 RedAO= T EigKep=  5.66D-03  NBF=    55
 NBsUse=    55 1.00D-06 EigRej= -1.00D+00 NBFU=    55
 Precomputing XC quadrature grid using
 IXCGrd= 4 IRadAn=           5 IRanWt=          -1 IRanGd=           0 AccXCQ= 0.00D+00.
 Generated NRdTot=       0 NPtTot=      218924 NUsed=           0 NTot=          64
 NSgBfM=    55    55    55    55    55 MxSgAt=    10 MxSgA2=    10 SizInc=   0.000
 NMBTot=     1903 MaxBatPerAtom=       84 MaxMicBPerAtom=      198.
 Leave Link  302 at Mon Jan  1 11:51:18 2024, MaxMem=   134217728 cpu:               0.6 elap:               0.2
 (Enter /home/emanuele/chem_software/gaussian//gdv/l303.exe)
 DipDrv:  MaxL=1.
 Leave Link  303 at Mon Jan  1 11:51:18 2024, MaxMem=   134217728 cpu:               0.1 elap:               0.0
 (Enter /home/emanuele/chem_software/gaussian//gdv/l401.exe)
 ExpMin= 1.61D-01 ExpMax= 5.48D+03 ExpMxC= 8.25D+02 IAcc=3 IRadAn=         5 AccDes= 0.00D+00
 Harris functional with IExCor=10009 and IRadAn=       5 diagonalized for initial guess.
 HarFok:  IExCor=   10009 AccDes= 0.00D+00 IRadAn=         5 IDoV= 1 UseB2=F ITyADJ=14 ICtDFT=  3500011
 FoFCou: FMM=F IPFlag=           0 FMFlag=      100000 FMFlg1=           0
         NFxFlg=           0 DoJE=T BraDBF=F KetDBF=T FulRan=T
         wScrn=  0.000000 ICntrl=       500 IOpCl=  0 I1Cent=   200000004 NGrid=           0
         NMat0=    1 NMatS0=      1 NMatT0=    0 NMatD0=    1 NMtDS0=    0 NMtDT0=    0
 Symmetry not used in FoFCou.
 Harris En= -284.094167280963    
 JPrj=0 DoOrth=F DoCkMO=F.
 Leave Link  401 at Mon Jan  1 11:51:18 2024, MaxMem=   134217728 cpu:               2.2 elap:               0.6
 (Enter /home/emanuele/chem_software/gaussian//gdv/l502.exe)
 Keep J ints in memory in canonical form, NReq=4700713.
 FoFCou: FMM=F IPFlag=           0 FMFlag=           0 FMFlg1=           0
         NFxFlg=           0 DoJE=F BraDBF=F KetDBF=F FulRan=T
         wScrn=  0.000000 ICntrl=       600 IOpCl=  0 I1Cent=           0 NGrid=           0
         NMat0=    1 NMatS0=   1540 NMatT0=    0 NMatD0=    1 NMtDS0=    0 NMtDT0=    0
 Symmetry not used in FoFCou.
 Two-electron integral symmetry not used.
 Closed shell SCF:
 Using DIIS extrapolation, IDIIS=  1040.
 NGot=   134217728 LenX=   133023731 LenY=   133020265
 Requested convergence on RMS density matrix=1.00D-08 within 128 cycles.
 Requested convergence on MAX density matrix=1.00D-06.
 Requested convergence on             energy=1.00D-06.
 No special actions if energy rises.
 Integral accuracy reduced to 1.0D-05 until final iterations.

 Cycle   1  Pass 0  IDiag  1:
 E= -283.851103811744    
 DIIS: error= 4.55D-02 at cycle   1 NSaved=   1.
 NSaved= 1 IEnMin= 1 EnMin= -283.851103811744     IErMin= 1 ErrMin= 4.55D-02
 ErrMax= 4.55D-02  0.00D+00 EMaxC= 1.00D-01 BMatC= 1.73D-01 BMatP= 1.73D-01
 IDIUse=3 WtCom= 5.45D-01 WtEn= 4.55D-01
 Coeff-Com:  0.100D+01
 Coeff-En:   0.100D+01
 Coeff:      0.100D+01
 Gap=     0.036 Goal=   None    Shift=    0.000
 GapD=    0.036 DampG=0.250 DampE=0.500 DampFc=0.2500 IDamp=-1.
 Damping current iteration by 2.50D-01
 RMSDP=2.37D-02 MaxDP=2.45D-01              OVMax= 2.91D-01

 Cycle   2  Pass 0  IDiag  1:
 E= -283.901317743675     Delta-E=       -0.050213931930 Rises=F Damp=T
 DIIS: error= 1.71D-02 at cycle   2 NSaved=   2.
 NSaved= 2 IEnMin= 2 EnMin= -283.901317743675     IErMin= 2 ErrMin= 1.71D-02
 ErrMax= 1.71D-02  0.00D+00 EMaxC= 1.00D-01 BMatC= 1.74D-02 BMatP= 1.73D-01
 IDIUse=3 WtCom= 8.29D-01 WtEn= 1.71D-01
 Coeff-Com: -0.251D+00 0.125D+01
 Coeff-En:   0.881D-01 0.912D+00
 Coeff:     -0.193D+00 0.119D+01
 Gap=     0.085 Goal=   None    Shift=    0.000
 RMSDP=6.36D-03 MaxDP=6.77D-02 DE=-5.02D-02 OVMax= 2.42D-01

 Cycle   3  Pass 0  IDiag  1:
 E= -283.949667404942     Delta-E=       -0.048349661267 Rises=F Damp=F
 DIIS: error= 3.63D-02 at cycle   3 NSaved=   3.
 NSaved= 3 IEnMin= 3 EnMin= -283.949667404942     IErMin= 2 ErrMin= 1.71D-02
 ErrMax= 3.63D-02  0.00D+00 EMaxC= 1.00D-01 BMatC= 6.47D-02 BMatP= 1.74D-02
 IDIUse=2 WtCom= 0.00D+00 WtEn= 1.00D+00
 EnCoef did     7 forward-backward iterations
 Coeff-En:   0.104D+00 0.707D-01 0.825D+00
 Coeff:      0.104D+00 0.707D-01 0.825D+00
 Gap=     0.155 Goal=   None    Shift=    0.000
 RMSDP=1.49D-02 MaxDP=1.85D-01 DE=-4.83D-02 OVMax= 3.57D-01

 Cycle   4  Pass 0  IDiag  1:
 E= -283.619143461251     Delta-E=        0.330523943691 Rises=F Damp=F
 DIIS: error= 1.09D-01 at cycle   4 NSaved=   4.
 NSaved= 4 IEnMin= 3 EnMin= -283.949667404942     IErMin= 2 ErrMin= 1.71D-02
 ErrMax= 1.09D-01  0.00D+00 EMaxC= 1.00D-01 BMatC= 4.77D-01 BMatP= 1.74D-02
 IDIUse=2 WtCom= 0.00D+00 WtEn= 1.00D+00
 EnCoef did     1 forward-backward iterations
 Coeff-En:   0.368D-01 0.000D+00 0.778D+00 0.185D+00
 Coeff:      0.368D-01 0.000D+00 0.778D+00 0.185D+00
 Gap=     0.186 Goal=   None    Shift=    0.000
 RMSDP=8.92D-03 MaxDP=1.11D-01 DE= 3.31D-01 OVMax= 2.04D-01

 Cycle   5  Pass 0  IDiag  1:
 E= -283.969051555092     Delta-E=       -0.349908093841 Rises=F Damp=F
 DIIS: error= 3.01D-02 at cycle   5 NSaved=   5.
 NSaved= 5 IEnMin= 5 EnMin= -283.969051555092     IErMin= 2 ErrMin= 1.71D-02
 ErrMax= 3.01D-02  0.00D+00 EMaxC= 1.00D-01 BMatC= 4.36D-02 BMatP= 1.74D-02
 IDIUse=2 WtCom= 0.00D+00 WtEn= 1.00D+00
 Coeff-En:   0.000D+00 0.000D+00 0.424D+00 0.000D+00 0.576D+00
 Coeff:      0.000D+00 0.000D+00 0.424D+00 0.000D+00 0.576D+00
 Gap=     0.137 Goal=   None    Shift=    0.000
 RMSDP=3.35D-03 MaxDP=4.91D-02 DE=-3.50D-01 OVMax= 8.02D-02

 Cycle   6  Pass 0  IDiag  1:
 E= -284.002773987010     Delta-E=       -0.033722431918 Rises=F Damp=F
 DIIS: error= 6.19D-03 at cycle   6 NSaved=   6.
 NSaved= 6 IEnMin= 6 EnMin= -284.002773987010     IErMin= 6 ErrMin= 6.19D-03
 ErrMax= 6.19D-03  0.00D+00 EMaxC= 1.00D-01 BMatC= 1.79D-03 BMatP= 1.74D-02
 IDIUse=3 WtCom= 9.38D-01 WtEn= 6.19D-02
 Coeff-Com: -0.652D-01 0.124D+00 0.224D+00-0.513D-01 0.430D+00 0.338D+00
 Coeff-En:   0.000D+00 0.000D+00 0.000D+00 0.000D+00 0.000D+00 0.100D+01
 Coeff:     -0.612D-01 0.117D+00 0.210D+00-0.481D-01 0.403D+00 0.379D+00
 Gap=     0.143 Goal=   None    Shift=    0.000
 RMSDP=6.46D-04 MaxDP=1.05D-02 DE=-3.37D-02 OVMax= 8.76D-03

 Cycle   7  Pass 0  IDiag  1:
 E= -284.004127398427     Delta-E=       -0.001353411418 Rises=F Damp=F
 DIIS: error= 1.16D-03 at cycle   7 NSaved=   7.
 NSaved= 7 IEnMin= 7 EnMin= -284.004127398427     IErMin= 7 ErrMin= 1.16D-03
 ErrMax= 1.16D-03  0.00D+00 EMaxC= 1.00D-01 BMatC= 6.54D-05 BMatP= 1.79D-03
 IDIUse=3 WtCom= 9.88D-01 WtEn= 1.16D-02
 Coeff-Com: -0.177D-01 0.315D-01 0.595D-01-0.201D-01 0.137D+00 0.226D+00
 Coeff-Com:  0.584D+00
 Coeff-En:   0.000D+00 0.000D+00 0.000D+00 0.000D+00 0.000D+00 0.000D+00
 Coeff-En:   0.100D+01
 Coeff:     -0.175D-01 0.312D-01 0.588D-01-0.199D-01 0.135D+00 0.224D+00
 Coeff:      0.589D+00
 Gap=     0.143 Goal=   None    Shift=    0.000
 RMSDP=1.44D-04 MaxDP=1.68D-03 DE=-1.35D-03 OVMax= 2.01D-03

 Cycle   8  Pass 0  IDiag  1:
 E= -284.004179953339     Delta-E=       -0.000052554911 Rises=F Damp=F
 DIIS: error= 2.16D-04 at cycle   8 NSaved=   8.
 NSaved= 8 IEnMin= 8 EnMin= -284.004179953339     IErMin= 8 ErrMin= 2.16D-04
 ErrMax= 2.16D-04  0.00D+00 EMaxC= 1.00D-01 BMatC= 3.16D-06 BMatP= 6.54D-05
 IDIUse=3 WtCom= 9.98D-01 WtEn= 2.16D-03
 Coeff-Com:  0.328D-02-0.596D-02 0.215D-02-0.121D-02 0.982D-02 0.790D-01
 Coeff-Com:  0.318D+00 0.595D+00
 Coeff-En:   0.000D+00 0.000D+00 0.000D+00 0.000D+00 0.000D+00 0.000D+00
 Coeff-En:   0.000D+00 0.100D+01
 Coeff:      0.328D-02-0.595D-02 0.215D-02-0.121D-02 0.980D-02 0.788D-01
 Coeff:      0.318D+00 0.596D+00
 Gap=     0.143 Goal=   None    Shift=    0.000
 RMSDP=3.03D-05 MaxDP=3.75D-04 DE=-5.26D-05 OVMax= 3.27D-04

 Cycle   9  Pass 0  IDiag  1:
 E= -284.004182942897     Delta-E=       -0.000002989558 Rises=F Damp=F
 DIIS: error= 1.25D-05 at cycle   9 NSaved=   9.
 NSaved= 9 IEnMin= 9 EnMin= -284.004182942897     IErMin= 9 ErrMin= 1.25D-05
 ErrMax= 1.25D-05  0.00D+00 EMaxC= 1.00D-01 BMatC= 1.51D-08 BMatP= 3.16D-06
 IDIUse=1 WtCom= 1.00D+00 WtEn= 0.00D+00
 Coeff-Com:  0.856D-03-0.111D-02 0.229D-03-0.129D-03 0.103D-02 0.173D-01
 Coeff-Com:  0.831D-01 0.174D+00 0.725D+00
 Coeff:      0.856D-03-0.111D-02 0.229D-03-0.129D-03 0.103D-02 0.173D-01
 Coeff:      0.831D-01 0.174D+00 0.725D+00
 Gap=     0.143 Goal=   None    Shift=    0.000
 RMSDP=3.69D-06 MaxDP=2.36D-05 DE=-2.99D-06 OVMax= 3.01D-05

 Initial convergence to 1.0D-05 achieved.  Increase integral accuracy.
 Cycle  10  Pass 1  IDiag  1:
 E= -284.004187388350     Delta-E=       -0.000004445453 Rises=F Damp=F
 DIIS: error= 5.06D-06 at cycle   1 NSaved=   1.
 NSaved= 1 IEnMin= 1 EnMin= -284.004187388350     IErMin= 1 ErrMin= 5.06D-06
 ErrMax= 5.06D-06  0.00D+00 EMaxC= 1.00D-01 BMatC= 2.71D-09 BMatP= 2.71D-09
 IDIUse=1 WtCom= 1.00D+00 WtEn= 0.00D+00
 Coeff-Com:  0.100D+01
 Coeff:      0.100D+01
 Gap=     0.143 Goal=   None    Shift=    0.000
 RMSDP=3.69D-06 MaxDP=2.36D-05 DE=-4.45D-06 OVMax= 2.53D-05

 Cycle  11  Pass 1  IDiag  1:
 E= -284.004187385661     Delta-E=        0.000000002689 Rises=F Damp=F
 DIIS: error= 9.32D-06 at cycle   2 NSaved=   2.
 NSaved= 2 IEnMin= 1 EnMin= -284.004187388350     IErMin= 1 ErrMin= 5.06D-06
 ErrMax= 9.32D-06  0.00D+00 EMaxC= 1.00D-01 BMatC= 5.96D-09 BMatP= 2.71D-09
 IDIUse=1 WtCom= 1.00D+00 WtEn= 0.00D+00
 Coeff-Com:  0.601D+00 0.399D+00
 Coeff:      0.601D+00 0.399D+00
 Gap=     0.143 Goal=   None    Shift=    0.000
 RMSDP=1.46D-06 MaxDP=1.72D-05 DE= 2.69D-09 OVMax= 1.57D-05

 Cycle  12  Pass 1  IDiag  1:
 E= -284.004187391019     Delta-E=       -0.000000005358 Rises=F Damp=F
 DIIS: error= 2.19D-06 at cycle   3 NSaved=   3.
 NSaved= 3 IEnMin= 3 EnMin= -284.004187391019     IErMin= 3 ErrMin= 2.19D-06
 ErrMax= 2.19D-06  0.00D+00 EMaxC= 1.00D-01 BMatC= 2.84D-10 BMatP= 2.71D-09
 IDIUse=1 WtCom= 1.00D+00 WtEn= 0.00D+00
 Coeff-Com:  0.327D+00 0.247D+00 0.425D+00
 Coeff:      0.327D+00 0.247D+00 0.425D+00
 Gap=     0.143 Goal=   None    Shift=    0.000
 RMSDP=4.17D-07 MaxDP=6.40D-06 DE=-5.36D-09 OVMax= 9.71D-06

 Cycle  13  Pass 1  IDiag  1:
 E= -284.004187391169     Delta-E=       -0.000000000150 Rises=F Damp=F
 DIIS: error= 1.51D-06 at cycle   4 NSaved=   4.
 NSaved= 4 IEnMin= 4 EnMin= -284.004187391169     IErMin= 4 ErrMin= 1.51D-06
 ErrMax= 1.51D-06  0.00D+00 EMaxC= 1.00D-01 BMatC= 9.97D-11 BMatP= 2.84D-10
 IDIUse=1 WtCom= 1.00D+00 WtEn= 0.00D+00
 Coeff-Com:  0.106D+00 0.964D-01 0.348D+00 0.449D+00
 Coeff:      0.106D+00 0.964D-01 0.348D+00 0.449D+00
 Gap=     0.143 Goal=   None    Shift=    0.000
 RMSDP=1.96D-07 MaxDP=2.70D-06 DE=-1.50D-10 OVMax= 4.92D-06

 Cycle  14  Pass 1  IDiag  1:
 E= -284.004187391240     Delta-E=       -0.000000000071 Rises=F Damp=F
 DIIS: error= 4.19D-07 at cycle   5 NSaved=   5.
 NSaved= 5 IEnMin= 5 EnMin= -284.004187391240     IErMin= 5 ErrMin= 4.19D-07
 ErrMax= 4.19D-07  0.00D+00 EMaxC= 1.00D-01 BMatC= 1.14D-11 BMatP= 9.97D-11
 IDIUse=1 WtCom= 1.00D+00 WtEn= 0.00D+00
 Coeff-Com:  0.515D-02 0.155D-01 0.147D+00 0.310D+00 0.522D+00
 Coeff:      0.515D-02 0.155D-01 0.147D+00 0.310D+00 0.522D+00
 Gap=     0.143 Goal=   None    Shift=    0.000
 RMSDP=5.82D-08 MaxDP=7.03D-07 DE=-7.05D-11 OVMax= 1.05D-06

 Cycle  15  Pass 1  IDiag  1:
 E= -284.004187391250     Delta-E=       -0.000000000010 Rises=F Damp=F
 DIIS: error= 6.60D-08 at cycle   6 NSaved=   6.
 NSaved= 6 IEnMin= 6 EnMin= -284.004187391250     IErMin= 6 ErrMin= 6.60D-08
 ErrMax= 6.60D-08  0.00D+00 EMaxC= 1.00D-01 BMatC= 2.36D-13 BMatP= 1.14D-11
 IDIUse=1 WtCom= 1.00D+00 WtEn= 0.00D+00
 Coeff-Com:  0.368D-03 0.569D-02 0.670D-01 0.151D+00 0.283D+00 0.493D+00
 Coeff:      0.368D-03 0.569D-02 0.670D-01 0.151D+00 0.283D+00 0.493D+00
 Gap=     0.143 Goal=   None    Shift=    0.000
 RMSDP=1.22D-08 MaxDP=1.25D-07 DE=-1.02D-11 OVMax= 1.64D-07

 Cycle  16  Pass 1  IDiag  1:
 E= -284.004187391250     Delta-E=        0.000000000001 Rises=F Damp=F
 DIIS: error= 2.37D-08 at cycle   7 NSaved=   7.
 NSaved= 7 IEnMin= 6 EnMin= -284.004187391250     IErMin= 7 ErrMin= 2.37D-08
 ErrMax= 2.37D-08  0.00D+00 EMaxC= 1.00D-01 BMatC= 3.67D-14 BMatP= 2.36D-13
 IDIUse=1 WtCom= 1.00D+00 WtEn= 0.00D+00
 Coeff-Com: -0.367D-03 0.203D-02 0.287D-01 0.653D-01 0.131D+00 0.317D+00
 Coeff-Com:  0.456D+00
 Coeff:     -0.367D-03 0.203D-02 0.287D-01 0.653D-01 0.131D+00 0.317D+00
 Coeff:      0.456D+00
 Gap=     0.143 Goal=   None    Shift=    0.000
 RMSDP=3.66D-09 MaxDP=3.72D-08 DE= 5.12D-13 OVMax= 5.19D-08

 SCF Done:  E(RPBE-PBE) =  -284.004187391     A.U. after   16 cycles
            NFock= 16  Conv=0.37D-08     -V/T= 2.0040
 KE= 2.828669380632D+02 PE=-1.026522799436D+03 EE= 2.796725624715D+02
 Leave Link  502 at Mon Jan  1 11:51:24 2024, MaxMem=   134217728 cpu:              22.7 elap:               5.7
 (Enter /home/emanuele/chem_software/gaussian//gdv/l601.exe)
 Copying SCF densities to generalized density rwf, IOpCl= 0 IROHF=0.

 **********************************************************************

            Population analysis using the SCF Density.

 **********************************************************************

 Alpha  occ. eigenvalues --      -18.82348     -18.77534     -13.97630     -10.03307      -9.93269
 Alpha  occ. eigenvalues --       -1.05039      -0.96249      -0.81873      -0.66701      -0.55720
 Alpha  occ. eigenvalues --       -0.47745      -0.44302      -0.42425      -0.39740      -0.38172
 Alpha  occ. eigenvalues --       -0.35810      -0.33438      -0.28324      -0.24012      -0.17687
 Alpha virt. eigenvalues --       -0.03408       0.03977       0.06266       0.10563       0.13621
 Alpha virt. eigenvalues --        0.14128       0.18881       0.20070       0.25560       0.32190
 Alpha virt. eigenvalues --        0.49787       0.52370       0.54892       0.58524       0.63914
 Alpha virt. eigenvalues --        0.64910       0.68021       0.72965       0.75778       0.78417
 Alpha virt. eigenvalues --        0.83864       0.86168       0.87444       0.90129       0.91413
 Alpha virt. eigenvalues --        0.92742       0.95703       0.99926       1.04360       1.08154
 Alpha virt. eigenvalues --        1.14357       1.29543       1.58698       1.69096       1.83861
          Condensed to atoms (all electrons):
               1          2          3          4          5          6
     1  C    4.866057   0.154675   0.159242  -0.030441  -0.020108  -0.039846
     2  O    0.154675   8.362489  -0.132271   0.003086   0.005400   0.002017
     3  C    0.159242  -0.132271   5.410743   0.343186   0.344277   0.287055
     4  H   -0.030441   0.003086   0.343186   0.627998  -0.052275  -0.056772
     5  H   -0.020108   0.005400   0.344277  -0.052275   0.563810  -0.050520
     6  N   -0.039846   0.002017   0.287055  -0.056772  -0.050520   6.896220
     7  H   -0.004593   0.000755  -0.056970   0.001298   0.005805   0.317217
     8  H    0.006591  -0.000085  -0.037366  -0.006092   0.000225   0.315923
     9  O    0.516080  -0.118030  -0.118642  -0.000661   0.002442  -0.003494
    10  H   -0.010506   0.217765   0.013527  -0.000559  -0.000372  -0.000229
               7          8          9         10
     1  C   -0.004593   0.006591   0.516080  -0.010506
     2  O    0.000755  -0.000085  -0.118030   0.217765
     3  C   -0.056970  -0.037366  -0.118642   0.013527
     4  H    0.001298  -0.006092  -0.000661  -0.000559
     5  H    0.005805   0.000225   0.002442  -0.000372
     6  N    0.317217   0.315923  -0.003494  -0.000229
     7  H    0.455047  -0.036030   0.019938  -0.000043
     8  H   -0.036030   0.474499   0.000332   0.000007
     9  O    0.019938   0.000332   8.049361   0.007405
    10  H   -0.000043   0.000007   0.007405   0.397083
 Mulliken charges:
               1
     1  C    0.402849
     2  O   -0.495802
     3  C   -0.212783
     4  H    0.171232
     5  H    0.201314
     6  N   -0.667572
     7  H    0.297575
     8  H    0.281996
     9  O   -0.354733
    10  H    0.375922
 Sum of Mulliken charges =  -0.00000
 Mulliken charges with hydrogens summed into heavy atoms:
               1
     1  C    0.402849
     2  O   -0.119880
     3  C    0.159764
     6  N   -0.088000
     9  O   -0.354733
 Electronic spatial extent (au):  <R**2>=            416.6924
 Charge=             -0.0000 electrons
 Dipole moment (field-independent basis, Debye):
    X=             -0.3660    Y=             -1.1905    Z=              1.7107  Tot=              2.1161
 Quadrupole moment (field-independent basis, Debye-Ang):
   XX=            -22.7811   YY=            -33.0365   ZZ=            -30.3991
   XY=             -1.3141   XZ=              4.0071   YZ=              0.1584
 Traceless Quadrupole moment (field-independent basis, Debye-Ang):
   XX=              5.9578   YY=             -4.2976   ZZ=             -1.6602
   XY=             -1.3141   XZ=              4.0071   YZ=              0.1584
 Octapole moment (field-independent basis, Debye-Ang**2):
  XXX=            -14.3107  YYY=             -1.8153  ZZZ=              1.7946  XYY=              6.2675
  XXY=              3.4078  XXZ=              8.1736  XZZ=             -4.7178  YZZ=              0.2677
  YYZ=             -0.0888  XYZ=              0.9063
 Hexadecapole moment (field-independent basis, Debye-Ang**3):
 XXXX=           -240.1789 YYYY=           -138.8258 ZZZZ=            -35.6159 XXXY=             -6.3383
 XXXZ=             22.4364 YYYX=              4.2932 YYYZ=              1.5451 ZZZX=              4.2628
 ZZZY=              0.4290 XXYY=            -78.1044 XXZZ=            -66.0383 YYZZ=            -27.1527
 XXYZ=              0.7071 YYXZ=              0.8279 ZZXY=             -0.7605
 N-N= 1.799791115102D+02 E-N=-1.026522800275D+03  KE= 2.828669380632D+02
 No NMR shielding tensors so no spin-rotation constants.
 Leave Link  601 at Mon Jan  1 11:51:24 2024, MaxMem=   134217728 cpu:               0.4 elap:               0.1
 (Enter /home/emanuele/chem_software/gaussian//gdv/l701.exe)
 ... and contract with generalized density number  0.
 Compute integral first derivatives.
 Leave Link  701 at Mon Jan  1 11:51:24 2024, MaxMem=   134217728 cpu:               0.4 elap:               0.1
 (Enter /home/emanuele/chem_software/gaussian//gdv/l702.exe)
 L702 exits ... SP integral derivatives will be done elsewhere.
 Leave Link  702 at Mon Jan  1 11:51:24 2024, MaxMem=   134217728 cpu:               0.1 elap:               0.0
 (Enter /home/emanuele/chem_software/gaussian//gdv/l703.exe)
 Integral derivatives from FoFJK, PRISM(SPDF).
 Compute integral first derivatives, UseDBF=F ICtDFT=           0.
 Calling FoFJK, ICntrl=      2527 FMM=F ISym2X=0 I1Cent= 0 IOpClX= 0 NMat=1 NMatS=1 NMatT=0.
 FoFJK:  IHMeth= 1 ICntrl=    2527 DoSepK=F KAlg= 0 I1Cent=           0 FoldK=F
 IRaf=         0 NMat=       1 IRICut=       1 DoRegI=T DoRafI=F ISym2E= 0 IDoP0=0 IntGTp=1.
 FoFCou: FMM=F IPFlag=           0 FMFlag=      100000 FMFlg1=         800
         NFxFlg=           0 DoJE=F BraDBF=F KetDBF=F FulRan=T
         wScrn=  0.000000 ICntrl=      2527 IOpCl=  0 I1Cent=           0 NGrid=           0
         NMat0=    1 NMatS0=      1 NMatT0=    0 NMatD0=    1 NMtDS0=    0 NMtDT0=    0
 Symmetry not used in FoFCou.
 Leave Link  703 at Mon Jan  1 11:51:26 2024, MaxMem=   134217728 cpu:               5.1 elap:               1.3
 (Enter /home/emanuele/chem_software/gaussian//gdv/l716.exe)
 Dipole        =-1.43988374D-01-4.68368933D-01 6.73042054D-01
 -------------------------------------------------------------------
 Center     Atomic                   Forces (Hartrees/Bohr)
 Number     Number              X              Y              Z
 -------------------------------------------------------------------
      1        6           0.028013322   -0.049315475   -0.001738117
      2        8          -0.006374856   -0.027942083   -0.001031046
      3        6          -0.003546193    0.000397077   -0.004068071
      4        1          -0.000507227   -0.005481730    0.009320645
      5        1          -0.001185793   -0.006534529   -0.004777089
      6        7          -0.002043709   -0.000019789    0.002233754
      7        1          -0.002578517    0.014267242   -0.001301373
      8        1           0.012282482   -0.006214479   -0.000193135
      9        8          -0.001313682    0.070566420    0.002326296
     10        1          -0.022745827    0.010277346   -0.000771864
 -------------------------------------------------------------------
 Cartesian Forces:  Max     0.070566420 RMS     0.018508164
 Leave Link  716 at Mon Jan  1 11:51:26 2024, MaxMem=   134217728 cpu:               0.1 elap:               0.0
 (Enter /home/emanuele/chem_software/gaussian//gdv/l103.exe)

 GradGradGradGradGradGradGradGradGradGradGradGradGradGradGradGradGradGrad
 Berny optimization.
 FormGI is forming the generalized inverse of G from B-inverse, IUseBI=4.
 Internal  Forces:  Max     0.070596940 RMS     0.014536187
 Search for a local minimum.
 Step number   1 out of a maximum of  100 on scan point     1 out of    11
 All quantities printed in internal units (Hartrees-Bohrs-Radians)
 RMS Force = .14742D-01 SwitMx=.10000D-02 MixMth= 1
 Mixed Optimization -- RFO/linear search
 Second derivative matrix not updated -- first step.
 ITU=  0
     Eigenvalues ---    0.00871   0.01007   0.02341   0.04206   0.04505
     Eigenvalues ---    0.05865   0.08805   0.12976   0.16000   0.16000
     Eigenvalues ---    0.16000   0.21867   0.24991   0.25000   0.31403
     Eigenvalues ---    0.33602   0.34582   0.38010   0.45526   0.45961
     Eigenvalues ---    0.53825   0.54828   1.033731000.000001000.00000
     Eigenvalues --- 1000.000001000.000001000.000001000.000001000.00000
     Eigenvalues --- 1000.000001000.000001000.000001000.000001000.00000
     Eigenvalues --- 1000.00000
 RFO step:  Lambda=-1.18073513D-02 EMin= 8.71369894D-03
 Linear search not attempted -- first point.
 Iteration  1 RMS(Cart)=  0.04613479 RMS(Int)=  0.00166328
 Iteration  2 RMS(Cart)=  0.00130110 RMS(Int)=  0.00103837
 Iteration  3 RMS(Cart)=  0.00000140 RMS(Int)=  0.00103837
 Iteration  4 RMS(Cart)=  0.00000000 RMS(Int)=  0.00103837
 Fixing frozen coordinates.
 Iteration  1 RMS(Cart)=  0.00000093 RMS(Int)=  0.00000091
 ITry= 1 IFail=0 DXMaxC= 1.39D-01 DCOld= 1.00D+10 DXMaxT= 3.00D-01 DXLimC= 3.00D+00 Rises=F
 Variable       Old X    -DE/DX   Delta X   Delta X   Delta X     New X
                                 (Linear)    (Quad)   (Total)
    R1        2.55286   0.03402   0.00000   0.06074   0.06074   2.61359
    R2        2.85250   0.00405   0.00000   0.01243   0.01243   2.86493
    R3        2.27318   0.07060   0.00000   0.06752   0.06752   2.34070
    R4        1.82891   0.02432   0.00000   0.04421   0.04421   1.87312
    R5        2.08006   0.01074   0.00000   0.03087   0.03087   2.11094
    R6        2.06359   0.00814   0.00000   0.02277   0.02277   2.08636
    R7        2.74351   0.01049   0.00000   0.02678   0.02678   2.77029
    R8        1.91369   0.01321   0.00000   0.02828   0.02828   1.94197
    R9        1.90876   0.01238   0.00000   0.02626   0.02626   1.93502
    A1        1.94980  -0.00150   0.00000  -0.00577  -0.00578   1.94402
    A2        2.14707   0.00262   0.00000   0.00999   0.00998   2.15706
    A3        2.18583  -0.00113   0.00000  -0.00435  -0.00436   2.18147
    A4        1.87144   0.01038   0.00000   0.06040   0.06040   1.93185
    A5        1.83958   0.00133   0.00000   0.00657   0.00663   1.84621
    A6        1.89148   0.00072   0.00000  -0.00089  -0.00090   1.89057
    A7        1.93046  -0.00386   0.00000  -0.01698  -0.01697   1.91349
    A8        1.85394  -0.00109   0.00000  -0.00465  -0.00468   1.84927
    A9        2.00477   0.00168   0.00000   0.01089   0.01090   2.01567
   A10        1.93745   0.00130   0.00000   0.00508   0.00501   1.94247
   A11        1.91981   0.00390   0.00000   0.04505   0.04236   1.96217
   A12        1.94466   0.00426   0.00000   0.04657   0.04393   1.98858
   A13        1.89587   0.00082   0.00000   0.04672   0.04245   1.93832
    D1        3.09264   0.00002   0.00000   0.00221   0.00219   3.09483
    D2       -0.01720   0.00030   0.00000   0.00694   0.00696  -0.01024
    D3       -1.25365   0.00038   0.00000   0.00000  -0.00000  -1.25365
    D4        0.72522   0.00010   0.00000  -0.00255  -0.00257   0.72265
    D5        2.85281  -0.00023   0.00000  -0.00746  -0.00744   2.84537
    D6        1.85534   0.00018   0.00000  -0.00455  -0.00454   1.85080
    D7       -2.44897  -0.00011   0.00000  -0.00709  -0.00711  -2.45608
    D8       -0.32138  -0.00044   0.00000  -0.01201  -0.01198  -0.33336
    D9        0.60481  -0.00301   0.00000  -0.05878  -0.05982   0.54499
   D10        2.70830   0.00342   0.00000   0.06059   0.06161   2.76991
   D11       -1.47459  -0.00304   0.00000  -0.06226  -0.06325  -1.53784
   D12        0.62890   0.00339   0.00000   0.05712   0.05817   0.68707
   D13        2.70515  -0.00381   0.00000  -0.06785  -0.06889   2.63626
   D14       -1.47455   0.00262   0.00000   0.05153   0.05253  -1.42202
         Item               Value     Threshold  Converged?
 Maximum Force            0.070597     0.000450     NO 
 RMS     Force            0.014742     0.000300     NO 
 Maximum Displacement     0.138592     0.001800     NO 
 RMS     Displacement     0.045919     0.001200     NO 
 Predicted change in Energy=-6.237837D-03
 Lowest energy point so far.  Saving SCF results.
 GradGradGradGradGradGradGradGradGradGradGradGradGradGradGradGradGradGrad

 Leave Link  103 at Mon Jan  1 11:51:26 2024, MaxMem=   134217728 cpu:               0.1 elap:               0.0
 (Enter /home/emanuele/chem_software/gaussian//gdv/l202.exe)
                          Input orientation:                          
 ---------------------------------------------------------------------
 Center     Atomic      Atomic             Coordinates (Angstroms)
 Number     Number       Type             X           Y           Z
 ---------------------------------------------------------------------
      1          6           0       -0.530715    0.112035    0.023411
      2          8           0       -1.660198   -0.678871   -0.084163
      3          6           0        0.726192   -0.729812    0.122901
      4          1           0        0.704328   -1.189212    1.140887
      5          1           0        0.639771   -1.568148   -0.590306
      6          7           0        1.899017    0.099538   -0.169905
      7          1           0        1.768022    1.078220    0.114834
      8          1           0        2.776707   -0.276811    0.199600
      9          8           0       -0.562671    1.349275    0.072978
     10          1           0       -2.478428   -0.119802   -0.105286
 ---------------------------------------------------------------------
                    Distance matrix (angstroms):
                    1          2          3          4          5
     1  C    0.000000
     2  O    1.383053   0.000000
     3  C    1.516055   2.395899   0.000000
     4  H    2.113605   2.711490   1.117059   0.000000
     5  H    2.137686   2.517310   1.104056   1.773355   0.000000
     6  N    2.437442   3.644349   1.465972   2.192335   2.131575
     7  H    2.495208   3.857416   2.086733   2.706561   2.961999
     8  H    3.334860   4.464113   2.101358   2.452193   2.618779
     9  O    1.238645   2.311414   2.446685   3.031440   3.224464
    10  H    1.965679   0.991213   3.270133   3.581412   3.472191
                    6          7          8          9         10
     6  N    0.000000
     7  H    1.027645   0.000000
     8  H    1.023970   1.691372   0.000000
     9  O    2.771415   2.346775   3.716401   0.000000
    10  H    4.383412   4.417697   5.266313   2.420763   0.000000
 Symmetry turned off by external request.
 Stoichiometry    C2H5NO2
 Framework group  C1[X(C2H5NO2)]
 Deg. of freedom    24
 Full point group                 C1      NOp   1
 Rotational constants (GHZ):           9.9588758           3.8945701           2.8794416
 Leave Link  202 at Mon Jan  1 11:51:26 2024, MaxMem=   134217728 cpu:               0.1 elap:               0.0
 (Enter /home/emanuele/chem_software/gaussian//gdv/l301.exe)
 Standard basis: 6-31G (6D, 7F)
 Ernie: Thresh=  0.10000D-02 Tol=  0.10000D-05 Strict=F.
    55 basis functions,   130 primitive gaussians,    55 cartesian basis functions
    20 alpha electrons       20 beta electrons
       nuclear repulsion energy       177.1051110755 Hartrees.
 IExCor=   10009 DFT=T Ex=PBE Corr=PBE N6=None ScaHFX=  0.000000
 ScaDFX=  1.000000  1.000000  1.000000  1.000000  1.000000  0.000000
 ScaDFX=  0.000000  0.000000  0.000000  0.000000  0.000000  0.000000
 IRadAn=      5 IRanWt=     -1 IRanGd=            0 ICorTp=0 IEmpDi=  4
 NAtoms=   10 NActive=   10 NUniq=   10 SFac= 1.00D+00 NAtFMM=   60 NAOKFM=F Big=F
 Integral buffers will be    131072 words long.
 Raffenetti 2 integral format.
 Two-electron integral symmetry is turned off.
 Leave Link  301 at Mon Jan  1 11:51:26 2024, MaxMem=   134217728 cpu:               0.2 elap:               0.1
 (Enter /home/emanuele/chem_software/gaussian//gdv/l302.exe)
 NPDir=0 NMtPBC=     1 NCelOv=     1 NCel=       1 NClECP=     1 NCelD=      1
         NCelK=      1 NCelE2=     1 NClLst=     1 CellRange=     0.0.
 One-electron integrals computed using PRISM.
 NBasis=    55 RedAO= T EigKep=  6.09D-03  NBF=    55
 NBsUse=    55 1.00D-06 EigRej= -1.00D+00 NBFU=    55
 Precomputing XC quadrature grid using
 IXCGrd= 4 IRadAn=           5 IRanWt=          -1 IRanGd=           0 AccXCQ= 0.00D+00.
 Generated NRdTot=       0 NPtTot=      219338 NUsed=           0 NTot=          64
 NSgBfM=    55    55    55    55    55 MxSgAt=    10 MxSgA2=    10 SizInc=   0.000
 NMBTot=     1897 MaxBatPerAtom=       84 MaxMicBPerAtom=      199.
 Leave Link  302 at Mon Jan  1 11:51:26 2024, MaxMem=   134217728 cpu:               0.6 elap:               0.2
 (Enter /home/emanuele/chem_software/gaussian//gdv/l303.exe)
 DipDrv:  MaxL=1.
 Leave Link  303 at Mon Jan  1 11:51:26 2024, MaxMem=   134217728 cpu:               0.1 elap:               0.0
 (Enter /home/emanuele/chem_software/gaussian//gdv/l401.exe)
 Initial guess from the checkpoint file:  "0_qm.chk"
 B after Tr=     0.004414    0.013114    0.016950
         Rot=    0.999982   -0.004726    0.002633    0.002736 Ang=  -0.69 deg.
 AO Guess basis will be translated and rotated to current coordinates.
 JPrj=2 DoOrth=T DoCkMO=T.
 Generating alternative initial guess.
 ExpMin= 1.61D-01 ExpMax= 5.48D+03 ExpMxC= 8.25D+02 IAcc=3 IRadAn=         5 AccDes= 0.00D+00
 Harris functional with IExCor=10009 and IRadAn=       5 diagonalized for initial guess.
 HarFok:  IExCor=   10009 AccDes= 0.00D+00 IRadAn=         5 IDoV= 1 UseB2=F ITyADJ=14 ICtDFT=  3500011
 FoFCou: FMM=F IPFlag=           0 FMFlag=      100000 FMFlg1=           0
         NFxFlg=           0 DoJE=T BraDBF=F KetDBF=T FulRan=T
         wScrn=  0.000000 ICntrl=       500 IOpCl=  0 I1Cent=   200000004 NGrid=           0
         NMat0=    1 NMatS0=      1 NMatT0=    0 NMatD0=    1 NMtDS0=    0 NMtDT0=    0
 Symmetry not used in FoFCou.
 Harris En= -284.094124283218    
 Leave Link  401 at Mon Jan  1 11:51:27 2024, MaxMem=   134217728 cpu:               2.4 elap:               0.6
 (Enter /home/emanuele/chem_software/gaussian//gdv/l502.exe)
 Keep J ints in memory in canonical form, NReq=4700713.
 FoFCou: FMM=F IPFlag=           0 FMFlag=           0 FMFlg1=           0
         NFxFlg=           0 DoJE=F BraDBF=F KetDBF=F FulRan=T
         wScrn=  0.000000 ICntrl=       600 IOpCl=  0 I1Cent=           0 NGrid=           0
         NMat0=    1 NMatS0=   1540 NMatT0=    0 NMatD0=    1 NMtDS0=    0 NMtDT0=    0
 Symmetry not used in FoFCou.
 Two-electron integral symmetry not used.
 Closed shell SCF:
 Using DIIS extrapolation, IDIIS=  1040.
 NGot=   134217728 LenX=   133023731 LenY=   133020265
 Requested convergence on RMS density matrix=1.00D-08 within 128 cycles.
 Requested convergence on MAX density matrix=1.00D-06.
 Requested convergence on             energy=1.00D-06.
 No special actions if energy rises.
 Integral accuracy reduced to 1.0D-05 until final iterations.

 Cycle   1  Pass 0  IDiag  1:
 E= -284.007626621967    
 DIIS: error= 4.18D-03 at cycle   1 NSaved=   1.
 NSaved= 1 IEnMin= 1 EnMin= -284.007626621967     IErMin= 1 ErrMin= 4.18D-03
 ErrMax= 4.18D-03  0.00D+00 EMaxC= 1.00D-01 BMatC= 1.75D-03 BMatP= 1.75D-03
 IDIUse=3 WtCom= 9.58D-01 WtEn= 4.18D-02
 Coeff-Com:  0.100D+01
 Coeff-En:   0.100D+01
 Coeff:      0.100D+01
 Gap=     0.523 Goal=   None    Shift=    0.000
 GapD=    0.523 DampG=2.000 DampE=1.000 DampFc=2.0000 IDamp=-1.
 RMSDP=1.72D-03 MaxDP=1.13D-02              OVMax= 1.15D-02

 Cycle   2  Pass 0  IDiag  1:
 E= -284.009850483451     Delta-E=       -0.002223861484 Rises=F Damp=F
 DIIS: error= 1.58D-03 at cycle   2 NSaved=   2.
 NSaved= 2 IEnMin= 2 EnMin= -284.009850483451     IErMin= 2 ErrMin= 1.58D-03
 ErrMax= 1.58D-03  0.00D+00 EMaxC= 1.00D-01 BMatC= 3.23D-04 BMatP= 1.75D-03
 IDIUse=3 WtCom= 9.84D-01 WtEn= 1.58D-02
 Coeff-Com:  0.240D+00 0.760D+00
 Coeff-En:   0.000D+00 0.100D+01
 Coeff:      0.237D+00 0.763D+00
 Gap=     0.127 Goal=   None    Shift=    0.000
 RMSDP=5.85D-04 MaxDP=6.56D-03 DE=-2.22D-03 OVMax= 7.94D-03

 Cycle   3  Pass 0  IDiag  1:
 E= -284.009871855684     Delta-E=       -0.000021372233 Rises=F Damp=F
 DIIS: error= 2.02D-03 at cycle   3 NSaved=   3.
 NSaved= 3 IEnMin= 3 EnMin= -284.009871855684     IErMin= 2 ErrMin= 1.58D-03
 ErrMax= 2.02D-03  0.00D+00 EMaxC= 1.00D-01 BMatC= 3.28D-04 BMatP= 3.23D-04
 IDIUse=3 WtCom= 9.80D-01 WtEn= 2.02D-02
 Coeff-Com:  0.645D-01 0.498D+00 0.437D+00
 Coeff-En:   0.000D+00 0.484D+00 0.516D+00
 Coeff:      0.632D-01 0.498D+00 0.439D+00
 Gap=     0.127 Goal=   None    Shift=    0.000
 RMSDP=4.08D-04 MaxDP=5.36D-03 DE=-2.14D-05 OVMax= 1.04D-02

 Cycle   4  Pass 0  IDiag  1:
 E= -284.010046330821     Delta-E=       -0.000174475137 Rises=F Damp=F
 DIIS: error= 1.87D-03 at cycle   4 NSaved=   4.
 NSaved= 4 IEnMin= 4 EnMin= -284.010046330821     IErMin= 2 ErrMin= 1.58D-03
 ErrMax= 1.87D-03  0.00D+00 EMaxC= 1.00D-01 BMatC= 1.42D-04 BMatP= 3.23D-04
 IDIUse=3 WtCom= 9.81D-01 WtEn= 1.87D-02
 EnCoef did     4 forward-backward iterations
 Coeff-Com:  0.131D-01 0.298D+00 0.368D+00 0.321D+00
 Coeff-En:   0.000D+00 0.407D-01 0.310D+00 0.650D+00
 Coeff:      0.128D-01 0.293D+00 0.367D+00 0.327D+00
 Gap=     0.128 Goal=   None    Shift=    0.000
 RMSDP=2.11D-04 MaxDP=3.26D-03 DE=-1.74D-04 OVMax= 5.40D-03

 Cycle   5  Pass 0  IDiag  1:
 E= -284.010160057118     Delta-E=       -0.000113726298 Rises=F Damp=F
 DIIS: error= 1.75D-04 at cycle   5 NSaved=   5.
 NSaved= 5 IEnMin= 5 EnMin= -284.010160057118     IErMin= 5 ErrMin= 1.75D-04
 ErrMax= 1.75D-04  0.00D+00 EMaxC= 1.00D-01 BMatC= 1.96D-06 BMatP= 1.42D-04
 IDIUse=3 WtCom= 9.98D-01 WtEn= 1.75D-03
 Coeff-Com:  0.281D-02 0.105D+00 0.147D+00 0.177D+00 0.569D+00
 Coeff-En:   0.000D+00 0.000D+00 0.000D+00 0.000D+00 0.100D+01
 Coeff:      0.280D-02 0.105D+00 0.146D+00 0.176D+00 0.569D+00
 Gap=     0.128 Goal=   None    Shift=    0.000
 RMSDP=2.97D-05 MaxDP=3.20D-04 DE=-1.14D-04 OVMax= 4.72D-04

 Cycle   6  Pass 0  IDiag  1:
 E= -284.010161691106     Delta-E=       -0.000001633987 Rises=F Damp=F
 DIIS: error= 6.06D-05 at cycle   6 NSaved=   6.
 NSaved= 6 IEnMin= 6 EnMin= -284.010161691106     IErMin= 6 ErrMin= 6.06D-05
 ErrMax= 6.06D-05  0.00D+00 EMaxC= 1.00D-01 BMatC= 2.25D-07 BMatP= 1.96D-06
 IDIUse=1 WtCom= 1.00D+00 WtEn= 0.00D+00
 Coeff-Com:  0.503D-03 0.361D-01 0.557D-01 0.806D-01 0.362D+00 0.465D+00
 Coeff:      0.503D-03 0.361D-01 0.557D-01 0.806D-01 0.362D+00 0.465D+00
 Gap=     0.128 Goal=   None    Shift=    0.000
 RMSDP=9.49D-06 MaxDP=1.01D-04 DE=-1.63D-06 OVMax= 1.03D-04

 Initial convergence to 1.0D-05 achieved.  Increase integral accuracy.
 Cycle   7  Pass 1  IDiag  1:
 E= -284.010167674534     Delta-E=       -0.000005983428 Rises=F Damp=F
 DIIS: error= 6.79D-06 at cycle   1 NSaved=   1.
 NSaved= 1 IEnMin= 1 EnMin= -284.010167674534     IErMin= 1 ErrMin= 6.79D-06
 ErrMax= 6.79D-06  0.00D+00 EMaxC= 1.00D-01 BMatC= 3.44D-09 BMatP= 3.44D-09
 IDIUse=1 WtCom= 1.00D+00 WtEn= 0.00D+00
 Coeff-Com:  0.100D+01
 Coeff:      0.100D+01
 Gap=     0.128 Goal=   None    Shift=    0.000
 RMSDP=9.49D-06 MaxDP=1.01D-04 DE=-5.98D-06 OVMax= 6.56D-05

 Cycle   8  Pass 1  IDiag  1:
 E= -284.010167663809     Delta-E=        0.000000010725 Rises=F Damp=F
 DIIS: error= 1.93D-05 at cycle   2 NSaved=   2.
 NSaved= 2 IEnMin= 1 EnMin= -284.010167674534     IErMin= 1 ErrMin= 6.79D-06
 ErrMax= 1.93D-05  0.00D+00 EMaxC= 1.00D-01 BMatC= 1.72D-08 BMatP= 3.44D-09
 IDIUse=1 WtCom= 1.00D+00 WtEn= 0.00D+00
 Coeff-Com:  0.702D+00 0.298D+00
 Coeff:      0.702D+00 0.298D+00
 Gap=     0.128 Goal=   None    Shift=    0.000
 RMSDP=2.22D-06 MaxDP=3.12D-05 DE= 1.07D-08 OVMax= 5.81D-05

 Cycle   9  Pass 1  IDiag  1:
 E= -284.010167677535     Delta-E=       -0.000000013726 Rises=F Damp=F
 DIIS: error= 4.21D-06 at cycle   3 NSaved=   3.
 NSaved= 3 IEnMin= 3 EnMin= -284.010167677535     IErMin= 3 ErrMin= 4.21D-06
 ErrMax= 4.21D-06  0.00D+00 EMaxC= 1.00D-01 BMatC= 9.83D-10 BMatP= 3.44D-09
 IDIUse=1 WtCom= 1.00D+00 WtEn= 0.00D+00
 Coeff-Com:  0.399D+00 0.204D+00 0.397D+00
 Coeff:      0.399D+00 0.204D+00 0.397D+00
 Gap=     0.128 Goal=   None    Shift=    0.000
 RMSDP=6.85D-07 MaxDP=1.04D-05 DE=-1.37D-08 OVMax= 1.53D-05

 Cycle  10  Pass 1  IDiag  1:
 E= -284.010167678177     Delta-E=       -0.000000000642 Rises=F Damp=F
 DIIS: error= 1.81D-06 at cycle   4 NSaved=   4.
 NSaved= 4 IEnMin= 4 EnMin= -284.010167678177     IErMin= 4 ErrMin= 1.81D-06
 ErrMax= 1.81D-06  0.00D+00 EMaxC= 1.00D-01 BMatC= 2.19D-10 BMatP= 9.83D-10
 IDIUse=1 WtCom= 1.00D+00 WtEn= 0.00D+00
 Coeff-Com:  0.126D+00 0.774D-01 0.319D+00 0.478D+00
 Coeff:      0.126D+00 0.774D-01 0.319D+00 0.478D+00
 Gap=     0.128 Goal=   None    Shift=    0.000
 RMSDP=2.86D-07 MaxDP=4.02D-06 DE=-6.42D-10 OVMax= 4.90D-06

 Cycle  11  Pass 1  IDiag  1:
 E= -284.010167678354     Delta-E=       -0.000000000177 Rises=F Damp=F
 DIIS: error= 4.44D-07 at cycle   5 NSaved=   5.
 NSaved= 5 IEnMin= 5 EnMin= -284.010167678354     IErMin= 5 ErrMin= 4.44D-07
 ErrMax= 4.44D-07  0.00D+00 EMaxC= 1.00D-01 BMatC= 1.03D-11 BMatP= 2.19D-10
 IDIUse=1 WtCom= 1.00D+00 WtEn= 0.00D+00
 Coeff-Com:  0.243D-01 0.203D-01 0.132D+00 0.267D+00 0.557D+00
 Coeff:      0.243D-01 0.203D-01 0.132D+00 0.267D+00 0.557D+00
 Gap=     0.128 Goal=   None    Shift=    0.000
 RMSDP=6.03D-08 MaxDP=7.74D-07 DE=-1.77D-10 OVMax= 8.70D-07

 Cycle  12  Pass 1  IDiag  1:
 E= -284.010167678361     Delta-E=       -0.000000000008 Rises=F Damp=F
 DIIS: error= 1.12D-07 at cycle   6 NSaved=   6.
 NSaved= 6 IEnMin= 6 EnMin= -284.010167678361     IErMin= 6 ErrMin= 1.12D-07
 ErrMax= 1.12D-07  0.00D+00 EMaxC= 1.00D-01 BMatC= 8.23D-13 BMatP= 1.03D-11
 IDIUse=1 WtCom= 1.00D+00 WtEn= 0.00D+00
 Coeff-Com:  0.492D-03 0.325D-02 0.355D-01 0.948D-01 0.288D+00 0.578D+00
 Coeff:      0.492D-03 0.325D-02 0.355D-01 0.948D-01 0.288D+00 0.578D+00
 Gap=     0.128 Goal=   None    Shift=    0.000
 RMSDP=2.33D-08 MaxDP=2.09D-07 DE=-7.73D-12 OVMax= 2.31D-07

 Cycle  13  Pass 1  IDiag  1:
 E= -284.010167678363     Delta-E=       -0.000000000002 Rises=F Damp=F
 DIIS: error= 1.46D-08 at cycle   7 NSaved=   7.
 NSaved= 7 IEnMin= 7 EnMin= -284.010167678363     IErMin= 7 ErrMin= 1.46D-08
 ErrMax= 1.46D-08  0.00D+00 EMaxC= 1.00D-01 BMatC= 2.23D-14 BMatP= 8.23D-13
 IDIUse=1 WtCom= 1.00D+00 WtEn= 0.00D+00
 Coeff-Com: -0.212D-03 0.139D-02 0.163D-01 0.458D-01 0.142D+00 0.305D+00
 Coeff-Com:  0.490D+00
 Coeff:     -0.212D-03 0.139D-02 0.163D-01 0.458D-01 0.142D+00 0.305D+00
 Coeff:      0.490D+00
 Gap=     0.128 Goal=   None    Shift=    0.000
 RMSDP=3.47D-09 MaxDP=3.74D-08 DE=-2.16D-12 OVMax= 4.78D-08

 SCF Done:  E(RPBE-PBE) =  -284.010167678     A.U. after   13 cycles
            NFock= 13  Conv=0.35D-08     -V/T= 2.0055
 KE= 2.824581955892D+02 PE=-1.020629819007D+03 EE= 2.770563446642D+02
 Leave Link  502 at Mon Jan  1 11:51:32 2024, MaxMem=   134217728 cpu:              20.2 elap:               5.1
 (Enter /home/emanuele/chem_software/gaussian//gdv/l701.exe)
 ... and contract with generalized density number  0.
 Compute integral first derivatives.
 Leave Link  701 at Mon Jan  1 11:51:32 2024, MaxMem=   134217728 cpu:               0.3 elap:               0.1
 (Enter /home/emanuele/chem_software/gaussian//gdv/l702.exe)
 L702 exits ... SP integral derivatives will be done elsewhere.
 Leave Link  702 at Mon Jan  1 11:51:32 2024, MaxMem=   134217728 cpu:               0.1 elap:               0.0
 (Enter /home/emanuele/chem_software/gaussian//gdv/l703.exe)
 Integral derivatives from FoFJK, PRISM(SPDF).
 Compute integral first derivatives, UseDBF=F ICtDFT=           0.
 Calling FoFJK, ICntrl=      2527 FMM=F ISym2X=0 I1Cent= 0 IOpClX= 0 NMat=1 NMatS=1 NMatT=0.
 FoFJK:  IHMeth= 1 ICntrl=    2527 DoSepK=F KAlg= 0 I1Cent=           0 FoldK=F
 IRaf=         0 NMat=       1 IRICut=       1 DoRegI=T DoRafI=F ISym2E= 0 IDoP0=0 IntGTp=1.
 FoFCou: FMM=F IPFlag=           0 FMFlag=      100000 FMFlg1=         800
         NFxFlg=           0 DoJE=F BraDBF=F KetDBF=F FulRan=T
         wScrn=  0.000000 ICntrl=      2527 IOpCl=  0 I1Cent=           0 NGrid=           0
         NMat0=    1 NMatS0=      1 NMatT0=    0 NMatD0=    1 NMtDS0=    0 NMtDT0=    0
 Symmetry not used in FoFCou.
 Leave Link  703 at Mon Jan  1 11:51:33 2024, MaxMem=   134217728 cpu:               4.9 elap:               1.2
 (Enter /home/emanuele/chem_software/gaussian//gdv/l716.exe)
 Dipole        =-1.32522712D-01-4.96005385D-01 5.87330073D-01
 -------------------------------------------------------------------
 Center     Atomic                   Forces (Hartrees/Bohr)
 Number     Number              X              Y              Z
 -------------------------------------------------------------------
      1        6           0.004370291   -0.005830894    0.000324170
      2        8          -0.000940761   -0.004392370   -0.000202131
      3        6           0.001646783    0.003354400   -0.002373964
      4        1           0.000167273   -0.000390019    0.000632717
      5        1           0.000049813   -0.000421829   -0.000348126
      6        7          -0.000243712    0.000396842    0.007494395
      7        1          -0.001966228   -0.002429885   -0.002702564
      8        1          -0.002146287   -0.000827232   -0.002911812
      9        8          -0.001584509    0.008129532   -0.000036157
     10        1           0.000647336    0.002411455    0.000123471
 -------------------------------------------------------------------
 Cartesian Forces:  Max     0.008129532 RMS     0.002921082
 Leave Link  716 at Mon Jan  1 11:51:33 2024, MaxMem=   134217728 cpu:               0.2 elap:               0.0
 (Enter /home/emanuele/chem_software/gaussian//gdv/l103.exe)

 GradGradGradGradGradGradGradGradGradGradGradGradGradGradGradGradGradGrad
 Berny optimization.
 Using GEDIIS/GDIIS optimizer.
 FormGI is forming the generalized inverse of G from B-inverse, IUseBI=4.
 Internal  Forces:  Max     0.008159857 RMS     0.002108503
 Search for a local minimum.
 Step number   2 out of a maximum of  100 on scan point     1 out of    11
 All quantities printed in internal units (Hartrees-Bohrs-Radians)
 RMS Force = .21381D-02 SwitMx=.10000D-02 MixMth= 1
 Mixed Optimization -- RFO/linear search
 Update second derivatives using D2CorX and points    1    2
 DE= -5.98D-03 DEPred=-6.24D-03 R= 9.59D-01
 TightC=F SS=  1.41D+00  RLast= 2.16D-01 DXNew= 5.0454D-01 6.4660D-01
 Trust test= 9.59D-01 RLast= 2.16D-01 DXMaxT set to 5.05D-01
 ITU=  1  0
 Use linear search instead of GDIIS.
     Eigenvalues ---    0.00877   0.01007   0.02341   0.03443   0.04542
     Eigenvalues ---    0.05939   0.08663   0.12880   0.15968   0.16000
     Eigenvalues ---    0.16995   0.21708   0.24967   0.25092   0.31503
     Eigenvalues ---    0.33475   0.34513   0.38873   0.45727   0.47088
     Eigenvalues ---    0.53920   0.54775   0.947881000.000001000.00000
     Eigenvalues --- 1000.000001000.000001000.000001000.000001000.00000
     Eigenvalues --- 1000.000001000.000001000.000001000.000001000.00000
     Eigenvalues --- 1000.00000
 RFO step:  Lambda=-6.57818054D-04 EMin= 8.76657238D-03
 Quartic linear search produced a step of  0.05455.
 Iteration  1 RMS(Cart)=  0.01502140 RMS(Int)=  0.00036077
 Iteration  2 RMS(Cart)=  0.00028821 RMS(Int)=  0.00023738
 Iteration  3 RMS(Cart)=  0.00000008 RMS(Int)=  0.00023738
 Fixing frozen coordinates.
 Iteration  1 RMS(Cart)=  0.00000295 RMS(Int)=  0.00000287
 Iteration  2 RMS(Cart)=  0.00000162 RMS(Int)=  0.00000321
 Iteration  3 RMS(Cart)=  0.00000089 RMS(Int)=  0.00000363
 ITry= 1 IFail=0 DXMaxC= 4.52D-02 DCOld= 1.00D+10 DXMaxT= 5.05D-01 DXLimC= 3.00D+00 Rises=F
 Variable       Old X    -DE/DX   Delta X   Delta X   Delta X     New X
                                 (Linear)    (Quad)   (Total)
    R1        2.61359   0.00138   0.00331   0.00182   0.00513   2.61873
    R2        2.86493  -0.00190   0.00068  -0.00655  -0.00587   2.85906
    R3        2.34070   0.00816   0.00368   0.00736   0.01105   2.35175
    R4        1.87312   0.00082   0.00241   0.00101   0.00342   1.87654
    R5        2.11094   0.00073   0.00168   0.00191   0.00359   2.11453
    R6        2.08636   0.00054   0.00124   0.00136   0.00260   2.08896
    R7        2.77029  -0.00548   0.00146  -0.01555  -0.01409   2.75620
    R8        1.94197  -0.00281   0.00154  -0.00689  -0.00535   1.93662
    R9        1.93502  -0.00259   0.00143  -0.00629  -0.00485   1.93017
    A1        1.94402  -0.00068  -0.00032  -0.00266  -0.00300   1.94102
    A2        2.15706  -0.00130   0.00054  -0.00545  -0.00493   2.15213
    A3        2.18147   0.00199  -0.00024   0.00856   0.00830   2.18977
    A4        1.93185  -0.00442   0.00330  -0.02969  -0.02640   1.90545
    A5        1.84621   0.00059   0.00036   0.00247   0.00283   1.84903
    A6        1.89057   0.00050  -0.00005   0.00304   0.00299   1.89356
    A7        1.91349  -0.00136  -0.00093  -0.00684  -0.00777   1.90572
    A8        1.84927  -0.00017  -0.00026   0.00106   0.00079   1.85006
    A9        2.01567   0.00015   0.00059  -0.00113  -0.00053   2.01514
   A10        1.94247   0.00038   0.00027   0.00195   0.00223   1.94469
   A11        1.96217  -0.00140   0.00231   0.00273   0.00439   1.96656
   A12        1.98858   0.00020   0.00240   0.01305   0.01481   2.00339
   A13        1.93832   0.00223   0.00232   0.03428   0.03564   1.97396
    D1        3.09483   0.00012   0.00012   0.00815   0.00822   3.10305
    D2       -0.01024  -0.00005   0.00038  -0.00518  -0.00475  -0.01499
    D3       -1.25365  -0.00015  -0.00000   0.00000   0.00000  -1.25365
    D4        0.72265   0.00016  -0.00014   0.00377   0.00363   0.72628
    D5        2.84537   0.00011  -0.00041   0.00389   0.00348   2.84884
    D6        1.85080  -0.00006  -0.00025   0.01319   0.01296   1.86377
    D7       -2.45608   0.00025  -0.00039   0.01696   0.01659  -2.43949
    D8       -0.33336   0.00020  -0.00065   0.01708   0.01644  -0.31692
    D9        0.54499  -0.00110  -0.00326  -0.03509  -0.03857   0.50643
   D10        2.76991   0.00095   0.00336   0.02624   0.02982   2.79973
   D11       -1.53784  -0.00095  -0.00345  -0.03242  -0.03610  -1.57394
   D12        0.68707   0.00110   0.00317   0.02891   0.03229   0.71937
   D13        2.63626  -0.00113  -0.00376  -0.03454  -0.03852   2.59774
   D14       -1.42202   0.00092   0.00287   0.02679   0.02987  -1.39214
         Item               Value     Threshold  Converged?
 Maximum Force            0.008160     0.000450     NO 
 RMS     Force            0.002138     0.000300     NO 
 Maximum Displacement     0.045219     0.001800     NO 
 RMS     Displacement     0.015064     0.001200     NO 
 Predicted change in Energy=-3.352786D-04
 Lowest energy point so far.  Saving SCF results.
 GradGradGradGradGradGradGradGradGradGradGradGradGradGradGradGradGradGrad

 Leave Link  103 at Mon Jan  1 11:51:33 2024, MaxMem=   134217728 cpu:               0.0 elap:               0.0
 (Enter /home/emanuele/chem_software/gaussian//gdv/l202.exe)
                          Input orientation:                          
 ---------------------------------------------------------------------
 Center     Atomic      Atomic             Coordinates (Angstroms)
 Number     Number       Type             X           Y           Z
 ---------------------------------------------------------------------
      1          6           0       -0.525247    0.109170    0.029855
      2          8           0       -1.656117   -0.683555   -0.084511
      3          6           0        0.726875   -0.734327    0.128459
      4          1           0        0.703952   -1.200739    1.145318
      5          1           0        0.644910   -1.569080   -0.591574
      6          7           0        1.890015    0.099508   -0.152780
      7          1           0        1.744093    1.080789    0.104191
      8          1           0        2.777709   -0.275616    0.185661
      9          8           0       -0.563478    1.352383    0.071267
     10          1           0       -2.460686   -0.102121   -0.110935
 ---------------------------------------------------------------------
                    Distance matrix (angstroms):
                    1          2          3          4          5
     1  C    0.000000
     2  O    1.385770   0.000000
     3  C    1.512950   2.393028   0.000000
     4  H    2.114486   2.711067   1.118959   0.000000
     5  H    2.138216   2.517140   1.105432   1.776501   0.000000
     6  N    2.422177   3.632204   1.458517   2.186881   2.127678
     7  H    2.469712   3.835355   2.080858   2.714998   2.951966
     8  H    3.328942   4.460742   2.102286   2.465210   2.612657
     9  O    1.244491   2.315852   2.454107   3.046046   3.230249
    10  H    1.952022   0.993023   3.258456   3.577718   3.468099
                    6          7          8          9         10
     6  N    0.000000
     7  H    1.024813   0.000000
     8  H    1.021401   1.707289   0.000000
     9  O    2.763969   2.323732   3.718467   0.000000
    10  H    4.355572   4.373297   5.249652   2.397536   0.000000
 Symmetry turned off by external request.
 Stoichiometry    C2H5NO2
 Framework group  C1[X(C2H5NO2)]
 Deg. of freedom    24
 Full point group                 C1      NOp   1
 Rotational constants (GHZ):           9.9011228           3.9233668           2.8886097
 Leave Link  202 at Mon Jan  1 11:51:33 2024, MaxMem=   134217728 cpu:               0.1 elap:               0.0
 (Enter /home/emanuele/chem_software/gaussian//gdv/l301.exe)
 Standard basis: 6-31G (6D, 7F)
 Ernie: Thresh=  0.10000D-02 Tol=  0.10000D-05 Strict=F.
    55 basis functions,   130 primitive gaussians,    55 cartesian basis functions
    20 alpha electrons       20 beta electrons
       nuclear repulsion energy       177.2209635052 Hartrees.
 IExCor=   10009 DFT=T Ex=PBE Corr=PBE N6=None ScaHFX=  0.000000
 ScaDFX=  1.000000  1.000000  1.000000  1.000000  1.000000  0.000000
 ScaDFX=  0.000000  0.000000  0.000000  0.000000  0.000000  0.000000
 IRadAn=      5 IRanWt=     -1 IRanGd=            0 ICorTp=0 IEmpDi=  4
 NAtoms=   10 NActive=   10 NUniq=   10 SFac= 1.00D+00 NAtFMM=   60 NAOKFM=F Big=F
 Integral buffers will be    131072 words long.
 Raffenetti 2 integral format.
 Two-electron integral symmetry is turned off.
 Leave Link  301 at Mon Jan  1 11:51:33 2024, MaxMem=   134217728 cpu:               0.2 elap:               0.1
 (Enter /home/emanuele/chem_software/gaussian//gdv/l302.exe)
 NPDir=0 NMtPBC=     1 NCelOv=     1 NCel=       1 NClECP=     1 NCelD=      1
         NCelK=      1 NCelE2=     1 NClLst=     1 CellRange=     0.0.
 One-electron integrals computed using PRISM.
 NBasis=    55 RedAO= T EigKep=  6.01D-03  NBF=    55
 NBsUse=    55 1.00D-06 EigRej= -1.00D+00 NBFU=    55
 Precomputing XC quadrature grid using
 IXCGrd= 4 IRadAn=           5 IRanWt=          -1 IRanGd=           0 AccXCQ= 0.00D+00.
 Generated NRdTot=       0 NPtTot=      219237 NUsed=           0 NTot=          64
 NSgBfM=    55    55    55    55    55 MxSgAt=    10 MxSgA2=    10 SizInc=   0.000
 NMBTot=     1889 MaxBatPerAtom=       84 MaxMicBPerAtom=      197.
 Leave Link  302 at Mon Jan  1 11:51:34 2024, MaxMem=   134217728 cpu:               0.6 elap:               0.2
 (Enter /home/emanuele/chem_software/gaussian//gdv/l303.exe)
 DipDrv:  MaxL=1.
 Leave Link  303 at Mon Jan  1 11:51:34 2024, MaxMem=   134217728 cpu:               0.2 elap:               0.0
 (Enter /home/emanuele/chem_software/gaussian//gdv/l401.exe)
 Initial guess from the checkpoint file:  "0_qm.chk"
 B after Tr=     0.000038   -0.002290    0.007008
         Rot=    0.999999    0.000417    0.001353   -0.000322 Ang=   0.17 deg.
 AO Guess basis will be translated and rotated to current coordinates.
 JPrj=2 DoOrth=T DoCkMO=T.
 Generating alternative initial guess.
 ExpMin= 1.61D-01 ExpMax= 5.48D+03 ExpMxC= 8.25D+02 IAcc=3 IRadAn=         5 AccDes= 0.00D+00
 Harris functional with IExCor=10009 and IRadAn=       5 diagonalized for initial guess.
 HarFok:  IExCor=   10009 AccDes= 0.00D+00 IRadAn=         5 IDoV= 1 UseB2=F ITyADJ=14 ICtDFT=  3500011
 FoFCou: FMM=F IPFlag=           0 FMFlag=      100000 FMFlg1=           0
         NFxFlg=           0 DoJE=T BraDBF=F KetDBF=T FulRan=T
         wScrn=  0.000000 ICntrl=       500 IOpCl=  0 I1Cent=   200000004 NGrid=           0
         NMat0=    1 NMatS0=      1 NMatT0=    0 NMatD0=    1 NMtDS0=    0 NMtDT0=    0
 Symmetry not used in FoFCou.
 Harris En= -284.093948209593    
 Leave Link  401 at Mon Jan  1 11:51:34 2024, MaxMem=   134217728 cpu:               2.4 elap:               0.6
 (Enter /home/emanuele/chem_software/gaussian//gdv/l502.exe)
 Keep J ints in memory in canonical form, NReq=4700713.
 FoFCou: FMM=F IPFlag=           0 FMFlag=           0 FMFlg1=           0
         NFxFlg=           0 DoJE=F BraDBF=F KetDBF=F FulRan=T
         wScrn=  0.000000 ICntrl=       600 IOpCl=  0 I1Cent=           0 NGrid=           0
         NMat0=    1 NMatS0=   1540 NMatT0=    0 NMatD0=    1 NMtDS0=    0 NMtDT0=    0
 Symmetry not used in FoFCou.
 Two-electron integral symmetry not used.
 Closed shell SCF:
 Using DIIS extrapolation, IDIIS=  1040.
 NGot=   134217728 LenX=   133023731 LenY=   133020265
 Requested convergence on RMS density matrix=1.00D-08 within 128 cycles.
 Requested convergence on MAX density matrix=1.00D-06.
 Requested convergence on             energy=1.00D-06.
 No special actions if energy rises.
 Integral accuracy reduced to 1.0D-05 until final iterations.

 Cycle   1  Pass 0  IDiag  1:
 E= -284.010229662079    
 DIIS: error= 1.29D-03 at cycle   1 NSaved=   1.
 NSaved= 1 IEnMin= 1 EnMin= -284.010229662079     IErMin= 1 ErrMin= 1.29D-03
 ErrMax= 1.29D-03  0.00D+00 EMaxC= 1.00D-01 BMatC= 1.86D-04 BMatP= 1.86D-04
 IDIUse=3 WtCom= 9.87D-01 WtEn= 1.29D-02
 Coeff-Com:  0.100D+01
 Coeff-En:   0.100D+01
 Coeff:      0.100D+01
 Gap=     0.523 Goal=   None    Shift=    0.000
 GapD=    0.523 DampG=2.000 DampE=1.000 DampFc=2.0000 IDamp=-1.
 RMSDP=7.41D-04 MaxDP=7.86D-03              OVMax= 9.52D-03

 Cycle   2  Pass 0  IDiag  1:
 E= -284.010566921714     Delta-E=       -0.000337259636 Rises=F Damp=F
 DIIS: error= 5.79D-04 at cycle   2 NSaved=   2.
 NSaved= 2 IEnMin= 2 EnMin= -284.010566921714     IErMin= 2 ErrMin= 5.79D-04
 ErrMax= 5.79D-04  0.00D+00 EMaxC= 1.00D-01 BMatC= 3.60D-05 BMatP= 1.86D-04
 IDIUse=3 WtCom= 9.94D-01 WtEn= 5.79D-03
 Coeff-Com:  0.209D+00 0.791D+00
 Coeff-En:   0.000D+00 0.100D+01
 Coeff:      0.208D+00 0.792D+00
 Gap=     0.123 Goal=   None    Shift=    0.000
 RMSDP=2.63D-04 MaxDP=2.55D-03 DE=-3.37D-04 OVMax= 5.32D-03

 Cycle   3  Pass 0  IDiag  1:
 E= -284.010513630485     Delta-E=        0.000053291229 Rises=F Damp=F
 DIIS: error= 1.39D-03 at cycle   3 NSaved=   3.
 NSaved= 3 IEnMin= 2 EnMin= -284.010566921714     IErMin= 2 ErrMin= 5.79D-04
 ErrMax= 1.39D-03  0.00D+00 EMaxC= 1.00D-01 BMatC= 1.05D-04 BMatP= 3.60D-05
 IDIUse=3 WtCom= 2.12D-01 WtEn= 7.88D-01
 Coeff-Com:  0.430D-01 0.616D+00 0.341D+00
 Coeff-En:   0.000D+00 0.678D+00 0.322D+00
 Coeff:      0.911D-02 0.665D+00 0.326D+00
 Gap=     0.124 Goal=   None    Shift=    0.000
 RMSDP=1.66D-04 MaxDP=2.23D-03 DE= 5.33D-05 OVMax= 4.50D-03

 Cycle   4  Pass 0  IDiag  1:
 E= -284.010593153533     Delta-E=       -0.000079523048 Rises=F Damp=F
 DIIS: error= 3.15D-04 at cycle   4 NSaved=   4.
 NSaved= 4 IEnMin= 4 EnMin= -284.010593153533     IErMin= 4 ErrMin= 3.15D-04
 ErrMax= 3.15D-04  0.00D+00 EMaxC= 1.00D-01 BMatC= 8.73D-06 BMatP= 3.60D-05
 IDIUse=3 WtCom= 9.97D-01 WtEn= 3.15D-03
 Coeff-Com:  0.915D-02 0.405D+00 0.226D+00 0.361D+00
 Coeff-En:   0.000D+00 0.567D-01 0.000D+00 0.943D+00
 Coeff:      0.912D-02 0.404D+00 0.225D+00 0.362D+00
 Gap=     0.125 Goal=   None    Shift=    0.000
 RMSDP=5.68D-05 MaxDP=6.90D-04 DE=-7.95D-05 OVMax= 9.39D-04

 Cycle   5  Pass 0  IDiag  1:
 E= -284.010600169159     Delta-E=       -0.000007015627 Rises=F Damp=F
 DIIS: error= 7.10D-05 at cycle   5 NSaved=   5.
 NSaved= 5 IEnMin= 5 EnMin= -284.010600169159     IErMin= 5 ErrMin= 7.10D-05
 ErrMax= 7.10D-05  0.00D+00 EMaxC= 1.00D-01 BMatC= 4.06D-07 BMatP= 8.73D-06
 IDIUse=1 WtCom= 1.00D+00 WtEn= 0.00D+00
 Coeff-Com:  0.776D-03 0.132D+00 0.690D-01 0.213D+00 0.586D+00
 Coeff:      0.776D-03 0.132D+00 0.690D-01 0.213D+00 0.586D+00
 Gap=     0.125 Goal=   None    Shift=    0.000
 RMSDP=1.40D-05 MaxDP=1.63D-04 DE=-7.02D-06 OVMax= 2.02D-04

 Cycle   6  Pass 0  IDiag  1:
 E= -284.010600493818     Delta-E=       -0.000000324659 Rises=F Damp=F
 DIIS: error= 2.86D-05 at cycle   6 NSaved=   6.
 NSaved= 6 IEnMin= 6 EnMin= -284.010600493818     IErMin= 6 ErrMin= 2.86D-05
 ErrMax= 2.86D-05  0.00D+00 EMaxC= 1.00D-01 BMatC= 5.58D-08 BMatP= 4.06D-07
 IDIUse=1 WtCom= 1.00D+00 WtEn= 0.00D+00
 Coeff-Com:  0.155D-03 0.649D-01 0.324D-01 0.123D+00 0.394D+00 0.385D+00
 Coeff:      0.155D-03 0.649D-01 0.324D-01 0.123D+00 0.394D+00 0.385D+00
 Gap=     0.125 Goal=   None    Shift=    0.000
 RMSDP=3.60D-06 MaxDP=4.86D-05 DE=-3.25D-07 OVMax= 5.83D-05

 Initial convergence to 1.0D-05 achieved.  Increase integral accuracy.
 Cycle   7  Pass 1  IDiag  1:
 E= -284.010606190026     Delta-E=       -0.000005696208 Rises=F Damp=F
 DIIS: error= 3.42D-06 at cycle   1 NSaved=   1.
 NSaved= 1 IEnMin= 1 EnMin= -284.010606190026     IErMin= 1 ErrMin= 3.42D-06
 ErrMax= 3.42D-06  0.00D+00 EMaxC= 1.00D-01 BMatC= 1.22D-09 BMatP= 1.22D-09
 IDIUse=1 WtCom= 1.00D+00 WtEn= 0.00D+00
 Coeff-Com:  0.100D+01
 Coeff:      0.100D+01
 Gap=     0.125 Goal=   None    Shift=    0.000
 RMSDP=3.60D-06 MaxDP=4.86D-05 DE=-5.70D-06 OVMax= 1.67D-05

 Cycle   8  Pass 1  IDiag  1:
 E= -284.010606189081     Delta-E=        0.000000000944 Rises=F Damp=F
 DIIS: error= 5.25D-06 at cycle   2 NSaved=   2.
 NSaved= 2 IEnMin= 1 EnMin= -284.010606190026     IErMin= 1 ErrMin= 3.42D-06
 ErrMax= 5.25D-06  0.00D+00 EMaxC= 1.00D-01 BMatC= 2.83D-09 BMatP= 1.22D-09
 IDIUse=1 WtCom= 1.00D+00 WtEn= 0.00D+00
 Coeff-Com:  0.614D+00 0.386D+00
 Coeff:      0.614D+00 0.386D+00
 Gap=     0.125 Goal=   None    Shift=    0.000
 RMSDP=9.97D-07 MaxDP=1.22D-05 DE= 9.44D-10 OVMax= 1.39D-05

 Cycle   9  Pass 1  IDiag  1:
 E= -284.010606191186     Delta-E=       -0.000000002104 Rises=F Damp=F
 DIIS: error= 2.09D-06 at cycle   3 NSaved=   3.
 NSaved= 3 IEnMin= 3 EnMin= -284.010606191186     IErMin= 3 ErrMin= 2.09D-06
 ErrMax= 2.09D-06  0.00D+00 EMaxC= 1.00D-01 BMatC= 2.69D-10 BMatP= 1.22D-09
 IDIUse=1 WtCom= 1.00D+00 WtEn= 0.00D+00
 Coeff-Com:  0.285D+00 0.253D+00 0.462D+00
 Coeff:      0.285D+00 0.253D+00 0.462D+00
 Gap=     0.125 Goal=   None    Shift=    0.000
 RMSDP=4.01D-07 MaxDP=6.32D-06 DE=-2.10D-09 OVMax= 9.79D-06

 Cycle  10  Pass 1  IDiag  1:
 E= -284.010606191293     Delta-E=       -0.000000000107 Rises=F Damp=F
 DIIS: error= 1.73D-06 at cycle   4 NSaved=   4.
 NSaved= 4 IEnMin= 4 EnMin= -284.010606191293     IErMin= 4 ErrMin= 1.73D-06
 ErrMax= 1.73D-06  0.00D+00 EMaxC= 1.00D-01 BMatC= 1.45D-10 BMatP= 2.69D-10
 IDIUse=1 WtCom= 1.00D+00 WtEn= 0.00D+00
 Coeff-Com:  0.483D-01 0.995D-01 0.421D+00 0.431D+00
 Coeff:      0.483D-01 0.995D-01 0.421D+00 0.431D+00
 Gap=     0.125 Goal=   None    Shift=    0.000
 RMSDP=2.07D-07 MaxDP=2.82D-06 DE=-1.07D-10 OVMax= 5.92D-06

 Cycle  11  Pass 1  IDiag  1:
 E= -284.010606191403     Delta-E=       -0.000000000110 Rises=F Damp=F
 DIIS: error= 4.00D-07 at cycle   5 NSaved=   5.
 NSaved= 5 IEnMin= 5 EnMin= -284.010606191403     IErMin= 5 ErrMin= 4.00D-07
 ErrMax= 4.00D-07  0.00D+00 EMaxC= 1.00D-01 BMatC= 1.06D-11 BMatP= 1.45D-10
 IDIUse=1 WtCom= 1.00D+00 WtEn= 0.00D+00
 Coeff-Com:  0.634D-02 0.428D-01 0.243D+00 0.300D+00 0.408D+00
 Coeff:      0.634D-02 0.428D-01 0.243D+00 0.300D+00 0.408D+00
 Gap=     0.125 Goal=   None    Shift=    0.000
 RMSDP=5.64D-08 MaxDP=6.75D-07 DE=-1.10D-10 OVMax= 1.07D-06

 Cycle  12  Pass 1  IDiag  1:
 E= -284.010606191412     Delta-E=       -0.000000000010 Rises=F Damp=F
 DIIS: error= 6.27D-08 at cycle   6 NSaved=   6.
 NSaved= 6 IEnMin= 6 EnMin= -284.010606191412     IErMin= 6 ErrMin= 6.27D-08
 ErrMax= 6.27D-08  0.00D+00 EMaxC= 1.00D-01 BMatC= 3.79D-13 BMatP= 1.06D-11
 IDIUse=1 WtCom= 1.00D+00 WtEn= 0.00D+00
 Coeff-Com:  0.181D-03 0.178D-01 0.111D+00 0.146D+00 0.228D+00 0.497D+00
 Coeff:      0.181D-03 0.178D-01 0.111D+00 0.146D+00 0.228D+00 0.497D+00
 Gap=     0.125 Goal=   None    Shift=    0.000
 RMSDP=1.32D-08 MaxDP=1.26D-07 DE=-9.66D-12 OVMax= 1.47D-07

 Cycle  13  Pass 1  IDiag  1:
 E= -284.010606191412     Delta-E=        0.000000000000 Rises=F Damp=F
 DIIS: error= 2.04D-08 at cycle   7 NSaved=   7.
 NSaved= 7 IEnMin= 6 EnMin= -284.010606191412     IErMin= 7 ErrMin= 2.04D-08
 ErrMax= 2.04D-08  0.00D+00 EMaxC= 1.00D-01 BMatC= 2.95D-14 BMatP= 3.79D-13
 IDIUse=1 WtCom= 1.00D+00 WtEn= 0.00D+00
 Coeff-Com: -0.391D-03 0.602D-02 0.387D-01 0.536D-01 0.852D-01 0.271D+00
 Coeff-Com:  0.546D+00
 Coeff:     -0.391D-03 0.602D-02 0.387D-01 0.536D-01 0.852D-01 0.271D+00
 Coeff:      0.546D+00
 Gap=     0.125 Goal=   None    Shift=    0.000
 RMSDP=3.90D-09 MaxDP=3.33D-08 DE= 1.14D-13 OVMax= 4.52D-08

 SCF Done:  E(RPBE-PBE) =  -284.010606191     A.U. after   13 cycles
            NFock= 13  Conv=0.39D-08     -V/T= 2.0055
 KE= 2.824500052995D+02 PE=-1.020855978476D+03 EE= 2.771744034804D+02
 Leave Link  502 at Mon Jan  1 11:51:39 2024, MaxMem=   134217728 cpu:              20.4 elap:               5.2
 (Enter /home/emanuele/chem_software/gaussian//gdv/l701.exe)
 ... and contract with generalized density number  0.
 Compute integral first derivatives.
 Leave Link  701 at Mon Jan  1 11:51:40 2024, MaxMem=   134217728 cpu:               0.3 elap:               0.1
 (Enter /home/emanuele/chem_software/gaussian//gdv/l702.exe)
 L702 exits ... SP integral derivatives will be done elsewhere.
 Leave Link  702 at Mon Jan  1 11:51:40 2024, MaxMem=   134217728 cpu:               0.1 elap:               0.0
 (Enter /home/emanuele/chem_software/gaussian//gdv/l703.exe)
 Integral derivatives from FoFJK, PRISM(SPDF).
 Compute integral first derivatives, UseDBF=F ICtDFT=           0.
 Calling FoFJK, ICntrl=      2527 FMM=F ISym2X=0 I1Cent= 0 IOpClX= 0 NMat=1 NMatS=1 NMatT=0.
 FoFJK:  IHMeth= 1 ICntrl=    2527 DoSepK=F KAlg= 0 I1Cent=           0 FoldK=F
 IRaf=         0 NMat=       1 IRICut=       1 DoRegI=T DoRafI=F ISym2E= 0 IDoP0=0 IntGTp=1.
 FoFCou: FMM=F IPFlag=           0 FMFlag=      100000 FMFlg1=         800
         NFxFlg=           0 DoJE=F BraDBF=F KetDBF=F FulRan=T
         wScrn=  0.000000 ICntrl=      2527 IOpCl=  0 I1Cent=           0 NGrid=           0
         NMat0=    1 NMatS0=      1 NMatT0=    0 NMatD0=    1 NMtDS0=    0 NMtDT0=    0
 Symmetry not used in FoFCou.
 Leave Link  703 at Mon Jan  1 11:51:41 2024, MaxMem=   134217728 cpu:               4.9 elap:               1.2
 (Enter /home/emanuele/chem_software/gaussian//gdv/l716.exe)
 Dipole        =-1.00366356D-01-4.90166347D-01 5.48841878D-01
 -------------------------------------------------------------------
 Center     Atomic                   Forces (Hartrees/Bohr)
 Number     Number              X              Y              Z
 -------------------------------------------------------------------
      1        6           0.001514287   -0.001477927   -0.000871774
      2        8          -0.000970857    0.000121208    0.000378614
      3        6           0.001967935    0.002521920   -0.001337169
      4        1          -0.000129615   -0.000271619   -0.000128860
      5        1          -0.000654585   -0.000142331    0.000210612
      6        7           0.000615012    0.000111052    0.005097342
      7        1           0.000073598   -0.001670342   -0.001656649
      8        1          -0.001702672    0.000572156   -0.001900883
      9        8          -0.000681841   -0.000089274    0.000165248
     10        1          -0.000031262    0.000325155    0.000043519
 -------------------------------------------------------------------
 Cartesian Forces:  Max     0.005097342 RMS     0.001394287
 Leave Link  716 at Mon Jan  1 11:51:41 2024, MaxMem=   134217728 cpu:               0.1 elap:               0.0
 (Enter /home/emanuele/chem_software/gaussian//gdv/l103.exe)

[...]
                           ----------------------------
                           !   Optimized Parameters   !
                           ! (Angstroms and Degrees)  !
 --------------------------                            --------------------------
 ! Name  Definition              Value          Derivative Info.                !
 --------------------------------------------------------------------------------
 ! R1    R(1,2)                  1.3917         -DE/DX =    0.0                 !
 ! R2    R(1,3)                  1.5275         -DE/DX =    0.0                 !
 ! R3    R(1,9)                  1.2439         -DE/DX =    0.0                 !
 ! R4    R(2,10)                 0.9942         -DE/DX =    0.0                 !
 ! R5    R(3,4)                  1.1071         -DE/DX =    0.0                 !
 ! R6    R(3,5)                  1.1031         -DE/DX =    0.0                 !
 ! R7    R(3,6)                  1.4528         -DE/DX =    0.0                 !
 ! R8    R(6,7)                  1.0219         -DE/DX =    0.0                 !
 ! R9    R(6,8)                  1.0221         -DE/DX =    0.0                 !
 ! A1    A(2,1,3)              111.4007         -DE/DX =    0.0                 !
 ! A2    A(2,1,9)              122.7653         -DE/DX =    0.0                 !
 ! A3    A(3,1,9)              125.833          -DE/DX =    0.0                 !
 ! A4    A(1,2,10)             109.0341         -DE/DX =    0.0                 !
 ! A5    A(1,3,4)              107.2826         -DE/DX =   -0.0001              !
 ! A6    A(1,3,5)              108.5986         -DE/DX =   -0.0001              !
 ! A7    A(1,3,6)              114.8144         -DE/DX =    0.0001              !
 ! A8    A(4,3,5)              105.9271         -DE/DX =   -0.0003              !
 ! A9    A(4,3,6)              109.3009         -DE/DX =    0.0004              !
 ! A10   A(5,3,6)              110.5004         -DE/DX =    0.0                 !
 ! A11   A(3,6,7)              113.7445         -DE/DX =    0.0                 !
 ! A12   A(3,6,8)              113.3881         -DE/DX =    0.0                 !
 ! A13   A(7,6,8)              110.5584         -DE/DX =    0.0                 !
 ! D1    D(3,1,2,10)           178.2204         -DE/DX =   -0.0003              !
 ! D2    D(9,1,2,10)            -1.4456         -DE/DX =    0.0003              !
 ! D3    D(2,1,3,4)            -71.8287         -DE/DX =    0.001               !
 ! D4    D(2,1,3,5)             42.2457         -DE/DX =    0.0004              !
 ! D5    D(2,1,3,6)            166.4877         -DE/DX =    0.0005              !
 ! D6    D(9,1,3,4)            107.8248         -DE/DX =    0.0004              !
 ! D7    D(9,1,3,5)           -138.1008         -DE/DX =   -0.0001              !
 ! D8    D(9,1,3,6)            -13.8587         -DE/DX =   -0.0001              !
 ! D9    D(1,3,6,7)            -67.9386         -DE/DX =    0.0001              !
 ! D10   D(1,3,6,8)             59.5231         -DE/DX =    0.0001              !
 ! D11   D(4,3,6,7)            171.4826         -DE/DX =   -0.0001              !
 ! D12   D(4,3,6,8)            -61.0557         -DE/DX =   -0.0001              !
 ! D13   D(5,3,6,7)             55.2922         -DE/DX =    0.0                 !
 ! D14   D(5,3,6,8)           -177.2461         -DE/DX =    0.0                 !
 --------------------------------------------------------------------------------
 Lowest energy point so far.  Saving SCF results.
 Summary of Optimized Potential Surface Scan (add -284.0 to energies):
                           1         2         3         4         5
     Eigenvalues --    -0.01084  -0.01065  -0.00761  -0.01042  -0.01110
           R1           1.38696   1.38698   1.38776   1.39805   1.39752
           R2           1.51157   1.51145   1.51688   1.52402   1.52684
           R3           1.24490   1.24486   1.24453   1.24526   1.24360
           R4           0.99330   0.99355   0.99515   0.99450   0.99349
           R5           1.12009   1.10559   1.09972   1.10095   1.10616
           R6           1.10684   1.12201   1.11874   1.10080   1.10075
           R7           1.44732   1.44746   1.45941   1.46690   1.46049
           R8           1.01841   1.01890   1.01946   1.02081   1.02095
           R9           1.01456   1.01523   1.01733   1.02062   1.02086
           A1         111.57774 111.68148 112.48898 110.97610 110.87436
           A2         122.90900 122.91875 122.74588 122.25697 122.27225
           A3         125.50191 125.38814 124.74234 126.54740 126.85313
           A4         108.80605 108.80555 108.76094 108.72964 108.71140
           A5         105.70491 108.38904 109.30277 109.63851 107.57074
           A6         108.12160 105.39186 106.61025 107.95765 107.06947
           A7         109.35703 109.39605 108.07914 112.04306 115.76861
           A8         105.77670 105.19519 106.87984 108.83460 107.54843
           A9         115.04440 112.60692 110.52417 109.01498 108.39368
           A10        112.41804 115.40826 115.27408 109.29665 110.18077
           A11        114.70693 114.45332 114.37225 114.49698 114.33980
           A12        117.12204 116.81624 115.64137 114.42549 113.77352
           A13        115.72536 115.38372 114.14105 112.76213 111.90156
           D1         177.66801-177.20213 178.77491 174.79604 179.55187
           D2          -1.16739   1.61777   0.43694  -0.14693  -0.62399
           D3         -71.82893 -35.82888   0.17124  36.17111  72.17122
           D4          41.07541  76.38142 115.35609 154.59448-172.48347
           D5         163.77812-158.95696-120.16787 -85.00731 -49.18781
           D6         106.97008 145.38624 178.47004-149.15293-107.64295
           D7        -140.12558-102.40346 -66.34511 -30.72957   7.70236
           D8         -17.42287  22.25816  58.13093  89.66865 130.99802
           D9          24.03402 -28.82584 -58.46971 -64.94069 -67.63543
           D10        164.61233-168.07328 165.84564  67.42934  62.65215
           D11        -94.70536-149.41586-178.04105 173.52203 171.44766
           D12         45.87296  71.33669  46.27431 -54.10794 -58.26476
           D13        144.13676  89.77879  60.65212  54.67601  54.01219
           D14        -75.28493 -49.46865 -75.03253-172.95396-175.70024
                           6         7         8         9        10
     Eigenvalues --    -0.01205  -0.01198  -0.01087  -0.01036  -0.01175
           R1           1.39510   1.39521   1.39825   1.39671   1.39222
           R2           1.52949   1.52915   1.52608   1.52481   1.52755
           R3           1.24385   1.24384   1.24376   1.24573   1.24535
           R4           0.99380   0.99375   0.99358   0.99492   0.99515
           R5           1.10751   1.10351   1.10064   1.10173   1.10609
           R6           1.10390   1.10799   1.10518   1.10013   1.09968
           R7           1.45234   1.45234   1.46153   1.46658   1.46183
           R8           1.02097   1.02083   1.02066   1.02080   1.02191
           R9           1.02088   1.02098   1.02075   1.02110   1.02235
           A1         112.10410 111.98934 110.66543 111.45355 112.17442
           A2         122.43268 122.41655 122.24638 122.27703 122.52181
           A3         125.44197 125.56387 127.07472 126.04402 125.26460
           A4         108.30308 108.35682 108.75043 108.74869 108.98679
           A5         106.23102 106.57816 107.18005 107.93916 107.30874
           A6         106.54876 106.19975 108.08235 109.76179 109.62235
           A7         118.39807 118.33548 114.90442 112.04114 113.46832
           A8         105.46796 105.30103 107.46633 108.67226 107.84586
           A9         109.21852 110.40862 110.23664 109.00319 107.96778
           A10        110.17510 109.19131 108.70765 109.35358 110.41728
           A11        114.10389 113.86439 113.92523 114.50548 114.01685
           A12        113.89532 114.14106 114.49195 114.22682 113.14454
           A13        110.90615 111.01016 112.24616 112.62393 111.41817
           D1        -178.55918 178.32438-178.01065-175.29127 179.75492
           D2          -0.15166   0.22235   0.74167  -0.44100  -2.41158
           D3         108.17105 144.17109-179.82889-143.82890-107.82889
           D4        -139.72580-103.91533 -64.27042 -25.54213   9.03601
           D5         -14.99913  19.14867  57.30267  96.15000 132.99148
           D6         -70.17914 -37.79856   1.49372  41.55660  74.40848
           D7          41.92401  74.11503 117.05219 159.84337-168.72662
           D8         166.65068-162.82097-121.37472 -78.46451 -44.77115
           D9         -66.82138 -61.49124 -63.69422 -68.60649 -69.77791
           D10         61.91888  67.40412  67.39564  63.36124  58.92199
           D11        171.51225 175.38092 175.09145 171.99530 171.42064
           D12        -59.74749 -55.72372 -53.81869 -56.03697 -59.87945
           D13         56.10878  60.06321  57.53822  53.31945  53.74390
           D14       -175.15096-171.04142-171.37191-174.71282-177.55620
                          11
     Eigenvalues --    -0.01407
           R1           1.39167
           R2           1.52747
           R3           1.24393
           R4           0.99417
           R5           1.10714
           R6           1.10309
           R7           1.45283
           R8           1.02191
           R9           1.02211
           A1         111.40074
           A2         122.76530
           A3         125.83301
           A4         109.03411
           A5         107.28262
           A6         108.59855
           A7         114.81442
           A8         105.92705
           A9         109.30089
           A10        110.50042
           A11        113.74453
           A12        113.38815
           A13        110.55837
           D1         178.22035
           D2          -1.44562
           D3         -71.82872
           D4          42.24570
           D5         166.48773
           D6         107.82481
           D7        -138.10076
           D8         -13.85874
           D9         -67.93856
           D10         59.52314
           D11        171.48257
           D12        -61.05573
           D13         55.29217
           D14       -177.24613
 Largest change from initial coordinates is atom    5       0.781 Angstoms.
 GradGradGradGradGradGradGradGradGradGradGradGradGradGradGradGradGradGrad

 Leave Link  103 at Mon Jan  1 12:04:43 2024, MaxMem=   134217728 cpu:               0.0 elap:               0.0
 (Enter /home/emanuele/chem_software/gaussian//gdv/l202.exe)
                          Input orientation:                          
 ---------------------------------------------------------------------
 Center     Atomic      Atomic             Coordinates (Angstroms)
 Number     Number       Type             X           Y           Z
 ---------------------------------------------------------------------
      1          6           0       -0.547395   -0.079113    0.154111
      2          8           0       -1.377372    0.559167   -0.762674
      3          6           0        0.868182   -0.243366   -0.395722
      4          1           0        0.827038   -1.020448   -1.183254
      5          1           0        1.157691    0.690405   -0.906677
      6          7           0        1.866939   -0.613429    0.592336
      7          1           0        2.060189    0.120326    1.276850
      8          1           0        1.664477   -1.498291    1.062168
      9          8           0       -0.944127   -0.460488    1.269695
     10          1           0       -2.293596    0.621650   -0.381881
 ---------------------------------------------------------------------
                    Distance matrix (angstroms):
                    1          2          3          4          5
     1  C    0.000000
     2  O    1.391673   0.000000
     3  C    1.527467   2.412721   0.000000
     4  H    2.136287   2.744356   1.107139   0.000000
     5  H    2.150523   2.542539   1.103095   1.764326   0.000000
     6  N    2.511284   3.706290   1.452832   2.097565   2.109515
     7  H    2.846017   4.021077   2.085821   2.978949   2.430490
     8  H    2.780471   4.100735   2.081915   2.443678   2.987235
     9  O    1.243935   2.314718   2.470875   3.076937   3.237096
    10  H    1.956418   0.994170   3.278000   3.616219   3.491636
                    6          7          8          9         10
     6  N    0.000000
     7  H    1.021910   0.000000
     8  H    1.022113   1.680059   0.000000
     9  O    2.895566   3.059952   2.815124   0.000000
    10  H    4.447985   4.685953   4.716543   2.391609   0.000000
 Symmetry turned off by external request.
 Stoichiometry    C2H5NO2
 Framework group  C1[X(C2H5NO2)]
 Deg. of freedom    24
 Full point group                 C1      NOp   1
 Rotational constants (GHZ):           9.8027255           3.7749929           2.8313290
 Leave Link  202 at Mon Jan  1 12:04:43 2024, MaxMem=   134217728 cpu:               0.1 elap:               0.0
 (Enter /home/emanuele/chem_software/gaussian//gdv/l601.exe)
 Copying SCF densities to generalized density rwf, IOpCl= 0 IROHF=0.

 **********************************************************************

            Population analysis using the SCF Density.

 **********************************************************************

 Alpha  occ. eigenvalues --      -18.82079     -18.77388     -13.98398     -10.02924      -9.93984
 Alpha  occ. eigenvalues --       -1.01874      -0.93848      -0.81388      -0.65753      -0.55021
 Alpha  occ. eigenvalues --       -0.46438      -0.44605      -0.41775      -0.39901      -0.38366
 Alpha  occ. eigenvalues --       -0.33689      -0.33030      -0.27465      -0.23388      -0.18444
 Alpha virt. eigenvalues --       -0.04481       0.03164       0.05473       0.10435       0.10868
 Alpha virt. eigenvalues --        0.15521       0.16711       0.18824       0.25105       0.31358
 Alpha virt. eigenvalues --        0.50099       0.53006       0.54467       0.58454       0.60477
 Alpha virt. eigenvalues --        0.62184       0.68858       0.72051       0.74926       0.76862
 Alpha virt. eigenvalues --        0.80246       0.85810       0.87358       0.89272       0.90208
 Alpha virt. eigenvalues --        0.91926       0.92869       0.97990       1.06956       1.09461
 Alpha virt. eigenvalues --        1.15446       1.29785       1.51730       1.68129       1.79911
          Condensed to atoms (all electrons):
               1          2          3          4          5          6
     1  C    5.068290   0.094748   0.097461  -0.053157  -0.040004  -0.072564
     2  O    0.094748   8.407697  -0.101066   0.005056   0.007093   0.003368
     3  C    0.097461  -0.101066   5.395999   0.366026   0.357318   0.324044
     4  H   -0.053157   0.005056   0.366026   0.532044  -0.020948  -0.035919
     5  H   -0.040004   0.007093   0.357318  -0.020948   0.529469  -0.034800
     6  N   -0.072564   0.003368   0.324044  -0.035919  -0.034800   6.804258
     7  H    0.000809   0.000104  -0.050131   0.005490  -0.005270   0.330956
     8  H    0.001180   0.000157  -0.049251  -0.004072   0.005321   0.328415
     9  O    0.496466  -0.107156  -0.107740  -0.000038   0.001878  -0.003732
    10  H   -0.001641   0.202300   0.009310  -0.000548  -0.000534  -0.000304
               7          8          9         10
     1  C    0.000809   0.001180   0.496466  -0.001641
     2  O    0.000104   0.000157  -0.107156   0.202300
     3  C   -0.050131  -0.049251  -0.107740   0.009310
     4  H    0.005490  -0.004072  -0.000038  -0.000548
     5  H   -0.005270   0.005321   0.001878  -0.000534
     6  N    0.330956   0.328415  -0.003732  -0.000304
     7  H    0.456829  -0.034617   0.001765  -0.000009
     8  H   -0.034617   0.449424   0.005634  -0.000005
     9  O    0.001765   0.005634   8.090856   0.007327
    10  H   -0.000009  -0.000005   0.007327   0.407691
 Mulliken charges:
               1
     1  C    0.408411
     2  O   -0.512301
     3  C   -0.241971
     4  H    0.206065
     5  H    0.200477
     6  N   -0.643721
     7  H    0.294073
     8  H    0.297815
     9  O   -0.385260
    10  H    0.376413
 Sum of Mulliken charges =  -0.00000
 Mulliken charges with hydrogens summed into heavy atoms:
               1
     1  C    0.408411
     2  O   -0.135889
     3  C    0.164571
     6  N   -0.051833
     9  O   -0.385260
 Electronic spatial extent (au):  <R**2>=            440.8954
 Charge=             -0.0000 electrons
 Dipole moment (field-independent basis, Debye):
    X=             -0.6912    Y=              0.5481    Z=             -0.4165  Tot=              0.9755
 Quadrupole moment (field-independent basis, Debye-Ang):
   XX=            -29.1049   YY=            -27.8915   ZZ=            -32.0230
   XY=             -0.3920   XZ=              3.4090   YZ=              1.6511
 Traceless Quadrupole moment (field-independent basis, Debye-Ang):
   XX=              0.5682   YY=              1.7817   ZZ=             -2.3499
   XY=             -0.3920   XZ=              3.4090   YZ=              1.6511
 Octapole moment (field-independent basis, Debye-Ang**2):
  XXX=            -36.2980  YYY=             11.7525  ZZZ=            -13.9482  XYY=              0.3992
  XXY=             14.9750  XXZ=             -2.9365  XZZ=              9.1824  YZZ=              4.6304
  YYZ=             -2.7913  XYZ=             -2.9623
 Hexadecapole moment (field-independent basis, Debye-Ang**3):
 XXXX=           -316.3409 YYYY=            -65.4614 ZZZZ=           -137.6241 XXXY=             36.4749
 XXXZ=              1.5789 YYYX=             28.7126 YYYZ=             20.0666 ZZZX=             -5.5981
 ZZZY=             25.8698 XXYY=            -60.8617 XXZZ=            -70.6538 YYZZ=            -31.6110
 XXYZ=              7.2494 YYXZ=             -1.4508 ZZXY=              8.5378
 N-N= 1.759880371220D+02 E-N=-1.018452914296D+03  KE= 2.824653498783D+02
 No NMR shielding tensors so no spin-rotation constants.
 Leave Link  601 at Mon Jan  1 12:04:43 2024, MaxMem=   134217728 cpu:               0.3 elap:               0.1
 (Enter /home/emanuele/chem_software/gaussian//gdv/l9999.exe)
 Unable to Open any file for archive entry.
 1\1\GINC-EMANUELE-XPS-13-9343\Scan\RPBEPBE\6-31G\C2H5N1O2\EMANUELE\01-
 Jan-2024\0\\#p nosymm geom=nocrowd opt=(modredundant,maxcycle=100) PBE
 PBE/6-31G\\Title\\0,1\C,-0.5473954273,-0.0791127594,0.1541105029\O,-1.
 3773716196,0.5591665337,-0.7626737859\C,0.8681818935,-0.2433659967,-0.
 3957223196\H,0.8270375153,-1.0204479983,-1.1832543154\H,1.1576909437,0
 .6904049385,-0.9066769748\N,1.8669390751,-0.613428693,0.5923358304\H,2
 .0601885904,0.1203256864,1.2768497605\H,1.664477483,-1.4982914327,1.06
 21681085\O,-0.9441270921,-0.4604881659,1.2696954952\H,-2.293596362,0.6
 216498874,-0.3818813019\\Version=ES64L-GDVRevJ.14\HF=-284.0108431,-284
 .0106485,-284.0076097,-284.0104173,-284.0111048,-284.012047,-284.01198
 38,-284.0108748,-284.0103592,-284.0117549,-284.0140709\RMSD=3.087e-09,
 8.311e-09,5.982e-09,6.554e-09,2.251e-09,7.891e-09,4.163e-09,9.058e-09,
 6.466e-09,3.769e-09,4.979e-09\PG=C01 [X(C2H5N1O2)]\\@
 The archive entry for this job was punched.


 LET US LEARN TO DREAM, GENTLEMEN, THEN PERHAPS WE SHALL
 DISCOVER THE TRUTH;  BUT LET US BEWARE OF PUBLISHING
 OUR DREAMS ABROAD BEFORE THEY HAVE BEEN SCRUTINIZED
 BY OUR VIGILANT INTELLECT ... LET US ALWAYS ALLOW
 THE FRUIT TO HANG UNTIL IT IS RIPE.  UNRIPE FRUIT
 BRINGS EVEN THE GROWER BUT LITTLE PROFIT; IT DAMAGES
 THE HEALTH OF THOSE WHO CONSUME IT; IT ENDANGERS
 PARTICULARLY THE YOUTH WHO CANNOT YET DISTINGUISH
 BETWEEN RIPE AND UNRIPE FRUIT.

                                  -- KEKULE, 1890
 Job cpu time:       0 days  0 hours 45 minutes 45.2 seconds.
 Elapsed time:       0 days  0 hours 13 minutes 17.6 seconds.
 File lengths (MBytes):  RWF=      6 Int=      0 D2E=      0 Chk=      2 Scr=      1
 Normal termination of Gaussian DV at Mon Jan  1 12:04:43 2024.
