 Entering Gaussian System, Link 0=/home/emanuele/chem_software/gaussian//g09/g09
 Input=0_zmat_mm_20.gjf
 Output=0_zmat_mm_20.log
 Initial command:
 /home/emanuele/chem_software/gaussian//gdv/l1.exe "/home/emanuele/chem_software/gaussian/scratch/Gau-6250.inp" -scrdir="/home/emanuele/chem_software/gaussian/scratch/"
 Entering Link 1 = /home/emanuele/chem_software/gaussian//gdv/l1.exe PID=      6252.
  
 Copyright (c) 1988-2020, Gaussian, Inc.  All Rights Reserved.
  
 This is the private, development version of
 the Gaussian(R) DV system of programs. It is based on
 the Gaussian(R) 16 system (copyright 2016, Gaussian, Inc.),
 the Gaussian(R) 09 system (copyright 2009, Gaussian, Inc.),
 the Gaussian(R) 03 system (copyright 2003, Gaussian, Inc.),
 the Gaussian(R) 98 system (copyright 1998, Gaussian, Inc.),
 the Gaussian(R) 94 system (copyright 1995, Gaussian, Inc.),
 the Gaussian 92(TM) system (copyright 1992, Gaussian, Inc.),
 the Gaussian 90(TM) system (copyright 1990, Gaussian, Inc.),
 the Gaussian 88(TM) system (copyright 1988, Gaussian, Inc.),
 the Gaussian 86(TM) system (copyright 1986, Carnegie Mellon
 University), and the Gaussian 82(TM) system (copyright 1983,
 Carnegie Mellon University). Gaussian is a federally registered
 trademark of Gaussian, Inc.
  
 This software contains proprietary and confidential information,
 including trade secrets, belonging to Gaussian, Inc.
  
 This software is provided under written license and may be
 used, copied, transmitted, or stored only in accord with that
 written license.
  
 The following legend is applicable only to US Government
 contracts under FAR:
  
                    RESTRICTED RIGHTS LEGEND
  
 Use, reproduction and disclosure by the US Government is
 subject to restrictions as set forth in subparagraphs (a)
 and (c) of the Commercial Computer Software - Restricted
 Rights clause in FAR 52.227-19.
  
 Gaussian, Inc.
 340 Quinnipiac St., Bldg. 40, Wallingford CT 06492
  
  
 ---------------------------------------------------------------
 Warning -- This program may not be used in any manner that
 competes with the business of Gaussian, Inc. or will provide
 assistance to any competitor of Gaussian, Inc.  The licensee
 of this program is prohibited from giving any competitor of
 Gaussian, Inc. access to this program.  By using this program,
 the user acknowledges that Gaussian, Inc. is engaged in the
 business of creating and licensing software in the field of
 computational chemistry and represents and warrants to the
 licensee that it is not a competitor of Gaussian, Inc. and that
 it will not use this program in any manner prohibited above.
 ---------------------------------------------------------------
  

 Cite this work as:
 Gaussian Development Version, Revision J.14,
 M. J. Frisch, G. W. Trucks, H. B. Schlegel, G. E. Scuseria, 
 M. A. Robb, J. R. Cheeseman, G. Scalmani, V. Barone, 
 G. A. Petersson, H. Nakatsuji, X. Li, A. V. Marenich, M. Caricato, 
 J. Bloino, B. G. Janesko, J. Zheng, R. Gomperts, B. Mennucci, 
 H. P. Hratchian, J. V. Ortiz, A. F. Izmaylov, J. L. Sonnenberg, 
 D. Williams-Young, F. Ding, F. Lipparini, F. Egidi, J. Goings, 
 B. Peng, A. Petrone, T. Henderson, D. Ranasinghe, V. G. Zakrzewski, 
 J. Gao, N. Rega, G. Zheng, W. Liang, M. Hada, M. Ehara, K. Toyota, 
 R. Fukuda, J. Hasegawa, M. Ishida, T. Nakajima, Y. Honda, O. Kitao, 
 H. Nakai, T. Vreven, K. Throssell, J. A. Montgomery, Jr., 
 J. E. Peralta, F. Ogliaro, M. J. Bearpark, J. J. Heyd, 
 E. N. Brothers, K. N. Kudin, V. N. Staroverov, T. A. Keith, 
 R. Kobayashi, J. Normand, K. Raghavachari, A. P. Rendell, 
 J. C. Burant, S. S. Iyengar, J. Tomasi, M. Cossi, J. M. Millam, 
 M. Klene, C. Adamo, R. Cammi, J. W. Ochterski, R. L. Martin, 
 K. Morokuma, O. Farkas, J. B. Foresman, and D. J. Fox, 
 Gaussian, Inc., Wallingford CT, 2020.
 
 ******************************************
 Gaussian DV:  ES64L-GDVRevJ.14 29-Dec-2020
                26-Nov-2023 
 ******************************************
 %mem=1GB
 %nprocshared=1
 Will use up to    1 processors via shared memory.
 %chk=0_zmat_mm_20.chk
 -----------------------------------------------------------------
 #p Amber=(SoftFirst,Print) geom=nocrowd nosymm opt=(maxcycle=300)
 -----------------------------------------------------------------
 1/6=300,10=10,18=4000020,19=15,37=210000000,38=1,56=2,64=203/1,3;
 2/9=110,12=1,15=1,40=1/2;
 3/5=30,11=9,25=1,30=1,41=10030000,43=2,71=1/1;
 4/20=11,22=1001,24=3,119=11/2;
 7/30=1,44=-1/16;
 1/6=300,10=10,18=4000020,19=15,64=203/3(2);
 2/9=110,12=1,15=1/2;
 99//99;
 2/9=110,12=1,15=1/2;
 3/5=30,11=9,25=1,30=1,41=10030000,43=2,71=1/1;
 4/16=2,20=11,22=1001,24=3,119=11/2;
 7/30=1,44=-1/16;
 1/6=300,10=10,18=4000020,19=15,64=203/3(-4);
 2/9=110,12=1,15=1/2;
 99/9=10/99;
 Leave Link    1 at Sun Nov 26 11:20:10 2023, MaxMem=   134217728 cpu:               0.0 elap:               0.0
 (Enter /home/emanuele/chem_software/gaussian//gdv/l101.exe)
 -----
 Title
 -----
 Symbolic Z-matrix:
 Charge =  0 Multiplicity = 1
 C-C-+0.299289        -0.63468   0.14201   0.25675 
 O-OH--0.289770       -1.30163  -0.64275  -0.65864 
 C-CT--0.035454        0.72186  -0.47948   0.55415 
 H-HC-+0.090426        1.06463  -0.71017   1.58976 
 H-HC-+0.095387        0.48269  -1.44666   0.04887 
 N-N3--0.336253        1.68427   0.30659  -0.2543 
 H-H-+0.142619         2.52823   0.39362   0.32055 
 H-H-+0.128282         2.08059  -0.3437   -0.92579 
 O-O2--0.308037       -1.16012   1.12459   0.71475 
 H-HO-+0.213510       -2.18382  -0.26764  -0.92116 
 
 ITRead=  3  3  3  3  3  3  3  3  3  3
 MicOpt=  0  0  0  0  0  0  0  0  0  0
 NAtoms=     10 NQM=        0 NQMF=       0 NMMI=      0 NMMIF=      0
                NMic=      10 NMicF=      0.
                    Isotopes and Nuclear Properties:
 (Nuclear quadrupole moments (NQMom) in fm**2, nuclear magnetic moments (NMagM)
  in nuclear magnetons)

  Atom         1           2           3           4           5           6           7           8           9          10
 IAtWgt=          12          16          12           1           1          14           1           1          16           1
 AtmWgt=  12.0000000  15.9949146  12.0000000   1.0078250   1.0078250  14.0030740   1.0078250   1.0078250  15.9949146   1.0078250
 NucSpn=           0           0           0           1           1           2           1           1           0           1
 AtZEff=  -0.0000000  -0.0000000  -0.0000000  -0.0000000  -0.0000000  -0.0000000  -0.0000000  -0.0000000  -0.0000000  -0.0000000
 NQMom=    0.0000000   0.0000000   0.0000000   0.0000000   0.0000000   2.0440000   0.0000000   0.0000000   0.0000000   0.0000000
 NMagM=    0.0000000   0.0000000   0.0000000   2.7928460   2.7928460   0.4037610   2.7928460   2.7928460   0.0000000   2.7928460
 AtZNuc=   6.0000000   8.0000000   6.0000000   1.0000000   1.0000000   7.0000000   1.0000000   1.0000000   8.0000000   1.0000000
 Generating MM parameters.
 I=    1 IAn=  6 Valence= 5.
          JB=  1 J=    2 IAn=  8 IBT=12 Dist= 1.38D+00
          JB=  2 J=    3 IAn=  6 IBT= 1 Dist= 1.52D+00
          JB=  3 J=    9 IAn=  8 IBT= 2 Dist= 1.20D+00
 I=    2 IAn=  8 Valence= 3.
          JB=  1 J=    1 IAn=  6 IBT=12 Dist= 1.38D+00
          JB=  2 J=   10 IAn=  1 IBT= 1 Dist= 9.94D-01
 Read MM parameter file:
 Include all MM classes

 MM sanity checks:
 All charges sum to:               -0.00000100
 Charges of atoms sum to:          -0.00000100
 WARNING -- The following centers have non-zero partial charges, but zero Vanderwaals
 parameters.  These centers can collapse onto other centers with non-zero charge.
   Center  Layer   Charge
     10 H    R    0.213510
 MMInit generated parameter data with length LenPar=        2069.
 MM Charge=             -0.0000 electrons
 MM Dipole moment (Debye):
    X=              1.2304    Y=             -2.1665    Z=             -0.0380  Tot=              2.4918
 MM Quadrupole moment (Debye-Ang):
   XX=              4.0951   YY=             -1.1779   ZZ=              1.1459
   XY=              0.0534   XZ=              2.6003   YZ=             -1.5423
 MM Traceless Quadrupole moment (Debye-Ang):
   XX=              2.7408   YY=             -2.5323   ZZ=             -0.2085
   XY=              0.0534   XZ=              2.6003   YZ=             -1.5423
 MM Octapole moment (Debye-Ang**2):
  XXX=              3.7460  YYY=             -3.3040  ZZZ=              0.3565  XYY=              3.5723
  XXY=             -3.0099  XXZ=             -3.3887  XZZ=              1.9345  YZZ=             -1.6233
  YYZ=             -0.6403  XYZ=              1.8948
 MM Hexadecapole moment (Debye-Ang**3):
 XXXX=             43.9567 YYYY=             -0.4793 ZZZZ=              3.3079 XXXY=              3.0997
 XXXZ=             10.5474 YYYX=              1.1541 YYYZ=             -1.9846 ZZZX=              2.7658
 ZZZY=             -1.6856 XXYY=             -2.1165 XXZZ=              5.8049 YYZZ=             -0.5338
 XXYZ=             -0.1534 YYXZ=              1.5902 ZZXY=             -0.1931
 Leave Link  101 at Sun Nov 26 11:20:10 2023, MaxMem=   134217728 cpu:               0.2 elap:               0.2
 (Enter /home/emanuele/chem_software/gaussian//gdv/l103.exe)

 GradGradGradGradGradGradGradGradGradGradGradGradGradGradGradGradGradGrad
 Berny optimization.
 Initialization pass.
 No Z-matrix variables, so optimization will use Cartesian coordinates.
 Trust Radius=1.00D-01 FncErr=1.00D-07 GrdErr=1.00D-07 EigMax=2.50D+02 EigMin=1.00D-04
 Number of steps in this run=      2 maximum allowed number of steps=      2.
 GradGradGradGradGradGradGradGradGradGradGradGradGradGradGradGradGradGrad

 Leave Link  103 at Sun Nov 26 11:20:10 2023, MaxMem=   134217728 cpu:               0.0 elap:               0.0
 (Enter /home/emanuele/chem_software/gaussian//gdv/l202.exe)
                          Input orientation:                          
 ---------------------------------------------------------------------
 Center     Atomic      Atomic             Coordinates (Angstroms)
 Number     Number       Type             X           Y           Z
 ---------------------------------------------------------------------
      1          6    20001002       -0.634680    0.142007    0.256753
      2          8    20001022       -1.301625   -0.642754   -0.658638
      3          6    20001001        0.721858   -0.479479    0.554152
      4          1    20001034        1.064626   -0.710166    1.589761
      5          1    20001034        0.482694   -1.446658    0.048872
      6          7    20001020        1.684270    0.306590   -0.254302
      7          1    20001029        2.528229    0.393619    0.320553
      8          1    20001029        2.080592   -0.343699   -0.925791
      9          8    20001025       -1.160122    1.124589    0.714753
     10          1    20001031       -2.183817   -0.267638   -0.921162
 ---------------------------------------------------------------------
                    Distance matrix (angstroms):
                    1          2          3          4          5
     1  C    0.000000
     2  O    1.377899   0.000000
     3  C    1.521475   2.364741   0.000000
     4  H    2.321799   3.264810   1.114985   0.000000
     5  H    1.953355   2.081016   1.117113   1.804274   0.000000
     6  N    2.380293   3.159163   1.482477   2.195067   2.146993
     7  H    3.173543   4.086645   2.019863   2.229656   2.764895
     8  H    3.001170   3.405906   2.013660   2.737606   2.172502
     9  O    1.204708   2.242705   2.478039   3.013548   3.123068
    10  H    1.988748   0.993928   3.265635   4.129521   3.072676
                    6          7          8          9         10
     6  N    0.000000
     7  H    1.024841   0.000000
     8  H    1.015305   1.515714   0.000000
     9  O    3.114283   3.780694   3.917841   0.000000
    10  H    3.966930   4.917570   4.265090   2.379594   0.000000
 Symmetry turned off by external request.
 Stoichiometry    C2H5NO2
 Framework group  C1[X(C2H5NO2)]
 Deg. of freedom    24
 Full point group                 C1      NOp   1
 Rotational constants (GHZ):           8.7830137           3.9319644           3.1691139
 Leave Link  202 at Sun Nov 26 11:20:10 2023, MaxMem=   134217728 cpu:               0.0 elap:               0.0
 (Enter /home/emanuele/chem_software/gaussian//gdv/l301.exe)
 Standard basis: Dummy (5D, 7F)
    10 basis functions,    10 primitive gaussians,    10 cartesian basis functions
     7 alpha electrons        7 beta electrons
       nuclear repulsion energy        22.5479386499 Hartrees.
 IExCor=       0 DFT=F Ex=HF Corr=None N6=None ScaHFX=  1.000000
 ScaDFX=  1.000000  1.000000  1.000000  1.000000  1.000000  0.000000
 ScaDFX=  0.000000  0.000000  0.000000  0.000000  0.000000  0.000000
 IRadAn=      5 IRanWt=     -1 IRanGd=            0 ICorTp=0 IEmpDi=  4
 NAtoms=   10 NActive=   10 NUniq=   10 SFac= 1.00D+00 NAtFMM=   60 NAOKFM=F Big=F
 Integral buffers will be    131072 words long.
 Raffenetti 1 integral format.
 Two-electron integral symmetry is turned off.
 Leave Link  301 at Sun Nov 26 11:20:10 2023, MaxMem=   134217728 cpu:               0.0 elap:               0.0
 (Enter /home/emanuele/chem_software/gaussian//gdv/l402.exe)
 AMBER calculation of energy and first derivatives.
 NRF= 0 NRA=   0 NVA=  10 HaveQM=F NVQ=       0
 Convergence limit is  0.750E-04 MaxStp= 10000 StMxLn= 3.00D-04 StpMin= 1.00D-06.
 Convergence criteria             0.00011250 0.00007500 0.00045000 0.00030000
  Step  NS  ND Rises OKQ   Scale  Max. Force  RMS Force Max. Disp.  RMS Disp.     Energy   Flag
     1   0   0   F    T  1.00D+00 0.04339252 0.01766561 0.04339252 0.01766561    0.1048863 ----
     2   0   0   F    F  6.82D-01 0.04339252 0.01766561 0.02961272 0.01205569    0.0983546 ----
     3   0   0   F    T  2.15D+00 0.02562682 0.01157182 0.08570165 0.02972131    0.0970865 ----
     4   0   0   F    F  6.58D-01 0.02562682 0.01157182 0.05636015 0.01954568    0.0910973 ----
     5   0   0   F    T  2.32D+00 0.02902386 0.01254849 0.14153241 0.04926699    0.0899942 ----
     6   0   0   F    F -3.62D-01 0.02902386 0.01254849 0.05123277 0.01783397    0.0876176 ----
     7   0   0   F    T  2.80D+00 0.02489241 0.00754689 0.07802929 0.03143302    0.0865275 ----
     8   0   0   T    F  3.48D-01 0.02489241 0.00754689 0.02718138 0.01094964    0.0885962 ----
     9   0   0   F    T  1.43D+00 0.01233053 0.00524850 0.02878878 0.01094964    0.0856956 ----
    10   0   0   F    F  1.61D+00 0.01233053 0.00524850 0.04643809 0.01766245    0.0847362 ----
    11   0   0   F    T  3.13D+00 0.01237556 0.00518865 0.06308992 0.02861210    0.0841448 ----
    12   0   0   F    F -3.85D-01 0.01237556 0.00518865 0.02429557 0.01101835    0.0836727 ----
    13   0   0   F    T  2.18D+00 0.01118451 0.00446337 0.04504456 0.01759374    0.0833693 ----
    14   0   0   F    F  1.15D-01 0.01118451 0.00446337 0.00517597 0.00202166    0.0826479 ----
    15   0   0   F    T  1.16D+00 0.01664278 0.00622750 0.05055840 0.01961540    0.0826401 ----
    16   0   0   F    F  1.39D-01 0.01664278 0.00622750 0.00704823 0.00273454    0.0818717 ----
    17   0   0   F    T  3.53D+00 0.00818023 0.00371608 0.04936905 0.02234994    0.0818597 ----
    18   0   0   F    F -3.39D-01 0.00818023 0.00371608 0.01672980 0.00757377    0.0815036 ----
    19   0   0   F    T  2.38D+00 0.00676425 0.00336324 0.03971597 0.01477616    0.0813823 ----
    20   0   0   F    F  8.82D-01 0.00676425 0.00336324 0.03503824 0.01303583    0.0807820 ----
    21   0   0   F    F -2.98D-02 0.00676425 0.00336324 0.00104310 0.00038808    0.0806129 ----
    22   0   0   F    T  1.00D+00 0.02528250 0.00900844 0.12896372 0.04588947    0.0806128 ----
    23   0   0   F    F -1.59D-02 0.02528250 0.00900844 0.00204730 0.00072850    0.0790696 ----
    24   0   0   F    T  2.24D+00 0.02555055 0.01023180 0.10759095 0.04516097    0.0790690 ----
    25   0   0   T    F  3.52D-01 0.02555055 0.01023180 0.03788739 0.01590311    0.0820967 ----
    26   0   0   F    T  1.56D+00 0.01801263 0.00688375 0.05606209 0.01590311    0.0778293 ----
    27   0   0   F    F  1.56D-01 0.01801263 0.00688375 0.00872553 0.00247517    0.0765979 ----
    28   0   0   F    T  2.34D+00 0.01245621 0.00511610 0.05655126 0.01837828    0.0765760 ----
    29   0   0   F    F  6.72D-01 0.01245621 0.00511610 0.03798881 0.01234578    0.0752269 ----
    30   0   0   F    F -1.14D-02 0.01245621 0.00511610 0.00043272 0.00014063    0.0749475 --++
    31   0   0   F    T  2.21D+00 0.02472750 0.00634764 0.09248501 0.03058343    0.0749474 ----
    32   0   0   T    F  4.40D-01 0.02472750 0.00634764 0.04071264 0.01346307    0.0753477 ----
    33   0   0   F    T  1.63D+00 0.01215750 0.00484040 0.04215440 0.01346307    0.0743562 ----
    34   0   0   F    F  9.02D-01 0.01215750 0.00484040 0.03800559 0.01213805    0.0735201 ----
    35   0   0   F    T  2.45D+00 0.01248825 0.00506842 0.07454643 0.02560112    0.0732840 ----
    36   0   0   F    T  2.17D+00 0.01658507 0.00508901 0.06635841 0.02560112    0.0723379 ----
    37   0   0   T    F  4.94D-01 0.01658507 0.00508901 0.03275065 0.01263523    0.0723630 ----
    38   0   0   F    T  1.87D+00 0.00761438 0.00358125 0.02586863 0.01263523    0.0719221 ----
    39   0   0   F    F  1.03D-01 0.00761438 0.00358125 0.00266276 0.00130060    0.0715283 ----
    40   0   0   F    T  2.12D+00 0.00979836 0.00329408 0.03536047 0.01393582    0.0715248 ----
    41   0   0   F    F  7.04D-01 0.00979836 0.00329408 0.02488132 0.00980591    0.0710400 ----
    42   0   0   F    T  2.14D+00 0.01171630 0.00411452 0.06425517 0.02374173    0.0709412 ----
    43   0   0   F    F -3.84D-01 0.01171630 0.00411452 0.02469248 0.00912366    0.0707371 ----
    44   0   0   F    T  1.24D+00 0.01527479 0.00408294 0.04106402 0.01461808    0.0706071 ----
    45   0   0   F    F  1.53D+00 0.01527479 0.00408294 0.06301363 0.02243175    0.0701035 ----
    46   0   0   F    F -7.61D-03 0.01527479 0.00408294 0.00047957 0.00017072    0.0698053 ---+
    47   0   0   F    T  2.21D+00 0.01216644 0.00481201 0.10794854 0.03687911    0.0698053 ----
    48   0   0   F    F  6.32D-01 0.01216644 0.00481201 0.06817436 0.02329082    0.0687268 ----
    49   0   0   F    F -4.14D-02 0.01216644 0.00481201 0.00281915 0.00096312    0.0685389 ----
    50   0   0   F    T  2.39D+00 0.01690242 0.00617526 0.17365883 0.05920680    0.0685385 ----
    51   0   0   T    F  4.10D-01 0.01690242 0.00617526 0.07118220 0.02426868    0.0691703 ----
    52   0   0   F    T  1.89D+00 0.01137861 0.00444456 0.07001425 0.02426868    0.0679782 ----
    53   0   0   F    F  2.45D+00 0.01137861 0.00444456 0.17122747 0.05935170    0.0670802 ----
    54   0   0   F    F -2.19D-01 0.01137861 0.00444456 0.03755894 0.01301886    0.0664707 ----
    55   0   0   F    F -3.65D-02 0.01137861 0.00444456 0.00137184 0.00047551    0.0664204 ----
    56   0   0   F    T  2.75D+00 0.01843392 0.00614208 0.20454447 0.07107703    0.0664204 ----
    57   0   0   F    F -2.46D-01 0.01843392 0.00614208 0.05024236 0.01745869    0.0652906 ----
    58   0   0   F    F -1.16D-02 0.01843392 0.00614208 0.00058191 0.00020221    0.0651101 ---+
    59   0   0   F    T  2.41D+00 0.01374502 0.00637634 0.14465123 0.05382055    0.0651101 ----
    60   0   0   F    F  6.43D-01 0.01374502 0.00637634 0.09296032 0.03458785    0.0629353 ----
    61   0   0   F    F -1.09D-01 0.01374502 0.00637634 0.01015841 0.00377965    0.0625429 ----
    62   0   0   F    T  3.16D+00 0.01960417 0.00871734 0.24625465 0.08462875    0.0625362 ----
    63   0   0   F    F -1.95D-01 0.01960417 0.00871734 0.04792437 0.01646986    0.0597010 ----
    64   0   0   F    F -2.04D-02 0.01960417 0.00871734 0.00097786 0.00033606    0.0595087 ----
    65   0   0   F    T  3.62D+00 0.01815667 0.00824441 0.20206221 0.06849495    0.0595086 ----
    66   0   0   F    F  1.72D-02 0.01815667 0.00824441 0.00348433 0.00118112    0.0559940 ----
    67   0   0   F    T  2.38D+00 0.02640656 0.00962648 0.20917002 0.06967606    0.0559932 ----
    68   0   0   F    F -2.28D-02 0.02640656 0.00962648 0.00477268 0.00158982    0.0526031 ----
    69   0   0   F    T  3.67D+00 0.01762266 0.00707822 0.18960298 0.06808625    0.0526011 ----
    70   0   0   T    F  3.64D-01 0.01762266 0.00707822 0.06906170 0.02479999    0.0546927 ----
    71   0   0   F    T  1.39D+00 0.02624705 0.00683729 0.06240032 0.02479999    0.0515976 ----
    72   0   0   F    F  5.00D-01 0.02624705 0.00683729 0.03121794 0.01240706    0.0503188 ----
    73   0   0   F    T  3.53D+00 0.01403361 0.00472598 0.08775734 0.03720705    0.0501628 ----
    74   0   0   F    F -4.29D-01 0.01403361 0.00472598 0.03765467 0.01596470    0.0498688 ----
    75   0   0   F    T  5.71D+00 0.00453872 0.00239375 0.04517372 0.02124235    0.0494880 ----
    76   0   0   T    F  4.58D-01 0.00453872 0.00239375 0.02067730 0.00972323    0.0495774 ----
    77   0   0   F    T  2.63D+00 0.00599995 0.00214319 0.02073611 0.00972323    0.0492634 ----
    78   0   0   F    F  2.12D-01 0.00599995 0.00214319 0.00440044 0.00206338    0.0490497 ----
    79   0   0   F    T  3.78D+00 0.00420812 0.00178510 0.01995467 0.01178661    0.0490428 ----
    80   0   0   F    F -2.34D-01 0.00420812 0.00178510 0.00466123 0.00275324    0.0489178 ----
    81   0   0   F    T  2.11D+00 0.00520736 0.00196966 0.01667569 0.00903337    0.0489051 ----
    82   0   0   F    F  2.42D-01 0.00520736 0.00196966 0.00402925 0.00218268    0.0487584 ----
    83   0   0   F    T  1.16D+00 0.01033739 0.00287317 0.02191704 0.01121605    0.0487526 ----
    84   0   0   F    F  3.71D-01 0.01033739 0.00287317 0.00812207 0.00415647    0.0485679 ----
    85   0   0   F    T  3.31D+00 0.00435485 0.00195355 0.03365028 0.01537252    0.0485531 ----
    86   0   0   F    F -9.79D-02 0.00435485 0.00195355 0.00329496 0.00150524    0.0483874 ----
    87   0   0   F    T  2.03D+00 0.00599406 0.00228656 0.03131366 0.01386727    0.0483855 ----
    88   0   0   F    F  7.36D-01 0.00599406 0.00228656 0.02306224 0.01021313    0.0481496 ----
    89   0   0   F    F -1.52D-02 0.00599406 0.00228656 0.00035151 0.00015567    0.0480947 --++
    90   0   0   F    T  1.81D+00 0.00702912 0.00312310 0.05851674 0.02392473    0.0480947 ----
    91   0   0   F    F -1.97D-01 0.00702912 0.00312310 0.01152717 0.00471291    0.0478930 ----
    92   0   0   F    T  1.90D+00 0.00909837 0.00296542 0.04934415 0.01921182    0.0478797 ----
    93   0   0   F    F -1.39D-01 0.00909837 0.00296542 0.00685834 0.00267025    0.0476760 ----
    94   0   0   F    T  2.96D+00 0.00375268 0.00195104 0.04281243 0.01654157    0.0476710 ----
    95   0   0   F    F -4.40D-02 0.00375268 0.00195104 0.00188355 0.00072775    0.0475065 ----
    96   0   0   F    T  3.79D+00 0.00433391 0.00153880 0.04196472 0.01581382    0.0475062 ----
    97   0   0   T    F  4.54D-01 0.00433391 0.00153880 0.01905739 0.00718151    0.0475326 ----
    98   0   0   F    T  3.90D+00 0.00205586 0.00096345 0.02076541 0.00718151    0.0474451 ----
    99   0   0   F    F -2.23D-01 0.00205586 0.00096345 0.00462511 0.00159955    0.0474065 ----
   100   0   0   F    T  2.53D+00 0.00291788 0.00099081 0.01566286 0.00558196    0.0474031 ----
   101   0   0   F    F -1.76D-01 0.00291788 0.00099081 0.00276407 0.00098506    0.0473738 ----
   102   0   0   F    T  2.57D+00 0.00230778 0.00083833 0.01131160 0.00459690    0.0473724 ----
   103   0   0   F    F -4.90D-01 0.00230778 0.00083833 0.00554283 0.00225254    0.0473713 ----
   104   0   0   F    T  2.05D+00 0.00194433 0.00061448 0.00464198 0.00234436    0.0473585 ----
   105   0   0   F    F -2.65D-01 0.00194433 0.00061448 0.00122974 0.00062106    0.0473511 ----
   106   0   0   F    T  1.93D+00 0.00140978 0.00049479 0.00348704 0.00172329    0.0473500 ----
   107   0   0   F    F  3.72D-01 0.00140978 0.00049479 0.00129750 0.00064122    0.0473410 ----
   108   0   0   F    T  2.61D+00 0.00094869 0.00046244 0.00602786 0.00236452    0.0473403 ----
   109   0   0   F    T  2.30D+00 0.00115168 0.00046993 0.00684975 0.00236452    0.0473316 ----
   110   0   0   F    F  5.30D-01 0.00115168 0.00046993 0.00363072 0.00125332    0.0473211 ----
   111   0   0   F    T  1.96D+00 0.00122855 0.00059915 0.01046727 0.00361783    0.0473196 ----
   112   0   0   F    F  1.13D+00 0.00122855 0.00059915 0.01180396 0.00407984    0.0473034 ----
   113   0   0   F    T  3.33D+00 0.00139467 0.00067421 0.02122799 0.00769767    0.0472970 ----
   114   0   0   F    F -4.75D-01 0.00139467 0.00067421 0.01008376 0.00365656    0.0472948 ----
   115   0   0   F    T  2.19D+00 0.00119124 0.00058619 0.00924385 0.00404111    0.0472851 ----
   116   0   0   F    F  1.83D-01 0.00119124 0.00058619 0.00169477 0.00074090    0.0472720 ----
   117   0   0   F    T  1.25D+00 0.00251402 0.00083633 0.01060460 0.00478201    0.0472717 ----
   118   0   0   F    F  5.53D-01 0.00251402 0.00083633 0.00586019 0.00264257    0.0472540 ----
   119   0   0   F    T  3.05D+00 0.00130031 0.00065771 0.01631441 0.00742458    0.0472514 ----
   120   0   0   F    F -3.60D-01 0.00130031 0.00065771 0.00587962 0.00267577    0.0472428 ----
   121   0   0   F    T  2.23D+00 0.00132087 0.00060486 0.01237774 0.00474881    0.0472387 ----
   122   0   0   F    F  9.20D-01 0.00132087 0.00060486 0.01138714 0.00436876    0.0472207 ----
   123   0   0   F    T  3.38D+00 0.00159307 0.00067647 0.02537304 0.00911756    0.0472153 ----
   124   0   0   F    F -4.57D-01 0.00159307 0.00067647 0.01159826 0.00416772    0.0472117 ----
   125   0   0   F    T  3.11D+00 0.00119788 0.00050781 0.01617942 0.00494984    0.0472027 ----
   126   0   0   F    F -4.08D-01 0.00119788 0.00050781 0.00659802 0.00201856    0.0471989 ----
   127   0   0   F    T  1.34D+00 0.00200900 0.00058465 0.00952445 0.00293128    0.0471956 ----
   128   0   0   F    F  7.82D-01 0.00200900 0.00058465 0.00744743 0.00229205    0.0471857 ----
   129   0   0   F    T  1.95D+00 0.00146361 0.00063510 0.01700394 0.00522333    0.0471833 ----
   130   0   0   F    F -1.88D-02 0.00146361 0.00063510 0.00032043 0.00009843    0.0471717 --++
   131   0   0   F    T  3.72D+00 0.00098811 0.00044316 0.01464152 0.00512490    0.0471717 ----
   132   0   0   F    F -3.63D-01 0.00098811 0.00044316 0.00531352 0.00185986    0.0471670 ----
   133   0   0   F    T  2.52D+00 0.00090437 0.00041707 0.00827789 0.00326503    0.0471648 ----
   134   0   0   F    F  3.81D-01 0.00090437 0.00041707 0.00315348 0.00124382    0.0471564 ----
   135   0   0   F    T  3.39D+00 0.00082996 0.00041059 0.00910694 0.00450885    0.0471557 ----
   136   0   0   F    F -4.65D-01 0.00082996 0.00041059 0.00423844 0.00209846    0.0471546 ----
   137   0   0   F    T  1.88D+00 0.00123634 0.00039366 0.00475740 0.00241040    0.0471511 ----
   138   0   0   F    T  1.45D+00 0.00117852 0.00044160 0.00503907 0.00241040    0.0471467 ----
   139   0   0   F    F  7.42D-01 0.00117852 0.00044160 0.00373879 0.00178842    0.0471405 ----
   140   0   0   F    T  2.49D+00 0.00114732 0.00042664 0.00836457 0.00419882    0.0471392 ----
   141   0   0   F    F -1.55D-01 0.00114732 0.00042664 0.00129623 0.00065067    0.0471336 ----
   142   0   0   F    T  3.61D+00 0.00066644 0.00032177 0.00798575 0.00354814    0.0471334 ----
   143   0   0   F    F -2.91D-01 0.00066644 0.00032177 0.00232163 0.00103152    0.0471301 ----
   144   0   0   F    T  2.06D+00 0.00065436 0.00035148 0.00625067 0.00251662    0.0471294 ----
   145   0   0   F    F  4.43D-01 0.00065436 0.00035148 0.00276840 0.00111460    0.0471244 ----
   146   0   0   F    T  2.37D+00 0.00108188 0.00038736 0.00915132 0.00363123    0.0471239 ----
   147   0   0   T    F  4.86D-01 0.00108188 0.00038736 0.00444974 0.00176565    0.0471242 ----
   148   0   0   F    T  2.29D+00 0.00060132 0.00026610 0.00386663 0.00176565    0.0471213 ----
   149   0   0   F    T  1.93D+00 0.00081690 0.00028908 0.00420072 0.00176565    0.0471187 ----
   150   0   0   F    F  7.69D-01 0.00081690 0.00028908 0.00322947 0.00135741    0.0471151 ----
   151   0   0   F    T  2.81D+00 0.00095171 0.00029131 0.00741464 0.00312306    0.0471142 ----
   152   0   0   F    F -3.21D-01 0.00095171 0.00029131 0.00238082 0.00100281    0.0471123 ----
   153   0   0   F    T  4.07D+00 0.00050003 0.00020111 0.00453491 0.00212025    0.0471118 ----
   154   0   0   F    F -4.52D-01 0.00050003 0.00020111 0.00204890 0.00095794    0.0471113 ----
   155   0   0   F    T  1.53D+00 0.00076662 0.00023693 0.00237683 0.00116231    0.0471104 ----
   156   0   0   F    T  3.24D+00 0.00040408 0.00016578 0.00245818 0.00116231    0.0471090 ----
   157   0   0   T    F  4.40D-01 0.00040408 0.00016578 0.00108172 0.00051147    0.0471094 ----
   158   0   0   F    T  1.96D+00 0.00035820 0.00012284 0.00104602 0.00051147    0.0471084 ----
   159   0   0   F    F  8.30D-01 0.00035820 0.00012284 0.00086804 0.00042444    0.0471077 ----
   160   0   0   F    T  2.88D+00 0.00034710 0.00013750 0.00208490 0.00093592    0.0471076 ----
   161   0   0   F    F -3.75D-01 0.00034710 0.00013750 0.00078179 0.00035095    0.0471073 ----
   162   0   0   F    T  1.68D+00 0.00031635 0.00013648 0.00127506 0.00058497    0.0471071 ----
   163   0   0   F    F  2.57D-01 0.00031635 0.00013648 0.00032793 0.00015045    0.0471065 --++
   164   0   0   F    T  1.79D+00 0.00044318 0.00014360 0.00154488 0.00073542    0.0471065 ----
   165   0   0   F    F  2.65D-01 0.00044318 0.00014360 0.00040972 0.00019504    0.0471058 --++
   166   0   0   F    T  1.70D+00 0.00029464 0.00016181 0.00227513 0.00093046    0.0471058 ----
   167   0   0   F    F  6.35D-01 0.00029464 0.00016181 0.00144457 0.00059079    0.0471049 ----
   168   0   0   F    T  2.56D+00 0.00038864 0.00016489 0.00357744 0.00152125    0.0471047 ----
   169   0   0   F    F -1.08D-01 0.00038864 0.00016489 0.00038651 0.00016436    0.0471038 --++
   170   0   0   F    T  1.79D+00 0.00045046 0.00018248 0.00340072 0.00135690    0.0471038 ----
   171   0   0   F    F  7.74D-01 0.00045046 0.00018248 0.00263361 0.00105082    0.0471025 ----
   172   0   0   F    T  1.13D+00 0.00068574 0.00030219 0.00632119 0.00240771    0.0471022 ----
   173   0   0   F    F  1.26D+00 0.00068574 0.00030219 0.00799317 0.00304456    0.0470997 ----
   174   0   0   F    T  2.61D+00 0.00076718 0.00030039 0.01384601 0.00545227    0.0470986 ----
   175   0   0   F    F -3.10D-01 0.00076718 0.00030039 0.00428939 0.00168907    0.0470967 ----
   176   0   0   F    T  3.33D+00 0.00045605 0.00023338 0.00838796 0.00376320    0.0470962 ----
   177   0   0   F    F -2.01D-01 0.00045605 0.00023338 0.00168629 0.00075654    0.0470942 ----
   178   0   0   F    T  2.10D+00 0.00061301 0.00025591 0.00689943 0.00300666    0.0470940 ----
   179   0   0   F    F  2.11D-01 0.00061301 0.00025591 0.00145500 0.00063407    0.0470916 ----
   180   0   0   F    T  2.57D+00 0.00057108 0.00025251 0.00821560 0.00364072    0.0470915 ----
   181   0   0   F    F -8.61D-02 0.00057108 0.00025251 0.00070697 0.00031329    0.0470893 ----
   182   0   0   F    T  1.68D+00 0.00092061 0.00030549 0.00685572 0.00332743    0.0470892 ----
   183   0   0   F    F -9.71D-02 0.00092061 0.00030549 0.00066563 0.00032306    0.0470871 ----
   184   0   0   F    T  2.37D+00 0.00064147 0.00025064 0.00614560 0.00300437    0.0470871 ----
   185   0   0   F    F  1.97D-01 0.00064147 0.00025064 0.00121088 0.00059196    0.0470845 ----
   186   0   0   F    T  2.43D+00 0.00065593 0.00027138 0.00777558 0.00359633    0.0470844 ----
   187   0   0   F    F -2.58D-01 0.00065593 0.00027138 0.00200450 0.00092711    0.0470827 ----
   188   0   0   F    T  2.96D+00 0.00047539 0.00020813 0.00596793 0.00266922    0.0470824 ----
   189   0   0   F    F -2.70D-01 0.00047539 0.00020813 0.00160860 0.00071946    0.0470812 ----
   190   0   0   F    T  1.65D+00 0.00073131 0.00023483 0.00491142 0.00194975    0.0470810 ----
   191   0   0   F    F  4.39D-01 0.00073131 0.00023483 0.00215618 0.00085597    0.0470793 ----
   192   0   0   F    T  1.44D+00 0.00067271 0.00030194 0.00726594 0.00280572    0.0470791 ----
   193   0   0   F    F  5.41D-01 0.00067271 0.00030194 0.00393190 0.00151829    0.0470764 ----
   194   0   0   F    T  4.00D+00 0.00072602 0.00023703 0.01148089 0.00432401    0.0470760 ----
   195   0   0   F    F -4.52D-01 0.00072602 0.00023703 0.00518453 0.00195263    0.0470754 ----
   196   0   0   F    T  2.63D+00 0.00072505 0.00020750 0.00658923 0.00237138    0.0470742 ----
   197   0   0   F    F -2.52D-01 0.00072505 0.00020750 0.00165762 0.00059656    0.0470731 ----
   198   0   0   F    T  2.72D+00 0.00041002 0.00017040 0.00497587 0.00177482    0.0470729 ----
   199   0   0   F    F -3.45D-01 0.00041002 0.00017040 0.00171739 0.00061257    0.0470724 ----
   200   0   0   F    T  1.92D+00 0.00039007 0.00016213 0.00327563 0.00116225    0.0470721 ----
   201   0   0   F    F -2.67D-01 0.00039007 0.00016213 0.00087448 0.00031028    0.0470717 ----
   202   0   0   F    T  2.80D+00 0.00022958 0.00011129 0.00247505 0.00085197    0.0470716 ----
   203   0   0   F    T  1.94D+00 0.00027499 0.00012646 0.00237727 0.00085197    0.0470711 ----
   204   0   0   F    T  5.45D+00 0.00018695 0.00008138 0.00184840 0.00085197    0.0470708 ----
   205   0   0   T    F  2.78D-01 0.00018695 0.00008138 0.00051299 0.00023645    0.0470716 ---+
   206   0   0   F    T  2.60D+00 0.00011161 0.00005966 0.00042467 0.00023645    0.0470706 ====
 ****************************
 MOLECULAR MECHANICS FUNCTION
 ****************************
 Atomic parameters:
 Center  VDW
      1 1.9080 0.0860000
      2 1.7210 0.2104000
      3 1.9080 0.1094000
      4 1.4870 0.0157000
      5 1.4870 0.0157000
      6 1.8750 0.1700000
      7 0.6000 0.0157000
      8 0.6000 0.0157000
      9 1.6612 0.2100000
     10 0.0000 0.0000000
 Molecular mechanics terms:
 NBDir 3 1      0      0
 HrmStr1  1- 2  431.53 1.3510
 HrmStr1  1- 3  294.15 1.5090
 HrmStr1  1- 9  946.08 1.2030
 HrmStr1  2-10  566.76 0.9680
 HrmStr1  3- 4  358.05 1.0960
 HrmStr1  3- 5  358.05 1.0960
 HrmStr1  3- 6  380.82 1.4520
 HrmStr1  6- 7  506.01 1.0110
 HrmStr1  6- 8  506.01 1.0110
 HrmBnd1  1- 2-10  56.55 107.23
 HrmBnd1  1- 3- 4  46.41 106.89
 HrmBnd1  1- 3- 5  46.41 106.89
 HrmBnd1  1- 3- 6  59.93 110.61
 HrmBnd1  2- 1- 3  67.92 111.72
 HrmBnd1  2- 1- 9  91.40 123.02
 HrmBnd1  3- 1- 9  62.83 125.24
 HrmBnd1  3- 6- 7  52.60 110.71
 HrmBnd1  3- 6- 8  52.60 110.71
 HrmBnd1  4- 3- 5  44.68 106.22
 HrmBnd1  4- 3- 6  52.45 112.94
 HrmBnd1  5- 3- 6  52.45 112.94
 HrmBnd1  7- 6- 8  47.09 108.63
 AmbTrs  3- 1- 2-10   0 180   0   0  0.0000 14.5000  0.0000  0.0000  2.0
 AmbTrs  9- 1- 2-10   0   0   0   0  0.0000 14.5000  0.0000  0.0000  2.0
 AmbTrs  2- 1- 3- 4   0   0   0   0  0.0000 14.5000  0.0000  0.0000  6.0
 AmbTrs  2- 1- 3- 5   0   0   0   0  0.0000 14.5000  0.0000  0.0000  6.0
 AmbTrs  2- 1- 3- 6   0   0   0   0  0.0000 14.5000  0.0000  0.0000  6.0
 AmbTrs  9- 1- 3- 4   0   0   0   0  0.0000 14.5000  0.0000  0.0000  6.0
 AmbTrs  9- 1- 3- 5   0   0   0   0  0.0000 14.5000  0.0000  0.0000  6.0
 AmbTrs  9- 1- 3- 6   0   0   0   0  0.0000 14.5000  0.0000  0.0000  6.0
 AmbTrs  1- 3- 6- 7   0 180   0   0  0.0000 25.6300  0.0000  0.0000  6.0
 AmbTrs  1- 3- 6- 8   0 180   0   0  0.0000 25.6300  0.0000  0.0000  6.0
 AmbTrs  4- 3- 6- 7   0   0   0   0  0.0000 16.9300  0.0000  0.0000  6.0
 AmbTrs  4- 3- 6- 8   0   0   0   0  0.0000 16.9300  0.0000  0.0000  6.0
 AmbTrs  5- 3- 6- 7   0   0   0   0  0.0000 16.9300  0.0000  0.0000  6.0
 AmbTrs  5- 3- 6- 8   0   0   0   0  0.0000 16.9300  0.0000  0.0000  6.0
 NBPair  2- 1 3 1      0      0 -1.000 -1.000
 NBPair  3- 2 3 1      0      0 -1.000 -1.000
 NBPair 10- 3 3 1      0      0 -0.500 -0.167
 NBPair  9- 2 3 1      0      0 -1.000 -1.000
 NBPair 10- 9 3 1      0      0 -0.500 -0.167
 NBPair  3- 1 3 1      0      0 -1.000 -1.000
 NBPair  4- 2 3 1      0      0 -0.500 -0.167
 NBPair  5- 2 3 1      0      0 -0.500 -0.167
 NBPair  6- 2 3 1      0      0 -0.500 -0.167
 NBPair  9- 3 3 1      0      0 -1.000 -1.000
 NBPair  9- 4 3 1      0      0 -0.500 -0.167
 NBPair  9- 5 3 1      0      0 -0.500 -0.167
 NBPair  9- 6 3 1      0      0 -0.500 -0.167
 NBPair  9- 1 3 1      0      0 -1.000 -1.000
 NBPair 10- 1 3 1      0      0 -1.000 -1.000
 NBPair 10- 2 3 1      0      0 -1.000 -1.000
 NBPair  4- 1 3 1      0      0 -1.000 -1.000
 NBPair  5- 1 3 1      0      0 -1.000 -1.000
 NBPair  6- 1 3 1      0      0 -1.000 -1.000
 NBPair  4- 3 3 1      0      0 -1.000 -1.000
 NBPair  5- 4 3 1      0      0 -1.000 -1.000
 NBPair  6- 4 3 1      0      0 -1.000 -1.000
 NBPair  5- 3 3 1      0      0 -1.000 -1.000
 NBPair  6- 5 3 1      0      0 -1.000 -1.000
 NBPair  6- 3 3 1      0      0 -1.000 -1.000
 NBPair  7- 1 3 1      0      0 -0.500 -0.167
 NBPair  8- 1 3 1      0      0 -0.500 -0.167
 NBPair  7- 4 3 1      0      0 -0.500 -0.167
 NBPair  8- 4 3 1      0      0 -0.500 -0.167
 NBPair  7- 5 3 1      0      0 -0.500 -0.167
 NBPair  8- 5 3 1      0      0 -0.500 -0.167
 NBPair  7- 3 3 1      0      0 -1.000 -1.000
 NBPair  8- 3 3 1      0      0 -1.000 -1.000
 NBPair  7- 6 3 1      0      0 -1.000 -1.000
 NBPair  8- 7 3 1      0      0 -1.000 -1.000
 NBPair  8- 6 3 1      0      0 -1.000 -1.000
 Energy per function type:
 Direct Coulomb + vdW (small)                           0.003564067
 Direct Coulomb (large)                                -0.129983210
 Direct vdW (large)                                   268.787416272
 Non-direct Coulomb + vdW (small)                      -0.012807599
 Non-direct Coulomb (large)                             0.138029819
 Non-direct vdW (large)                              -268.787416272
 Harmonic stretch I                                     0.000140306
 Harmonic bend I                                        0.009824810
 Amber torsion                                          0.038302441
 Energy per function class:
        Coulomb              -0.002845618
    Vanderwaals               0.001648694
     Stretching               0.000140306
        Bending               0.009824810
        Torsion               0.038302441
 Energy=    4.707063336E-02 NIter=   0.
 Dipole moment=       0.108603      -0.757134       0.246162
 Leave Link  402 at Sun Nov 26 11:20:11 2023, MaxMem=   134217728 cpu:               0.4 elap:               0.4
 (Enter /home/emanuele/chem_software/gaussian//gdv/l716.exe)
 Dipole        = 1.08603061D-01-7.57133890D-01 2.46161685D-01
 -------------------------------------------------------------------
 Center     Atomic                   Forces (Hartrees/Bohr)
 Number     Number              X              Y              Z
 -------------------------------------------------------------------
      1        6           0.000014520   -0.000111609   -0.000079296
      2        8           0.000066832   -0.000015312    0.000055022
      3        6          -0.000019448   -0.000015620    0.000054959
      4        1          -0.000016716   -0.000028074   -0.000072130
      5        1          -0.000078176    0.000095668   -0.000073615
      6        7          -0.000015820    0.000111205    0.000024564
      7        1           0.000073494   -0.000003039   -0.000023885
      8        1           0.000055786   -0.000085420    0.000051629
      9        8          -0.000009494    0.000087970    0.000007908
     10        1          -0.000070976   -0.000035768    0.000054844
 -------------------------------------------------------------------
 Cartesian Forces:  Max     0.000111609 RMS     0.000059658
 Z-matrix is all fixed cartesians, so copy forces.
 Leave Link  716 at Sun Nov 26 11:20:11 2023, MaxMem=   134217728 cpu:               0.0 elap:               0.0
 (Enter /home/emanuele/chem_software/gaussian//gdv/l103.exe)

 GradGradGradGradGradGradGradGradGradGradGradGradGradGradGradGradGradGrad
 Berny optimization.
 Search for a local minimum.
 Step number   1 out of a maximum of    2
 All quantities printed in internal units (Hartrees-Bohrs-Radians)
 RMS Force = .59658D-04 SwitMx=.10000D-02 MixMth= 2
 Mixed Optimization -- En-DIIS/RFO-DIIS
 Second derivative matrix not updated -- unit matrix used.
 ITU=  0
 RFO step:  Lambda=-1.06771518D-07 EMin= 1.00000000D+00
 Linear search not attempted -- first point.
 Variable       Old X    -DE/DX   Delta X   Delta X   Delta X     New X
                                 (Linear)    (Quad)   (Total)
    X1       -1.29644   0.00001   0.00000   0.00001   0.00001  -1.29642
    Y1       -0.05863  -0.00011   0.00000  -0.00011  -0.00011  -0.05874
    Z1        0.53064  -0.00008   0.00000  -0.00008  -0.00008   0.53056
    X2       -2.00419   0.00007   0.00000   0.00007   0.00007  -2.00413
    Y2       -1.01987  -0.00002   0.00000  -0.00002  -0.00002  -1.01988
    Z2       -1.72582   0.00006   0.00000   0.00006   0.00006  -1.72576
    X3        1.31603  -0.00002   0.00000  -0.00002  -0.00002   1.31601
    Y3       -1.06668  -0.00002   0.00000  -0.00002  -0.00002  -1.06669
    Z3        1.19302   0.00005   0.00000   0.00005   0.00005   1.19308
    X4        1.49538  -0.00002   0.00000  -0.00002  -0.00002   1.49536
    Y4       -0.59559  -0.00003   0.00000  -0.00003  -0.00003  -0.59562
    Z4        3.20314  -0.00007   0.00000  -0.00007  -0.00007   3.20306
    X5        1.09782  -0.00008   0.00000  -0.00008  -0.00008   1.09774
    Y5       -3.12505   0.00010   0.00000   0.00010   0.00010  -3.12496
    Z5        1.08318  -0.00007   0.00000  -0.00007  -0.00007   1.08310
    X6        3.27405  -0.00002   0.00000  -0.00002  -0.00002   3.27404
    Y6        0.00449   0.00011   0.00000   0.00011   0.00011   0.00460
    Z6       -0.43218   0.00002   0.00000   0.00002   0.00002  -0.43216
    X7        5.11809   0.00007   0.00000   0.00007   0.00007   5.11817
    Y7       -0.33550  -0.00000   0.00000  -0.00000  -0.00000  -0.33550
    Z7       -0.06461  -0.00002   0.00000  -0.00002  -0.00002  -0.06463
    X8        2.81594   0.00006   0.00000   0.00006   0.00006   2.81600
    Y8        1.39397  -0.00009   0.00000  -0.00009  -0.00009   1.39389
    Z8       -1.66385   0.00005   0.00000   0.00005   0.00005  -1.66380
    X9       -1.78523  -0.00001   0.00000  -0.00001  -0.00001  -1.78524
    Y9        2.10870   0.00009   0.00000   0.00009   0.00009   2.10879
    Z9        1.00698   0.00001   0.00000   0.00001   0.00001   1.00699
   X10       -3.82934  -0.00007   0.00000  -0.00007  -0.00007  -3.82941
   Y10       -0.94090  -0.00004   0.00000  -0.00004  -0.00004  -0.94094
   Z10       -1.76054   0.00005   0.00000   0.00005   0.00005  -1.76048
         Item               Value     Threshold  Converged?
 Maximum Force            0.000112     0.000450     YES
 RMS     Force            0.000060     0.000300     YES
 Maximum Displacement     0.000112     0.001800     YES
 RMS     Displacement     0.000060     0.001200     YES
 Predicted change in Energy=-5.338575D-08
 Optimization completed.
    -- Stationary point found.
 Largest change from initial coordinates is atom    8       0.279 Angstoms.
 GradGradGradGradGradGradGradGradGradGradGradGradGradGradGradGradGradGrad

 Leave Link  103 at Sun Nov 26 11:20:11 2023, MaxMem=   134217728 cpu:               0.0 elap:               0.0
 (Enter /home/emanuele/chem_software/gaussian//gdv/l202.exe)
                          Input orientation:                          
 ---------------------------------------------------------------------
 Center     Atomic      Atomic             Coordinates (Angstroms)
 Number     Number       Type             X           Y           Z
 ---------------------------------------------------------------------
      1          6    20001002       -0.686044   -0.031024    0.280803
      2          8    20001022       -1.060573   -0.539692   -0.913263
      3          6    20001001        0.696413   -0.564462    0.631320
      4          1    20001034        0.791322   -0.315171    1.695027
      5          1    20001034        0.580941   -1.653707    0.573193
      6          7    20001020        1.732554    0.002375   -0.228702
      7          1    20001029        2.708379   -0.177539   -0.034189
      8          1    20001029        1.490133    0.737658   -0.880472
      9          8    20001025       -0.944701    1.115877    0.532872
     10          1    20001031       -2.026398   -0.497905   -0.931637
 ---------------------------------------------------------------------
                    Distance matrix (angstroms):
                    1          2          3          4          5
     1  C    0.000000
     2  O    1.350855   0.000000
     3  C    1.522697   2.339519   0.000000
     4  H    2.064795   3.206727   1.096643   0.000000
     5  H    2.079385   2.478941   1.096890   1.759105   0.000000
     6  N    2.471908   2.926435   1.461004   2.165061   2.170681
     7  H    3.412154   3.887020   2.154210   2.585389   2.659695
     8  H    2.583637   2.852858   2.147330   2.868795   2.942515
     9  O    1.202424   2.201281   2.350848   2.532248   3.162247
    10  H    1.866692   0.966903   3.140217   3.856462   3.224687
                    6          7          8          9         10
     6  N    0.000000
     7  H    1.011157   0.000000
     8  H    1.012034   1.742958   0.000000
     9  O    2.997929   3.916564   2.840600   0.000000
    10  H    3.856698   4.829716   3.727630   2.432930   0.000000
 Symmetry turned off by external request.
 Stoichiometry    C2H5NO2
 Framework group  C1[X(C2H5NO2)]
 Deg. of freedom    24
 Full point group                 C1      NOp   1
 Rotational constants (GHZ):           8.5739373           4.2205159           3.4996386
 Leave Link  202 at Sun Nov 26 11:20:11 2023, MaxMem=   134217728 cpu:               0.0 elap:               0.0
 (Enter /home/emanuele/chem_software/gaussian//gdv/l9999.exe)
 Unable to Open any file for archive entry.
 1\1\GINC-EMANUELE-XPS-13-9343\FOpt\AMBER\ZDO\C2H5N1O2\EMANUELE\26-Nov-
 2023\0\\#p Amber=(SoftFirst,Print) geom=nocrowd nosymm opt=(maxcycle=3
 00)\\Title\\0,1\C,-0.6860440224,-0.0310236755,0.2808028568\O,-1.060573
 394,-0.5396915299,-0.9132630012\C,0.6964125626,-0.5644616102,0.6313203
 215\H,0.7913215882,-0.3151711952,1.6950269391\H,0.5809408583,-1.653706
 7501,0.573192536\N,1.7325541936,0.0023749538,-0.2287019715\H,2.7083787
 472,-0.1775391448,-0.0341888008\H,1.4901334078,0.7376576558,-0.8804723
 655\O,-0.9447010895,1.1158772257,0.5328716963\H,-2.026397852,-0.497904
 9296,-0.9316372109\\Version=ES64L-GDVRevJ.14\HF=0.0470706\RMSD=0.000e+
 00\RMSF=5.966e-05\Dipole=0.1086031,-0.7571339,0.2461617\PG=C01 [X(C2H5
 N1O2)]\\@
 The archive entry for this job was punched.


 I think that all right-thinking people in this
 country are sick and tired of being told that
 ordinary, decent people are fed up in this country
 with being sick and tired.  I'm certainly not!
 But I'm sick and tired of being told that I am!
                               -- Monty Python
 Job cpu time:       0 days  0 hours  0 minutes  0.9 seconds.
 Elapsed time:       0 days  0 hours  0 minutes  0.8 seconds.
 File lengths (MBytes):  RWF=      6 Int=      0 D2E=      0 Chk=      1 Scr=      1
 Normal termination of Gaussian DV at Sun Nov 26 11:20:11 2023.
