 Entering Gaussian System, Link 0=/home/emanuele/chem_software/gaussian//g09/g09
 Input=0_zmat_mm_50.gjf
 Output=0_zmat_mm_50.log
 Initial command:
 /home/emanuele/chem_software/gaussian//gdv/l1.exe "/home/emanuele/chem_software/gaussian/scratch/Gau-6260.inp" -scrdir="/home/emanuele/chem_software/gaussian/scratch/"
 Entering Link 1 = /home/emanuele/chem_software/gaussian//gdv/l1.exe PID=      6262.
  
 Copyright (c) 1988-2020, Gaussian, Inc.  All Rights Reserved.
  
 This is the private, development version of
 the Gaussian(R) DV system of programs. It is based on
 the Gaussian(R) 16 system (copyright 2016, Gaussian, Inc.),
 the Gaussian(R) 09 system (copyright 2009, Gaussian, Inc.),
 the Gaussian(R) 03 system (copyright 2003, Gaussian, Inc.),
 the Gaussian(R) 98 system (copyright 1998, Gaussian, Inc.),
 the Gaussian(R) 94 system (copyright 1995, Gaussian, Inc.),
 the Gaussian 92(TM) system (copyright 1992, Gaussian, Inc.),
 the Gaussian 90(TM) system (copyright 1990, Gaussian, Inc.),
 the Gaussian 88(TM) system (copyright 1988, Gaussian, Inc.),
 the Gaussian 86(TM) system (copyright 1986, Carnegie Mellon
 University), and the Gaussian 82(TM) system (copyright 1983,
 Carnegie Mellon University). Gaussian is a federally registered
 trademark of Gaussian, Inc.
  
 This software contains proprietary and confidential information,
 including trade secrets, belonging to Gaussian, Inc.
  
 This software is provided under written license and may be
 used, copied, transmitted, or stored only in accord with that
 written license.
  
 The following legend is applicable only to US Government
 contracts under FAR:
  
                    RESTRICTED RIGHTS LEGEND
  
 Use, reproduction and disclosure by the US Government is
 subject to restrictions as set forth in subparagraphs (a)
 and (c) of the Commercial Computer Software - Restricted
 Rights clause in FAR 52.227-19.
  
 Gaussian, Inc.
 340 Quinnipiac St., Bldg. 40, Wallingford CT 06492
  
  
 ---------------------------------------------------------------
 Warning -- This program may not be used in any manner that
 competes with the business of Gaussian, Inc. or will provide
 assistance to any competitor of Gaussian, Inc.  The licensee
 of this program is prohibited from giving any competitor of
 Gaussian, Inc. access to this program.  By using this program,
 the user acknowledges that Gaussian, Inc. is engaged in the
 business of creating and licensing software in the field of
 computational chemistry and represents and warrants to the
 licensee that it is not a competitor of Gaussian, Inc. and that
 it will not use this program in any manner prohibited above.
 ---------------------------------------------------------------
  

 Cite this work as:
 Gaussian Development Version, Revision J.14,
 M. J. Frisch, G. W. Trucks, H. B. Schlegel, G. E. Scuseria, 
 M. A. Robb, J. R. Cheeseman, G. Scalmani, V. Barone, 
 G. A. Petersson, H. Nakatsuji, X. Li, A. V. Marenich, M. Caricato, 
 J. Bloino, B. G. Janesko, J. Zheng, R. Gomperts, B. Mennucci, 
 H. P. Hratchian, J. V. Ortiz, A. F. Izmaylov, J. L. Sonnenberg, 
 D. Williams-Young, F. Ding, F. Lipparini, F. Egidi, J. Goings, 
 B. Peng, A. Petrone, T. Henderson, D. Ranasinghe, V. G. Zakrzewski, 
 J. Gao, N. Rega, G. Zheng, W. Liang, M. Hada, M. Ehara, K. Toyota, 
 R. Fukuda, J. Hasegawa, M. Ishida, T. Nakajima, Y. Honda, O. Kitao, 
 H. Nakai, T. Vreven, K. Throssell, J. A. Montgomery, Jr., 
 J. E. Peralta, F. Ogliaro, M. J. Bearpark, J. J. Heyd, 
 E. N. Brothers, K. N. Kudin, V. N. Staroverov, T. A. Keith, 
 R. Kobayashi, J. Normand, K. Raghavachari, A. P. Rendell, 
 J. C. Burant, S. S. Iyengar, J. Tomasi, M. Cossi, J. M. Millam, 
 M. Klene, C. Adamo, R. Cammi, J. W. Ochterski, R. L. Martin, 
 K. Morokuma, O. Farkas, J. B. Foresman, and D. J. Fox, 
 Gaussian, Inc., Wallingford CT, 2020.
 
 ******************************************
 Gaussian DV:  ES64L-GDVRevJ.14 29-Dec-2020
                26-Nov-2023 
 ******************************************
 %mem=1GB
 %nprocshared=1
 Will use up to    1 processors via shared memory.
 %chk=0_zmat_mm_50.chk
 -----------------------------------------------------------------
 #p Amber=(SoftFirst,Print) geom=nocrowd nosymm opt=(maxcycle=300)
 -----------------------------------------------------------------
 1/6=300,10=10,18=4000020,19=15,37=210000000,38=1,56=2,64=203/1,3;
 2/9=110,12=1,15=1,40=1/2;
 3/5=30,11=9,25=1,30=1,41=10030000,43=2,71=1/1;
 4/20=11,22=1001,24=3,119=11/2;
 7/30=1,44=-1/16;
 1/6=300,10=10,18=4000020,19=15,64=203/3(2);
 2/9=110,12=1,15=1/2;
 99//99;
 2/9=110,12=1,15=1/2;
 3/5=30,11=9,25=1,30=1,41=10030000,43=2,71=1/1;
 4/16=2,20=11,22=1001,24=3,119=11/2;
 7/30=1,44=-1/16;
 1/6=300,10=10,18=4000020,19=15,64=203/3(-4);
 2/9=110,12=1,15=1/2;
 99/9=10/99;
 Leave Link    1 at Sun Nov 26 11:20:12 2023, MaxMem=   134217728 cpu:               0.0 elap:               0.0
 (Enter /home/emanuele/chem_software/gaussian//gdv/l101.exe)
 -----
 Title
 -----
 Symbolic Z-matrix:
 Charge =  0 Multiplicity = 1
 C-C-+0.299289        -0.6254   -0.05279   0.34351 
 O-OH--0.289770       -0.70739  -0.21008  -1.02421 
 C-CT--0.035454        0.78416  -0.29087   0.8291 
 H-HC-+0.090426        1.13521   0.03829   1.84616 
 H-HC-+0.095387        0.68459  -1.40281   0.86167 
 N-N3--0.336253        1.78862   0.17053  -0.1701 
 H-H-+0.142619         2.19933  -0.69621  -0.54082 
 H-H-+0.128282         1.2634    0.36036  -1.02545 
 O-O2--0.308037       -1.6171    0.20127   0.98055 
 H-HO-+0.213510       -1.6234   -0.04128  -1.37545 
 
 ITRead=  3  3  3  3  3  3  3  3  3  3
 MicOpt=  0  0  0  0  0  0  0  0  0  0
 NAtoms=     10 NQM=        0 NQMF=       0 NMMI=      0 NMMIF=      0
                NMic=      10 NMicF=      0.
                    Isotopes and Nuclear Properties:
 (Nuclear quadrupole moments (NQMom) in fm**2, nuclear magnetic moments (NMagM)
  in nuclear magnetons)

  Atom         1           2           3           4           5           6           7           8           9          10
 IAtWgt=          12          16          12           1           1          14           1           1          16           1
 AtmWgt=  12.0000000  15.9949146  12.0000000   1.0078250   1.0078250  14.0030740   1.0078250   1.0078250  15.9949146   1.0078250
 NucSpn=           0           0           0           1           1           2           1           1           0           1
 AtZEff=  -0.0000000  -0.0000000  -0.0000000  -0.0000000  -0.0000000  -0.0000000  -0.0000000  -0.0000000  -0.0000000  -0.0000000
 NQMom=    0.0000000   0.0000000   0.0000000   0.0000000   0.0000000   2.0440000   0.0000000   0.0000000   0.0000000   0.0000000
 NMagM=    0.0000000   0.0000000   0.0000000   2.7928460   2.7928460   0.4037610   2.7928460   2.7928460   0.0000000   2.7928460
 AtZNuc=   6.0000000   8.0000000   6.0000000   1.0000000   1.0000000   7.0000000   1.0000000   1.0000000   8.0000000   1.0000000
 Generating MM parameters.
 I=    1 IAn=  6 Valence= 5.
          JB=  1 J=    2 IAn=  8 IBT=12 Dist= 1.38D+00
          JB=  2 J=    3 IAn=  6 IBT= 1 Dist= 1.51D+00
          JB=  3 J=    9 IAn=  8 IBT= 2 Dist= 1.21D+00
 I=    2 IAn=  8 Valence= 3.
          JB=  1 J=    1 IAn=  6 IBT=12 Dist= 1.38D+00
          JB=  2 J=   10 IAn=  1 IBT= 1 Dist= 9.95D-01
 Read MM parameter file:
 Include all MM classes

 MM sanity checks:
 All charges sum to:               -0.00000100
 Charges of atoms sum to:          -0.00000100
 WARNING -- The following centers have non-zero partial charges, but zero Vanderwaals
 parameters.  These centers can collapse onto other centers with non-zero charge.
   Center  Layer   Charge
     10 H    R    0.213510
 MMInit generated parameter data with length LenPar=        2069.
 MM Charge=             -0.0000 electrons
 MM Dipole moment (Debye):
    X=              0.8827    Y=             -1.2305    Z=             -0.6142  Tot=              1.6342
 MM Quadrupole moment (Debye-Ang):
   XX=             -1.5008   YY=              1.1373   ZZ=              1.7322
   XY=             -1.2524   XZ=              3.2669   YZ=             -0.9643
 MM Traceless Quadrupole moment (Debye-Ang):
   XX=             -1.9570   YY=              0.6811   ZZ=              1.2759
   XY=             -1.2524   XZ=              3.2669   YZ=             -0.9643
 MM Octapole moment (Debye-Ang**2):
  XXX=              1.9988  YYY=             -1.4704  ZZZ=             -0.3456  XYY=              1.4890
  XXY=             -3.8566  XXZ=             -7.3949  XZZ=              3.0748  YZZ=             -0.3691
  YYZ=              0.5156  XYZ=              0.6571
 MM Hexadecapole moment (Debye-Ang**3):
 XXXX=             -1.2984 YYYY=              1.9379 ZZZZ=              6.7472 XXXY=             -5.0044
 XXXZ=              9.1327 YYYX=             -1.3382 YYYZ=             -1.0145 ZZZX=              7.6570
 ZZZY=             -0.9288 XXYY=              1.8168 XXZZ=              4.5779 YYZZ=              0.7233
 XXYZ=              0.0692 YYXZ=              0.0931 ZZXY=              0.1199
 Leave Link  101 at Sun Nov 26 11:20:13 2023, MaxMem=   134217728 cpu:               0.2 elap:               0.2
 (Enter /home/emanuele/chem_software/gaussian//gdv/l103.exe)

 GradGradGradGradGradGradGradGradGradGradGradGradGradGradGradGradGradGrad
 Berny optimization.
 Initialization pass.
 No Z-matrix variables, so optimization will use Cartesian coordinates.
 Trust Radius=1.00D-01 FncErr=1.00D-07 GrdErr=1.00D-07 EigMax=2.50D+02 EigMin=1.00D-04
 Number of steps in this run=      2 maximum allowed number of steps=      2.
 GradGradGradGradGradGradGradGradGradGradGradGradGradGradGradGradGradGrad

 Leave Link  103 at Sun Nov 26 11:20:13 2023, MaxMem=   134217728 cpu:               0.0 elap:               0.0
 (Enter /home/emanuele/chem_software/gaussian//gdv/l202.exe)
                          Input orientation:                          
 ---------------------------------------------------------------------
 Center     Atomic      Atomic             Coordinates (Angstroms)
 Number     Number       Type             X           Y           Z
 ---------------------------------------------------------------------
      1          6    20001002       -0.625396   -0.052789    0.343514
      2          8    20001022       -0.707387   -0.210079   -1.024214
      3          6    20001001        0.784156   -0.290869    0.829104
      4          1    20001034        1.135210    0.038290    1.846155
      5          1    20001034        0.684592   -1.402813    0.861668
      6          7    20001020        1.788620    0.170533   -0.170102
      7          1    20001029        2.199327   -0.696210   -0.540824
      8          1    20001029        1.263402    0.360361   -1.025452
      9          8    20001025       -1.617101    0.201265    0.980548
     10          1    20001031       -1.623396   -0.041277   -1.375446
 ---------------------------------------------------------------------
                    Distance matrix (angstroms):
                    1          2          3          4          5
     1  C    0.000000
     2  O    1.379182   0.000000
     3  C    1.509741   2.380339   0.000000
     4  H    2.316454   3.419922   1.125157   0.000000
     5  H    1.951183   2.629975   1.116867   1.802512   0.000000
     6  N    2.478134   2.665412   1.490051   2.123611   2.181478
     7  H    3.029043   2.986465   2.010899   2.714683   2.181901
     8  H    2.369033   2.051685   2.023155   2.892454   2.646701
     9  O    1.205751   2.239610   2.455843   2.889819   2.808022
    10  H    1.987702   0.995455   3.273934   4.242046   3.490740
                    6          7          8          9         10
     6  N    0.000000
     7  H    1.028279   0.000000
     8  H    1.021524   1.492368   0.000000
     9  O    3.594979   4.205372   3.513779   0.000000
    10  H    3.624855   3.967208   2.935543   2.368454   0.000000
 Symmetry turned off by external request.
 Stoichiometry    C2H5NO2
 Framework group  C1[X(C2H5NO2)]
 Deg. of freedom    24
 Full point group                 C1      NOp   1
 Rotational constants (GHZ):           9.7188751           4.0940259           3.0558465
 Leave Link  202 at Sun Nov 26 11:20:13 2023, MaxMem=   134217728 cpu:               0.0 elap:               0.0
 (Enter /home/emanuele/chem_software/gaussian//gdv/l301.exe)
 Standard basis: Dummy (5D, 7F)
    10 basis functions,    10 primitive gaussians,    10 cartesian basis functions
     7 alpha electrons        7 beta electrons
       nuclear repulsion energy        22.9233213872 Hartrees.
 IExCor=       0 DFT=F Ex=HF Corr=None N6=None ScaHFX=  1.000000
 ScaDFX=  1.000000  1.000000  1.000000  1.000000  1.000000  0.000000
 ScaDFX=  0.000000  0.000000  0.000000  0.000000  0.000000  0.000000
 IRadAn=      5 IRanWt=     -1 IRanGd=            0 ICorTp=0 IEmpDi=  4
 NAtoms=   10 NActive=   10 NUniq=   10 SFac= 1.00D+00 NAtFMM=   60 NAOKFM=F Big=F
 Integral buffers will be    131072 words long.
 Raffenetti 1 integral format.
 Two-electron integral symmetry is turned off.
 Leave Link  301 at Sun Nov 26 11:20:13 2023, MaxMem=   134217728 cpu:               0.0 elap:               0.0
 (Enter /home/emanuele/chem_software/gaussian//gdv/l402.exe)
 AMBER calculation of energy and first derivatives.
 NRF= 0 NRA=   0 NVA=  10 HaveQM=F NVQ=       0
 Convergence limit is  0.750E-04 MaxStp= 10000 StMxLn= 3.00D-04 StpMin= 1.00D-06.
 Convergence criteria             0.00011250 0.00007500 0.00045000 0.00030000
  Step  NS  ND Rises OKQ   Scale  Max. Force  RMS Force Max. Disp.  RMS Disp.     Energy   Flag
     1   0   0   F    T  1.00D+00 0.04745488 0.01973204 0.04745488 0.01973204    0.0987699 ----
     2   0   0   F    F  7.96D-01 0.04745488 0.01973204 0.03776141 0.01570144    0.0904570 ----
     3   0   0   F    T  2.00D+00 0.04008091 0.01432152 0.07501493 0.03543348    0.0884760 ----
     4   0   0   F    F -1.26D-02 0.04008091 0.01432152 0.00094252 0.00044520    0.0823402 ----
     5   0   0   F    T  1.00D+00 0.04996707 0.01923782 0.09236176 0.03774412    0.0823392 ----
     6   0   0   F    F  7.17D-01 0.04996707 0.01923782 0.06621977 0.02706106    0.0742571 ----
     7   0   0   F    T  4.05D+00 0.02586688 0.01246972 0.12548083 0.06480518    0.0724691 ----
     8   0   0   T    F  4.41D-01 0.02586688 0.01246972 0.05538912 0.02860598    0.0747555 ----
     9   0   0   F    T  1.77D+00 0.02264267 0.01084379 0.05151896 0.02860598    0.0683408 ----
    10   0   0   F    F  3.89D-02 0.02264267 0.01084379 0.00200260 0.00111195    0.0650736 ----
    11   0   0   F    T  1.00D+00 0.03324828 0.01393906 0.07074880 0.03025216    0.0650690 ----
    12   0   0   F    F  5.82D-01 0.03324828 0.01393906 0.04120138 0.01761770    0.0608360 ----
    13   0   0   F    T  4.57D+00 0.02129232 0.00911456 0.11080223 0.04786986    0.0600982 ----
    14   0   0   T    F  3.04D-01 0.02129232 0.00911456 0.03366696 0.01454513    0.0672675 ----
    15   0   0   F    T  1.08D+00 0.02335902 0.00892224 0.02919443 0.01454513    0.0583733 ----
    16   0   0   F    F  7.46D-01 0.02335902 0.00892224 0.02178262 0.01085245    0.0565292 ----
    17   0   0   F    T  1.56D+00 0.02090397 0.00887356 0.05305665 0.02539757    0.0561191 ----
    18   0   0   F    F  2.99D-01 0.02090397 0.00887356 0.01586669 0.00759519    0.0538319 ----
    19   0   0   F    T  3.81D+00 0.01418322 0.00584723 0.06212336 0.03299277    0.0537013 ----
    20   0   0   F    F -4.75D-01 0.01418322 0.00584723 0.02953685 0.01568657    0.0534875 ----
    21   0   0   F    T  1.47D+00 0.01637277 0.00624057 0.04595120 0.01730620    0.0526873 ----
    22   0   0   F    F -1.71D-01 0.01637277 0.00624057 0.00786171 0.00296089    0.0520060 ----
    23   0   0   F    T  1.78D+00 0.01069377 0.00458536 0.03607725 0.01434531    0.0519756 ----
    24   0   0   F    F  4.31D-01 0.01069377 0.00458536 0.01554797 0.00618230    0.0512301 ----
    25   0   0   F    T  3.11D+00 0.00944545 0.00386444 0.04693924 0.02052761    0.0511534 ----
    26   0   0   F    F -2.06D-01 0.00944545 0.00386444 0.00968068 0.00423358    0.0506381 ----
    27   0   0   F    T  1.12D+00 0.01371827 0.00557502 0.03592950 0.01629403    0.0506011 ----
    28   0   0   F    F  6.25D-01 0.01371827 0.00557502 0.02245052 0.01018131    0.0498853 ----
    29   0   0   F    T  2.08D+00 0.01499112 0.00489631 0.06205366 0.02647534    0.0497641 ----
    30   0   0   F    F -2.47D-01 0.01499112 0.00489631 0.01529811 0.00652698    0.0492600 ----
    31   0   0   F    T  3.63D+00 0.00802340 0.00302265 0.06459505 0.01994837    0.0491980 ----
    32   0   0   F    F -2.23D-01 0.00802340 0.00302265 0.01440258 0.00444783    0.0488501 ----
    33   0   0   F    T  1.89D+00 0.00885575 0.00343228 0.04394359 0.01550053    0.0488211 ----
    34   0   0   F    F  2.45D-02 0.00885575 0.00343228 0.00107671 0.00037980    0.0484762 ----
    35   0   0   F    T  1.51D+00 0.01123085 0.00366963 0.04246503 0.01588033    0.0484760 ----
    36   0   0   F    F -1.40D-01 0.01123085 0.00366963 0.00595865 0.00222831    0.0482167 ----
    37   0   0   F    T  2.48D+00 0.00721311 0.00266709 0.03886949 0.01365202    0.0482093 ----
    38   0   0   F    F -1.97D-02 0.00721311 0.00266709 0.00076632 0.00026915    0.0479517 ---+
    39   0   0   F    T  2.03D+00 0.00659368 0.00278947 0.03498543 0.01338287    0.0479516 ----
    40   0   0   F    F  4.64D-02 0.00659368 0.00278947 0.00162385 0.00062117    0.0477026 ----
    41   0   0   F    T  1.35D+00 0.00824122 0.00339906 0.03568967 0.01400403    0.0477021 ----
    42   0   0   F    F -8.33D-02 0.00824122 0.00339906 0.00297118 0.00116584    0.0474883 ----
    43   0   0   F    T  3.29D+00 0.00492324 0.00199309 0.03400106 0.01283819    0.0474865 ----
    44   0   0   F    F -4.82D-01 0.00492324 0.00199309 0.01638371 0.00618619    0.0474723 ----
    45   0   0   F    T  3.26D+00 0.00416369 0.00126765 0.01749218 0.00665200    0.0473850 ----
    46   0   0   T    F  4.99D-01 0.00416369 0.00126765 0.00873660 0.00332239    0.0473852 ----
    47   0   0   F    T  1.00D+00 0.00493124 0.00155817 0.00704880 0.00345219    0.0473457 ----
    48   0   0   F    F  1.12D+00 0.00493124 0.00155817 0.00789344 0.00386586    0.0472901 ----
    49   0   0   F    T  4.10D+00 0.00257501 0.00101743 0.01967655 0.00731805    0.0472687 ----
    50   0   0   T    F  3.49D-01 0.00257501 0.00101743 0.00686331 0.00255258    0.0473237 ----
    51   0   0   F    T  2.11D+00 0.00169560 0.00074337 0.00726711 0.00255258    0.0472464 ----
    52   0   0   F    F -1.00D-01 0.00169560 0.00074337 0.00072707 0.00025538    0.0472309 ---+
    53   0   0   F    T  1.00D+00 0.00313919 0.00099816 0.00634129 0.00240214    0.0472307 ----
    54   0   0   F    F  1.47D+00 0.00313919 0.00099816 0.00930654 0.00352541    0.0472069 ----
    55   0   0   F    T  3.03D+00 0.00258572 0.00085660 0.01372890 0.00592755    0.0471940 ----
    56   0   0   F    F -4.20D-01 0.00258572 0.00085660 0.00576436 0.00248880    0.0471848 ----
    57   0   0   F    T  2.15D+00 0.00202808 0.00072830 0.00844534 0.00343875    0.0471746 ----
    58   0   0   F    F -2.08D-01 0.00202808 0.00072830 0.00175279 0.00071369    0.0471620 ----
    59   0   0   F    T  1.05D+00 0.00225055 0.00089836 0.00654726 0.00272505    0.0471611 ----
    60   0   0   F    F  1.56D+00 0.00225055 0.00089836 0.01019369 0.00424274    0.0471406 ----
    61   0   0   F    T  2.32D+00 0.00202055 0.00094783 0.01671239 0.00696779    0.0471286 ----
    62   0   0   F    F -1.02D-01 0.00202055 0.00094783 0.00170024 0.00070887    0.0471009 ----
    63   0   0   F    T  2.39D+00 0.00206245 0.00085478 0.01537165 0.00625892    0.0471005 ----
    64   0   0   F    F -3.00D-01 0.00206245 0.00085478 0.00461716 0.00187998    0.0470855 ----
    65   0   0   F    T  1.02D+00 0.00245818 0.00107920 0.01046182 0.00437894    0.0470821 ----
    66   0   0   F    F  1.90D+00 0.00245818 0.00107920 0.01991220 0.00833453    0.0470529 ----
    67   0   0   F    T  3.08D+00 0.00233838 0.00103166 0.03049283 0.01271347    0.0470313 ----
    68   0   0   F    F -1.83D-01 0.00233838 0.00103166 0.00559068 0.00233094    0.0469932 ----
    69   0   0   F    T  1.48D+00 0.00411737 0.00132069 0.02573347 0.01038253    0.0469911 ----
    70   0   0   F    F  1.39D-01 0.00411737 0.00132069 0.00357785 0.00144353    0.0469473 ----
    71   0   0   F    T  1.30D+00 0.00435664 0.00151419 0.02896023 0.01182606    0.0469466 ----
    72   0   0   F    F  6.83D-01 0.00435664 0.00151419 0.01977703 0.00807606    0.0468841 ----
    73   0   0   F    T  4.92D+00 0.00268695 0.00107153 0.04754511 0.01990212    0.0468719 ----
    74   0   0   T    F  2.74D-01 0.00268695 0.00107153 0.01302613 0.00545267    0.0470101 ----
    75   0   0   F    T  1.61D+00 0.00307307 0.00095704 0.01364250 0.00545267    0.0468487 ----
    76   0   0   F    F  1.22D-01 0.00307307 0.00095704 0.00166010 0.00066351    0.0468242 ----
    77   0   0   F    T  1.24D+00 0.00316357 0.00113823 0.01507805 0.00611618    0.0468239 ----
    78   0   0   F    F  1.94D+00 0.00316357 0.00113823 0.02927594 0.01187533    0.0467841 ----
    79   0   0   F    T  3.33D+00 0.00271924 0.00117426 0.04564184 0.01799151    0.0467537 ----
    80   0   0   T    F  3.97D-01 0.00271924 0.00117426 0.01812120 0.00714318    0.0467895 ----
    81   0   0   F    T  1.83D+00 0.00227483 0.00098557 0.02054808 0.00714318    0.0467264 ----
    82   0   0   F    F -1.47D-01 0.00227483 0.00098557 0.00302004 0.00104986    0.0467042 ----
    83   0   0   F    T  1.47D+00 0.00205008 0.00100293 0.01845197 0.00609331    0.0467036 ----
    84   0   0   F    F  1.00D+00 0.00205008 0.00100293 0.01845866 0.00609552    0.0466703 ----
    85   0   0   F    T  3.34D+00 0.00187774 0.00094452 0.03817940 0.01218884    0.0466592 ----
    86   0   0   T    F  4.79D-01 0.00187774 0.00094452 0.01829549 0.00584087    0.0466627 ----
    87   0   0   F    T  1.51D+00 0.00262477 0.00095269 0.01976452 0.00584087    0.0466379 ----
    88   0   0   F    F -8.29D-02 0.00262477 0.00095269 0.00163791 0.00048404    0.0466192 ----
    89   0   0   F    T  2.03D+00 0.00184206 0.00077054 0.01812997 0.00535683    0.0466190 ----
    90   0   0   F    F  7.61D-01 0.00184206 0.00077054 0.01380327 0.00407843    0.0465930 ----
    91   0   0   F    T  2.02D+00 0.00224805 0.00102452 0.03109422 0.00943526    0.0465870 ----
    92   0   0   F    F -1.03D-01 0.00224805 0.00102452 0.00318919 0.00096773    0.0465593 ----
    93   0   0   F    T  1.55D+00 0.00370305 0.00108070 0.02895031 0.00846753    0.0465589 ----
    94   0   0   F    F -1.46D-01 0.00370305 0.00108070 0.00421624 0.00123319    0.0465362 ----
    95   0   0   F    T  2.23D+00 0.00216014 0.00080247 0.02430897 0.00723434    0.0465355 ----
    96   0   0   F    F  3.70D-01 0.00216014 0.00080247 0.00898901 0.00267513    0.0465082 ----
    97   0   0   F    T  2.64D+00 0.00189145 0.00086320 0.03227235 0.00990947    0.0465060 ----
    98   0   0   F    F -4.75D-01 0.00189145 0.00086320 0.01532027 0.00470420    0.0465030 ----
    99   0   0   F    T  1.70D+00 0.00167344 0.00076009 0.01771049 0.00520526    0.0464906 ----
   100   0   0   F    F -2.20D-01 0.00167344 0.00076009 0.00390214 0.00114687    0.0464800 ----
   101   0   0   F    T  2.54D+00 0.00121026 0.00053734 0.01283531 0.00405839    0.0464790 ----
   102   0   0   F    T  2.28D+00 0.00140943 0.00055416 0.01170965 0.00405839    0.0464682 ----
   103   0   0   F    F -3.71D-01 0.00140943 0.00055416 0.00434143 0.00150468    0.0464640 ----
   104   0   0   F    T  2.15D+00 0.00114653 0.00044103 0.00779534 0.00255372    0.0464618 ----
   105   0   0   T    F  4.53D-01 0.00114653 0.00044103 0.00352973 0.00115632    0.0464631 ----
   106   0   0   F    T  3.23D+00 0.00059308 0.00021249 0.00303271 0.00115632    0.0464589 ----
   107   0   0   F    T  2.28D+00 0.00047449 0.00024025 0.00242720 0.00115632    0.0464567 ----
   108   0   0   F    F -4.19D-01 0.00047449 0.00024025 0.00101699 0.00048450    0.0464561 ----
   109   0   0   F    T  1.65D+00 0.00048679 0.00019267 0.00164715 0.00067183    0.0464555 ----
   110   0   0   F    F -2.35D-01 0.00048679 0.00019267 0.00038665 0.00015771    0.0464548 --++
   111   0   0   F    T  2.10D+00 0.00040113 0.00013956 0.00109343 0.00051412    0.0464548 ----
   112   0   0   F    F  9.66D-01 0.00040113 0.00013956 0.00105644 0.00049673    0.0464538 ----
   113   0   0   F    T  1.29D+00 0.00059954 0.00024405 0.00210396 0.00101085    0.0464535 ----
   114   0   0   F    F  2.01D-01 0.00059954 0.00024405 0.00042323 0.00020334    0.0464522 --++
   115   0   0   F    T  1.79D+00 0.00046140 0.00022093 0.00278318 0.00121419    0.0464522 ----
   116   0   0   F    F -3.14D-01 0.00046140 0.00022093 0.00087456 0.00038154    0.0464515 ----
   117   0   0   F    T  3.61D+00 0.00023534 0.00011874 0.00181723 0.00083266    0.0464513 ----
   118   0   0   F    F -1.74D-01 0.00023534 0.00011874 0.00031552 0.00014457    0.0464507 --++
   119   0   0   F    T  1.04D+00 0.00046128 0.00019624 0.00146472 0.00068808    0.0464506 ----
   120   0   0   F    F  9.33D-01 0.00046128 0.00019624 0.00136600 0.00064171    0.0464497 ----
   121   0   0   F    T  1.46D+00 0.00067182 0.00022731 0.00273375 0.00132980    0.0464495 ----
   122   0   0   F    F  1.79D-01 0.00067182 0.00022731 0.00048811 0.00023744    0.0464482 ---+
   123   0   0   F    T  3.54D+00 0.00035880 0.00015344 0.00344413 0.00156723    0.0464481 ----
   124   0   0   F    F -2.85D-01 0.00035880 0.00015344 0.00098260 0.00044713    0.0464474 ----
   125   0   0   F    T  1.04D+00 0.00074596 0.00023687 0.00241880 0.00112011    0.0464472 ----
   126   0   0   F    F  7.14D-01 0.00074596 0.00023687 0.00172800 0.00080021    0.0464460 ----
   127   0   0   F    T  2.02D+00 0.00060750 0.00021857 0.00432139 0.00192031    0.0464458 ----
   128   0   0   F    F -1.01D-01 0.00060750 0.00021857 0.00043771 0.00019451    0.0464445 --++
   129   0   0   F    T  3.16D+00 0.00031185 0.00016171 0.00361573 0.00172581    0.0464445 ----
   130   0   0   F    F -3.83D-01 0.00031185 0.00016171 0.00138650 0.00066179    0.0464440 ----
   131   0   0   F    T  1.16D+00 0.00050777 0.00020669 0.00215458 0.00106402    0.0464437 ----
   132   0   0   F    F  1.99D-01 0.00050777 0.00020669 0.00042849 0.00021161    0.0464428 --++
   133   0   0   F    T  3.87D+00 0.00026797 0.00011994 0.00281411 0.00127563    0.0464428 ----
   134   0   0   F    F -4.59D-01 0.00026797 0.00011994 0.00129066 0.00058505    0.0464427 ----
   135   0   0   F    T  1.80D+00 0.00030905 0.00012566 0.00183970 0.00069058    0.0464423 ----
   136   0   0   F    T  1.02D+00 0.00051340 0.00016073 0.00182747 0.00069058    0.0464420 ----
   137   0   0   F    F  1.14D+00 0.00051340 0.00016073 0.00208373 0.00078742    0.0464414 ----
   138   0   0   F    T  2.67D+00 0.00040297 0.00016814 0.00388897 0.00147800    0.0464412 ----
   139   0   0   F    F -3.93D-01 0.00040297 0.00016814 0.00152929 0.00058120    0.0464408 ----
   140   0   0   F    T  1.57D+00 0.00054167 0.00016347 0.00256885 0.00089679    0.0464405 ----
   141   0   0   F    F -1.76D-01 0.00054167 0.00016347 0.00045115 0.00015750    0.0464400 ---+
   142   0   0   F    T  1.67D+00 0.00030205 0.00014016 0.00194884 0.00073930    0.0464400 ----
   143   0   0   F    F  6.80D-01 0.00030205 0.00014016 0.00132589 0.00050298    0.0464393 ----
   144   0   0   F    T  1.55D+00 0.00038953 0.00018594 0.00312827 0.00124228    0.0464392 ----
   145   0   0   F    F  4.99D-01 0.00038953 0.00018594 0.00156223 0.00062038    0.0464381 ----
   146   0   0   F    T  1.23D+00 0.00057889 0.00025363 0.00508387 0.00186266    0.0464380 ----
   147   0   0   F    T  3.70D+00 0.00028729 0.00013784 0.00572491 0.00186266    0.0464368 ----
   148   0   0   F    F -3.76D-01 0.00028729 0.00013784 0.00215348 0.00070066    0.0464364 ----
   149   0   0   F    T  1.27D+00 0.00050666 0.00018551 0.00357452 0.00116200    0.0464361 ----
   150   0   0   F    F  4.66D-01 0.00050666 0.00018551 0.00166514 0.00054130    0.0464353 ----
   151   0   0   F    T  1.21D+00 0.00037922 0.00022736 0.00552220 0.00170331    0.0464352 ----
   152   0   0   F    F  5.85D-01 0.00037922 0.00022736 0.00323091 0.00099657    0.0464339 ----
   153   0   0   F    T  4.14D+00 0.00038052 0.00015030 0.00878038 0.00269987    0.0464337 ----
   154   0   0   T    F  3.99D-01 0.00038052 0.00015030 0.00350322 0.00107720    0.0464344 ----
   155   0   0   F    T  1.16D+00 0.00053961 0.00017833 0.00323033 0.00107720    0.0464331 ----
   156   0   0   F    F  3.86D-01 0.00053961 0.00017833 0.00124839 0.00041629    0.0464324 ----
   157   0   0   F    T  2.20D+00 0.00029572 0.00015032 0.00443257 0.00149350    0.0464324 ----
   158   0   0   F    F -6.95D-02 0.00029572 0.00015032 0.00030809 0.00010381    0.0464317 --++
   159   0   0   F    T  2.27D+00 0.00039848 0.00014051 0.00423879 0.00138969    0.0464317 ----
   160   0   0   F    F -4.42D-01 0.00039848 0.00014051 0.00187234 0.00061385    0.0464315 ----
   161   0   0   F    T  1.61D+00 0.00028703 0.00012293 0.00210825 0.00077584    0.0464313 ----
   162   0   0   F    T  1.80D+00 0.00027320 0.00010408 0.00203831 0.00077584    0.0464310 ----
   163   0   0   F    F  8.84D-01 0.00027320 0.00010408 0.00180143 0.00068568    0.0464307 ----
   164   0   0   F    T  1.64D+00 0.00044964 0.00016717 0.00401034 0.00146152    0.0464306 ----
   165   0   0   F    F -2.93D-01 0.00044964 0.00016717 0.00117331 0.00042760    0.0464302 ----
   166   0   0   F    T  1.89D+00 0.00029328 0.00011753 0.00265498 0.00103392    0.0464301 ----
   167   0   0   F    T  3.86D+00 0.00020700 0.00008488 0.00261702 0.00103392    0.0464297 ----
   168   0   0   F    F -3.73D-01 0.00020700 0.00008488 0.00097535 0.00038534    0.0464295 ----
   169   0   0   F    T  1.27D+00 0.00027485 0.00011325 0.00176295 0.00064858    0.0464294 ----
   170   0   0   F    F  2.47D-01 0.00027485 0.00011325 0.00043523 0.00016012    0.0464291 --++
   171   0   0   F    T  1.76D+00 0.00023688 0.00010972 0.00200487 0.00080870    0.0464291 ----
   172   0   0   F    T  3.45D+00 0.00016645 0.00007189 0.00192903 0.00080870    0.0464288 -+--
   173   0   0   F    F -2.66D-01 0.00016645 0.00007189 0.00051342 0.00021524    0.0464286 -+-+
   174   0   0   F    T  1.09D+00 0.00038791 0.00011099 0.00147172 0.00059346    0.0464286 ----
   175   0   0   F    F  5.04D-01 0.00038791 0.00011099 0.00074199 0.00029920    0.0464283 ---+
   176   0   0   F    T  2.23D+00 0.00022021 0.00008733 0.00224574 0.00089266    0.0464283 ----
   177   0   0   F    T  6.33D+00 0.00013424 0.00005696 0.00184548 0.00089266    0.0464280 -+--
   178   0   0   T    F  2.49D-01 0.00013424 0.00005696 0.00045908 0.00022206    0.0464287 -+-+
   179   0   0   F    T  1.16D+00 0.00015747 0.00006209 0.00050644 0.00022206    0.0464279 -+-+
   180   0   0   F    T  4.11D+00 0.00010936 0.00004426 0.00047334 0.00022206    0.0464278 ++-+
   181   0   0   T    T  1.00D+00 0.00030189 0.00013404 0.00030189 0.00013404    0.0464279 --++
   182   0   0   T    F  5.00D-01 0.00030189 0.00013404 0.00015094 0.00006702    0.0464284 --++
   183   0   0   T    F  5.00D-01 0.00030189 0.00013404 0.00007547 0.00003351    0.0464280 --++
   184   0   0   T    F  5.00D-01 0.00030189 0.00013404 0.00003774 0.00001676    0.0464279 --++
   185   0   0   T    F  5.00D-01 0.00030189 0.00013404 0.00001887 0.00000838    0.0464279 --++
   186   0   0   T    F  5.00D-01 0.00030189 0.00013404 0.00000943 0.00000419    0.0464278 --++
   187   0   0   T    F  5.00D-01 0.00030189 0.00013404 0.00000472 0.00000209    0.0464278 --++
   188   0   0   T    F  5.00D-01 0.00030189 0.00013404 0.00000236 0.00000105    0.0464278 --++
   189   0   0   T    F  5.00D-01 0.00030189 0.00013404 0.00000118 0.00000052    0.0464278 --++
   190   0   0   T    F  5.00D-01 0.00030189 0.00013404 0.00000059 0.00000026    0.0464278 --++
   191   0   0   T    T  1.00D+00 0.00011013 0.00004447 0.00006903 0.00003697    0.0464278 ++++
   192   0   0   F    T  1.00D+00 0.00010382 0.00003852 0.00010264 0.00003816    0.0464278 ====
 ****************************
 MOLECULAR MECHANICS FUNCTION
 ****************************
 Atomic parameters:
 Center  VDW
      1 1.9080 0.0860000
      2 1.7210 0.2104000
      3 1.9080 0.1094000
      4 1.4870 0.0157000
      5 1.4870 0.0157000
      6 1.8750 0.1700000
      7 0.6000 0.0157000
      8 0.6000 0.0157000
      9 1.6612 0.2100000
     10 0.0000 0.0000000
 Molecular mechanics terms:
 NBDir 3 1      0      0
 HrmStr1  1- 2  431.53 1.3510
 HrmStr1  1- 3  294.15 1.5090
 HrmStr1  1- 9  946.08 1.2030
 HrmStr1  2-10  566.76 0.9680
 HrmStr1  3- 4  358.05 1.0960
 HrmStr1  3- 5  358.05 1.0960
 HrmStr1  3- 6  380.82 1.4520
 HrmStr1  6- 7  506.01 1.0110
 HrmStr1  6- 8  506.01 1.0110
 HrmBnd1  1- 2-10  56.55 107.23
 HrmBnd1  1- 3- 4  46.41 106.89
 HrmBnd1  1- 3- 5  46.41 106.89
 HrmBnd1  1- 3- 6  59.93 110.61
 HrmBnd1  2- 1- 3  67.92 111.72
 HrmBnd1  2- 1- 9  91.40 123.02
 HrmBnd1  3- 1- 9  62.83 125.24
 HrmBnd1  3- 6- 7  52.60 110.71
 HrmBnd1  3- 6- 8  52.60 110.71
 HrmBnd1  4- 3- 5  44.68 106.22
 HrmBnd1  4- 3- 6  52.45 112.94
 HrmBnd1  5- 3- 6  52.45 112.94
 HrmBnd1  7- 6- 8  47.09 108.63
 AmbTrs  3- 1- 2-10   0 180   0   0  0.0000 14.5000  0.0000  0.0000  2.0
 AmbTrs  9- 1- 2-10   0   0   0   0  0.0000 14.5000  0.0000  0.0000  2.0
 AmbTrs  2- 1- 3- 4   0   0   0   0  0.0000 14.5000  0.0000  0.0000  6.0
 AmbTrs  2- 1- 3- 5   0   0   0   0  0.0000 14.5000  0.0000  0.0000  6.0
 AmbTrs  2- 1- 3- 6   0   0   0   0  0.0000 14.5000  0.0000  0.0000  6.0
 AmbTrs  9- 1- 3- 4   0   0   0   0  0.0000 14.5000  0.0000  0.0000  6.0
 AmbTrs  9- 1- 3- 5   0   0   0   0  0.0000 14.5000  0.0000  0.0000  6.0
 AmbTrs  9- 1- 3- 6   0   0   0   0  0.0000 14.5000  0.0000  0.0000  6.0
 AmbTrs  1- 3- 6- 7   0 180   0   0  0.0000 25.6300  0.0000  0.0000  6.0
 AmbTrs  1- 3- 6- 8   0 180   0   0  0.0000 25.6300  0.0000  0.0000  6.0
 AmbTrs  4- 3- 6- 7   0   0   0   0  0.0000 16.9300  0.0000  0.0000  6.0
 AmbTrs  4- 3- 6- 8   0   0   0   0  0.0000 16.9300  0.0000  0.0000  6.0
 AmbTrs  5- 3- 6- 7   0   0   0   0  0.0000 16.9300  0.0000  0.0000  6.0
 AmbTrs  5- 3- 6- 8   0   0   0   0  0.0000 16.9300  0.0000  0.0000  6.0
 NBPair  2- 1 3 1      0      0 -1.000 -1.000
 NBPair  3- 2 3 1      0      0 -1.000 -1.000
 NBPair 10- 3 3 1      0      0 -0.500 -0.167
 NBPair  9- 2 3 1      0      0 -1.000 -1.000
 NBPair 10- 9 3 1      0      0 -0.500 -0.167
 NBPair  3- 1 3 1      0      0 -1.000 -1.000
 NBPair  4- 2 3 1      0      0 -0.500 -0.167
 NBPair  5- 2 3 1      0      0 -0.500 -0.167
 NBPair  6- 2 3 1      0      0 -0.500 -0.167
 NBPair  9- 3 3 1      0      0 -1.000 -1.000
 NBPair  9- 4 3 1      0      0 -0.500 -0.167
 NBPair  9- 5 3 1      0      0 -0.500 -0.167
 NBPair  9- 6 3 1      0      0 -0.500 -0.167
 NBPair  9- 1 3 1      0      0 -1.000 -1.000
 NBPair 10- 1 3 1      0      0 -1.000 -1.000
 NBPair 10- 2 3 1      0      0 -1.000 -1.000
 NBPair  4- 1 3 1      0      0 -1.000 -1.000
 NBPair  5- 1 3 1      0      0 -1.000 -1.000
 NBPair  6- 1 3 1      0      0 -1.000 -1.000
 NBPair  4- 3 3 1      0      0 -1.000 -1.000
 NBPair  5- 4 3 1      0      0 -1.000 -1.000
 NBPair  6- 4 3 1      0      0 -1.000 -1.000
 NBPair  5- 3 3 1      0      0 -1.000 -1.000
 NBPair  6- 5 3 1      0      0 -1.000 -1.000
 NBPair  6- 3 3 1      0      0 -1.000 -1.000
 NBPair  7- 1 3 1      0      0 -0.500 -0.167
 NBPair  8- 1 3 1      0      0 -0.500 -0.167
 NBPair  7- 4 3 1      0      0 -0.500 -0.167
 NBPair  8- 4 3 1      0      0 -0.500 -0.167
 NBPair  7- 5 3 1      0      0 -0.500 -0.167
 NBPair  8- 5 3 1      0      0 -0.500 -0.167
 NBPair  7- 3 3 1      0      0 -1.000 -1.000
 NBPair  8- 3 3 1      0      0 -1.000 -1.000
 NBPair  7- 6 3 1      0      0 -1.000 -1.000
 NBPair  8- 7 3 1      0      0 -1.000 -1.000
 NBPair  8- 6 3 1      0      0 -1.000 -1.000
 Energy per function type:
 Direct Coulomb + vdW (small)                           0.003890379
 Direct Coulomb (large)                                -0.131920524
 Direct vdW (large)                                   268.424458300
 Non-direct Coulomb + vdW (small)                      -0.012126149
 Non-direct Coulomb (large)                             0.138210204
 Non-direct vdW (large)                              -268.424458300
 Harmonic stretch I                                     0.000126796
 Harmonic bend I                                        0.010158025
 Amber torsion                                          0.038089071
 Energy per function class:
        Coulomb              -0.003780989
    Vanderwaals               0.001834900
     Stretching               0.000126796
        Bending               0.010158025
        Torsion               0.038089071
 Energy=    4.642780287E-02 NIter=   0.
 Dipole moment=       0.525258      -0.161030      -0.367107
 Leave Link  402 at Sun Nov 26 11:20:13 2023, MaxMem=   134217728 cpu:               0.3 elap:               0.3
 (Enter /home/emanuele/chem_software/gaussian//gdv/l716.exe)
 Dipole        = 5.25258224D-01-1.61029985D-01-3.67107491D-01
 -------------------------------------------------------------------
 Center     Atomic                   Forces (Hartrees/Bohr)
 Number     Number              X              Y              Z
 -------------------------------------------------------------------
      1        6           0.000027384   -0.000103818   -0.000067183
      2        8          -0.000042700    0.000038863   -0.000002146
      3        6          -0.000043118    0.000029296   -0.000013102
      4        1           0.000005297   -0.000034547   -0.000003602
      5        1           0.000051702    0.000016265    0.000019348
      6        7           0.000009591   -0.000030446    0.000016610
      7        1           0.000000796   -0.000001511    0.000038105
      8        1           0.000046169    0.000042238   -0.000061880
      9        8          -0.000045561    0.000047782    0.000035957
     10        1          -0.000009559   -0.000004123    0.000037892
 -------------------------------------------------------------------
 Cartesian Forces:  Max     0.000103818 RMS     0.000038517
 Z-matrix is all fixed cartesians, so copy forces.
 Leave Link  716 at Sun Nov 26 11:20:13 2023, MaxMem=   134217728 cpu:               0.0 elap:               0.0
 (Enter /home/emanuele/chem_software/gaussian//gdv/l103.exe)

 GradGradGradGradGradGradGradGradGradGradGradGradGradGradGradGradGradGrad
 Berny optimization.
 Search for a local minimum.
 Step number   1 out of a maximum of    2
 All quantities printed in internal units (Hartrees-Bohrs-Radians)
 RMS Force = .38517D-04 SwitMx=.10000D-02 MixMth= 2
 Mixed Optimization -- En-DIIS/RFO-DIIS
 Second derivative matrix not updated -- unit matrix used.
 ITU=  0
 RFO step:  Lambda=-4.45059661D-08 EMin= 1.00000000D+00
 Linear search not attempted -- first point.
 Variable       Old X    -DE/DX   Delta X   Delta X   Delta X     New X
                                 (Linear)    (Quad)   (Total)
    X1       -1.16680   0.00003   0.00000   0.00003   0.00003  -1.16677
    Y1        0.25404  -0.00010   0.00000  -0.00010  -0.00010   0.25394
    Z1        0.41508  -0.00007   0.00000  -0.00007  -0.00007   0.41502
    X2       -2.17857  -0.00004   0.00000  -0.00004  -0.00004  -2.17861
    Y2       -1.17759   0.00004   0.00000   0.00004   0.00004  -1.17755
    Z2       -1.43988  -0.00000   0.00000  -0.00000  -0.00000  -1.43989
    X3        1.35919  -0.00004   0.00000  -0.00004  -0.00004   1.35915
    Y3       -0.89342   0.00003   0.00000   0.00003   0.00003  -0.89339
    Z3        1.17923  -0.00001   0.00000  -0.00001  -0.00001   1.17922
    X4        1.60465   0.00001   0.00000   0.00001   0.00001   1.60466
    Y4       -0.24975  -0.00003   0.00000  -0.00003  -0.00003  -0.24979
    Z4        3.13496  -0.00000   0.00000  -0.00000  -0.00000   3.13495
    X5        1.04085   0.00005   0.00000   0.00005   0.00005   1.04090
    Y5       -2.94249   0.00002   0.00000   0.00002   0.00002  -2.94247
    Z5        1.21758   0.00002   0.00000   0.00002   0.00002   1.21760
    X6        3.35845   0.00001   0.00000   0.00001   0.00001   3.35846
    Y6        0.00564  -0.00003   0.00000  -0.00003  -0.00003   0.00561
    Z6       -0.49426   0.00002   0.00000   0.00002   0.00002  -0.49424
    X7        5.13672   0.00000   0.00000   0.00000   0.00000   5.13672
    Y7       -0.67290  -0.00000   0.00000  -0.00000  -0.00000  -0.67290
    Z7       -0.31770   0.00004   0.00000   0.00004   0.00004  -0.31767
    X8        2.92050   0.00005   0.00000   0.00005   0.00005   2.92055
    Y8        1.06911   0.00004   0.00000   0.00004   0.00004   1.06915
    Z8       -2.02092  -0.00006   0.00000  -0.00006  -0.00006  -2.02098
    X9       -2.53659  -0.00005   0.00000  -0.00005  -0.00005  -2.53664
    Y9        1.06143   0.00005   0.00000   0.00005   0.00005   1.06148
    Z9        2.03833   0.00004   0.00000   0.00004   0.00004   2.03837
   X10       -3.33628  -0.00001   0.00000  -0.00001  -0.00001  -3.33629
   Y10       -0.08913  -0.00000   0.00000  -0.00000  -0.00000  -0.08914
   Z10       -2.34247   0.00004   0.00000   0.00004   0.00004  -2.34243
         Item               Value     Threshold  Converged?
 Maximum Force            0.000104     0.000450     YES
 RMS     Force            0.000039     0.000300     YES
 Maximum Displacement     0.000104     0.001800     YES
 RMS     Displacement     0.000039     0.001200     YES
 Predicted change in Energy=-2.225298D-08
 Optimization completed.
    -- Stationary point found.
 Largest change from initial coordinates is atom    7       0.197 Angstoms.
 GradGradGradGradGradGradGradGradGradGradGradGradGradGradGradGradGradGrad

 Leave Link  103 at Sun Nov 26 11:20:13 2023, MaxMem=   134217728 cpu:               0.0 elap:               0.0
 (Enter /home/emanuele/chem_software/gaussian//gdv/l202.exe)
                          Input orientation:                          
 ---------------------------------------------------------------------
 Center     Atomic      Atomic             Coordinates (Angstroms)
 Number     Number       Type             X           Y           Z
 ---------------------------------------------------------------------
      1          6    20001002       -0.617441    0.134434    0.219653
      2          8    20001022       -1.152849   -0.623155   -0.761953
      3          6    20001001        0.719253   -0.472775    0.624024
      4          1    20001034        0.849147   -0.132162    1.658948
      5          1    20001034        0.550792   -1.557098    0.644315
      6          7    20001020        1.777217    0.002985   -0.261549
      7          1    20001029        2.718237   -0.356081   -0.168122
      8          1    20001029        1.545462    0.565746   -1.069422
      9          8    20001025       -1.342307    0.561686    1.078640
     10          1    20001031       -1.765484   -0.047168   -1.239582
 ---------------------------------------------------------------------
                    Distance matrix (angstroms):
                    1          2          3          4          5
     1  C    0.000000
     2  O    1.350612   0.000000
     3  C    1.522817   2.334162   0.000000
     4  H    2.072082   3.179595   1.097250   0.000000
     5  H    2.099139   2.398381   1.097518   1.774524   0.000000
     6  N    2.446063   3.037720   1.459409   2.137261   2.181414
     7  H    3.393777   3.925464   2.153381   2.623323   2.607741
     8  H    2.554583   2.964609   2.151490   2.901023   2.903917
     9  O    1.202428   2.197163   2.350918   2.370791   2.874318
    10  H    1.865569   0.967064   3.134979   3.904484   3.345758
                    6          7          8          9         10
     6  N    0.000000
     7  H    1.011521   0.000000
     8  H    1.011470   1.742845   0.000000
     9  O    3.440884   4.345656   3.599083   0.000000
    10  H    3.675568   4.620304   3.371496   2.433914   0.000000
 Symmetry turned off by external request.
 Stoichiometry    C2H5NO2
 Framework group  C1[X(C2H5NO2)]
 Deg. of freedom    24
 Full point group                 C1      NOp   1
 Rotational constants (GHZ):           9.5091788           3.9008868           3.1089960
 Leave Link  202 at Sun Nov 26 11:20:13 2023, MaxMem=   134217728 cpu:               0.0 elap:               0.0
 (Enter /home/emanuele/chem_software/gaussian//gdv/l9999.exe)
 Unable to Open any file for archive entry.
 1\1\GINC-EMANUELE-XPS-13-9343\FOpt\AMBER\ZDO\C2H5N1O2\EMANUELE\26-Nov-
 2023\0\\#p Amber=(SoftFirst,Print) geom=nocrowd nosymm opt=(maxcycle=3
 00)\\Title\\0,1\C,-0.6174413265,0.1344337304,0.2196528521\O,-1.1528490
 236,-0.6231548154,-0.7619532109\C,0.7192531812,-0.4727754512,0.6240241
 365\H,0.8491467395,-0.1321623106,1.6589477843\H,0.5507919573,-1.557097
 8029,0.6443148906\N,1.7772172783,0.0029849165,-0.2615485556\H,2.718237
 0411,-0.3560811735,-0.1681221627\H,1.5454619285,0.56574648,-1.06942239
 51\O,-1.3423065204,0.5616862537,1.0786401544\H,-1.7654842553,-0.047167
 8271,-1.2395824937\\Version=ES64L-GDVRevJ.14\HF=0.0464278\RMSD=0.000e+
 00\RMSF=3.852e-05\Dipole=0.5252582,-0.16103,-0.3671075\PG=C01 [X(C2H5N
 1O2)]\\@
 The archive entry for this job was punched.


 LOGIC IS A SYSTEMATIC METHOD OF COMING TO THE
 WRONG CONCLUSION WITH CONFIDENCE.
 Job cpu time:       0 days  0 hours  0 minutes  0.8 seconds.
 Elapsed time:       0 days  0 hours  0 minutes  0.8 seconds.
 File lengths (MBytes):  RWF=      6 Int=      0 D2E=      0 Chk=      1 Scr=      1
 Normal termination of Gaussian DV at Sun Nov 26 11:20:13 2023.
