 Entering Gaussian System, Link 0=/home/emanuele/chem_software/gaussian//g09/g09
 Input=0_zmat_mm_100.gjf
 Output=0_zmat_mm_100.log
 Initial command:
 /home/emanuele/chem_software/gaussian//gdv/l1.exe "/home/emanuele/chem_software/gaussian/scratch/Gau-6275.inp" -scrdir="/home/emanuele/chem_software/gaussian/scratch/"
 Entering Link 1 = /home/emanuele/chem_software/gaussian//gdv/l1.exe PID=      6277.
  
 Copyright (c) 1988-2020, Gaussian, Inc.  All Rights Reserved.
  
 This is the private, development version of
 the Gaussian(R) DV system of programs. It is based on
 the Gaussian(R) 16 system (copyright 2016, Gaussian, Inc.),
 the Gaussian(R) 09 system (copyright 2009, Gaussian, Inc.),
 the Gaussian(R) 03 system (copyright 2003, Gaussian, Inc.),
 the Gaussian(R) 98 system (copyright 1998, Gaussian, Inc.),
 the Gaussian(R) 94 system (copyright 1995, Gaussian, Inc.),
 the Gaussian 92(TM) system (copyright 1992, Gaussian, Inc.),
 the Gaussian 90(TM) system (copyright 1990, Gaussian, Inc.),
 the Gaussian 88(TM) system (copyright 1988, Gaussian, Inc.),
 the Gaussian 86(TM) system (copyright 1986, Carnegie Mellon
 University), and the Gaussian 82(TM) system (copyright 1983,
 Carnegie Mellon University). Gaussian is a federally registered
 trademark of Gaussian, Inc.
  
 This software contains proprietary and confidential information,
 including trade secrets, belonging to Gaussian, Inc.
  
 This software is provided under written license and may be
 used, copied, transmitted, or stored only in accord with that
 written license.
  
 The following legend is applicable only to US Government
 contracts under FAR:
  
                    RESTRICTED RIGHTS LEGEND
  
 Use, reproduction and disclosure by the US Government is
 subject to restrictions as set forth in subparagraphs (a)
 and (c) of the Commercial Computer Software - Restricted
 Rights clause in FAR 52.227-19.
  
 Gaussian, Inc.
 340 Quinnipiac St., Bldg. 40, Wallingford CT 06492
  
  
 ---------------------------------------------------------------
 Warning -- This program may not be used in any manner that
 competes with the business of Gaussian, Inc. or will provide
 assistance to any competitor of Gaussian, Inc.  The licensee
 of this program is prohibited from giving any competitor of
 Gaussian, Inc. access to this program.  By using this program,
 the user acknowledges that Gaussian, Inc. is engaged in the
 business of creating and licensing software in the field of
 computational chemistry and represents and warrants to the
 licensee that it is not a competitor of Gaussian, Inc. and that
 it will not use this program in any manner prohibited above.
 ---------------------------------------------------------------
  

 Cite this work as:
 Gaussian Development Version, Revision J.14,
 M. J. Frisch, G. W. Trucks, H. B. Schlegel, G. E. Scuseria, 
 M. A. Robb, J. R. Cheeseman, G. Scalmani, V. Barone, 
 G. A. Petersson, H. Nakatsuji, X. Li, A. V. Marenich, M. Caricato, 
 J. Bloino, B. G. Janesko, J. Zheng, R. Gomperts, B. Mennucci, 
 H. P. Hratchian, J. V. Ortiz, A. F. Izmaylov, J. L. Sonnenberg, 
 D. Williams-Young, F. Ding, F. Lipparini, F. Egidi, J. Goings, 
 B. Peng, A. Petrone, T. Henderson, D. Ranasinghe, V. G. Zakrzewski, 
 J. Gao, N. Rega, G. Zheng, W. Liang, M. Hada, M. Ehara, K. Toyota, 
 R. Fukuda, J. Hasegawa, M. Ishida, T. Nakajima, Y. Honda, O. Kitao, 
 H. Nakai, T. Vreven, K. Throssell, J. A. Montgomery, Jr., 
 J. E. Peralta, F. Ogliaro, M. J. Bearpark, J. J. Heyd, 
 E. N. Brothers, K. N. Kudin, V. N. Staroverov, T. A. Keith, 
 R. Kobayashi, J. Normand, K. Raghavachari, A. P. Rendell, 
 J. C. Burant, S. S. Iyengar, J. Tomasi, M. Cossi, J. M. Millam, 
 M. Klene, C. Adamo, R. Cammi, J. W. Ochterski, R. L. Martin, 
 K. Morokuma, O. Farkas, J. B. Foresman, and D. J. Fox, 
 Gaussian, Inc., Wallingford CT, 2020.
 
 ******************************************
 Gaussian DV:  ES64L-GDVRevJ.14 29-Dec-2020
                26-Nov-2023 
 ******************************************
 %mem=1GB
 %nprocshared=1
 Will use up to    1 processors via shared memory.
 %chk=0_zmat_mm_100.chk
 -----------------------------------------------------------------
 #p Amber=(SoftFirst,Print) geom=nocrowd nosymm opt=(maxcycle=300)
 -----------------------------------------------------------------
 1/6=300,10=10,18=4000020,19=15,37=210000000,38=1,56=2,64=203/1,3;
 2/9=110,12=1,15=1,40=1/2;
 3/5=30,11=9,25=1,30=1,41=10030000,43=2,71=1/1;
 4/20=11,22=1001,24=3,119=11/2;
 7/30=1,44=-1/16;
 1/6=300,10=10,18=4000020,19=15,64=203/3(2);
 2/9=110,12=1,15=1/2;
 99//99;
 2/9=110,12=1,15=1/2;
 3/5=30,11=9,25=1,30=1,41=10030000,43=2,71=1/1;
 4/16=2,20=11,22=1001,24=3,119=11/2;
 7/30=1,44=-1/16;
 1/6=300,10=10,18=4000020,19=15,64=203/3(-4);
 2/9=110,12=1,15=1/2;
 99/9=10/99;
 Leave Link    1 at Sun Nov 26 11:20:17 2023, MaxMem=   134217728 cpu:               0.0 elap:               0.0
 (Enter /home/emanuele/chem_software/gaussian//gdv/l101.exe)
 -----
 Title
 -----
 Symbolic Z-matrix:
 Charge =  0 Multiplicity = 1
 C-C-+0.299289        -0.6755   -0.37541   0.29395 
 O-OH--0.289770       -0.86492   0.17902  -0.95414 
 C-CT--0.035454        0.74812  -0.17688   0.75535 
 H-HC-+0.090426        0.84052   0.85243   1.17523 
 H-HC-+0.095387        0.94679  -0.88768   1.60158 
 N-N3--0.336253        1.73215  -0.49226  -0.31762 
 H-H-+0.142619         1.36375  -0.23134  -1.23255 
 H-H-+0.128282         2.58154   0.04777  -0.17384 
 O-O2--0.308037       -1.6003   -0.8873    0.87261 
 H-HO-+0.213510       -1.79015   0.04807  -1.29563 
 
 ITRead=  3  3  3  3  3  3  3  3  3  3
 MicOpt=  0  0  0  0  0  0  0  0  0  0
 NAtoms=     10 NQM=        0 NQMF=       0 NMMI=      0 NMMIF=      0
                NMic=      10 NMicF=      0.
                    Isotopes and Nuclear Properties:
 (Nuclear quadrupole moments (NQMom) in fm**2, nuclear magnetic moments (NMagM)
  in nuclear magnetons)

  Atom         1           2           3           4           5           6           7           8           9          10
 IAtWgt=          12          16          12           1           1          14           1           1          16           1
 AtmWgt=  12.0000000  15.9949146  12.0000000   1.0078250   1.0078250  14.0030740   1.0078250   1.0078250  15.9949146   1.0078250
 NucSpn=           0           0           0           1           1           2           1           1           0           1
 AtZEff=  -0.0000000  -0.0000000  -0.0000000  -0.0000000  -0.0000000  -0.0000000  -0.0000000  -0.0000000  -0.0000000  -0.0000000
 NQMom=    0.0000000   0.0000000   0.0000000   0.0000000   0.0000000   2.0440000   0.0000000   0.0000000   0.0000000   0.0000000
 NMagM=    0.0000000   0.0000000   0.0000000   2.7928460   2.7928460   0.4037610   2.7928460   2.7928460   0.0000000   2.7928460
 AtZNuc=   6.0000000   8.0000000   6.0000000   1.0000000   1.0000000   7.0000000   1.0000000   1.0000000   8.0000000   1.0000000
 Generating MM parameters.
 I=    1 IAn=  6 Valence= 5.
          JB=  1 J=    2 IAn=  8 IBT=12 Dist= 1.38D+00
          JB=  2 J=    3 IAn=  6 IBT= 1 Dist= 1.51D+00
          JB=  3 J=    9 IAn=  8 IBT= 2 Dist= 1.21D+00
 I=    2 IAn=  8 Valence= 3.
          JB=  1 J=    1 IAn=  6 IBT=12 Dist= 1.38D+00
          JB=  2 J=   10 IAn=  1 IBT= 1 Dist= 9.95D-01
 Read MM parameter file:
 Include all MM classes

 MM sanity checks:
 All charges sum to:               -0.00000100
 Charges of atoms sum to:          -0.00000100
 WARNING -- The following centers have non-zero partial charges, but zero Vanderwaals
 parameters.  These centers can collapse onto other centers with non-zero charge.
   Center  Layer   Charge
     10 H    R    0.213510
 MMInit generated parameter data with length LenPar=        2069.
 MM Charge=             -0.0000 electrons
 MM Dipole moment (Debye):
    X=              1.1634    Y=              1.2329    Z=             -0.1921  Tot=              1.7060
 MM Quadrupole moment (Debye-Ang):
   XX=              0.2689   YY=             -0.6865   ZZ=              2.0263
   XY=             -0.4234   XZ=              3.4988   YZ=              0.9050
 MM Traceless Quadrupole moment (Debye-Ang):
   XX=             -0.2673   YY=             -1.2228   ZZ=              1.4901
   XY=             -0.4234   XZ=              3.4988   YZ=              0.9050
 MM Octapole moment (Debye-Ang**2):
  XXX=              5.1579  YYY=              1.0834  ZZZ=             -0.6884  XYY=              1.7404
  XXY=              5.2881  XXZ=             -6.1767  XZZ=              2.4625  YZZ=              0.1346
  YYZ=              0.1065  XYZ=             -2.2356
 MM Hexadecapole moment (Debye-Ang**3):
 XXXX=             16.0768 YYYY=             -0.4692 ZZZZ=              6.2418 XXXY=             -1.2120
 XXXZ=             11.4779 YYYX=             -1.3503 YYYZ=              0.6399 ZZZX=              5.1474
 ZZZY=              0.1821 XXYY=             -3.4696 XXZZ=              4.7340 YYZZ=              0.4690
 XXYZ=              2.1423 YYXZ=              2.5644 ZZXY=             -2.2523
 Leave Link  101 at Sun Nov 26 11:20:17 2023, MaxMem=   134217728 cpu:               0.2 elap:               0.3
 (Enter /home/emanuele/chem_software/gaussian//gdv/l103.exe)

 GradGradGradGradGradGradGradGradGradGradGradGradGradGradGradGradGradGrad
 Berny optimization.
 Initialization pass.
 No Z-matrix variables, so optimization will use Cartesian coordinates.
 Trust Radius=1.00D-01 FncErr=1.00D-07 GrdErr=1.00D-07 EigMax=2.50D+02 EigMin=1.00D-04
 Number of steps in this run=      2 maximum allowed number of steps=      2.
 GradGradGradGradGradGradGradGradGradGradGradGradGradGradGradGradGradGrad

 Leave Link  103 at Sun Nov 26 11:20:17 2023, MaxMem=   134217728 cpu:               0.0 elap:               0.0
 (Enter /home/emanuele/chem_software/gaussian//gdv/l202.exe)
                          Input orientation:                          
 ---------------------------------------------------------------------
 Center     Atomic      Atomic             Coordinates (Angstroms)
 Number     Number       Type             X           Y           Z
 ---------------------------------------------------------------------
      1          6    20001002       -0.675496   -0.375414    0.293953
      2          8    20001022       -0.864918    0.179024   -0.954137
      3          6    20001001        0.748122   -0.176877    0.755346
      4          1    20001034        0.840524    0.852425    1.175232
      5          1    20001034        0.946789   -0.887684    1.601576
      6          7    20001020        1.732148   -0.492259   -0.317621
      7          1    20001029        1.363754   -0.231338   -1.232546
      8          1    20001029        2.581544    0.047768   -0.173838
      9          8    20001025       -1.600295   -0.887304    0.872611
     10          1    20001031       -1.790147    0.048070   -1.295626
 ---------------------------------------------------------------------
                    Distance matrix (angstroms):
                    1          2          3          4          5
     1  C    0.000000
     2  O    1.378771   0.000000
     3  C    1.509632   2.377161   0.000000
     4  H    2.140691   2.810020   1.115484   0.000000
     5  H    2.145718   3.309353   1.122863   1.794726   0.000000
     6  N    2.486850   2.756905   1.489641   2.198131   2.111035
     7  H    2.551372   2.283175   2.081750   2.691785   2.938860
     8  H    3.317563   3.536127   2.067676   2.344912   2.588356
     9  O    1.205043   2.239385   2.456322   3.012612   2.649345
    10  H    1.987095   0.994893   3.271070   3.697642   4.093926
                    6          7          8          9         10
     6  N    0.000000
     7  H    1.020236   0.000000
     8  H    1.016748   1.637613   0.000000
     9  O    3.560602   3.694261   4.411031   0.000000
    10  H    3.695269   3.166882   4.513324   2.369012   0.000000
 Symmetry turned off by external request.
 Stoichiometry    C2H5NO2
 Framework group  C1[X(C2H5NO2)]
 Deg. of freedom    24
 Full point group                 C1      NOp   1
 Rotational constants (GHZ):           9.5483733           3.9742410           3.0248731
 Leave Link  202 at Sun Nov 26 11:20:17 2023, MaxMem=   134217728 cpu:               0.0 elap:               0.0
 (Enter /home/emanuele/chem_software/gaussian//gdv/l301.exe)
 Standard basis: Dummy (5D, 7F)
    10 basis functions,    10 primitive gaussians,    10 cartesian basis functions
     7 alpha electrons        7 beta electrons
       nuclear repulsion energy        22.5999565089 Hartrees.
 IExCor=       0 DFT=F Ex=HF Corr=None N6=None ScaHFX=  1.000000
 ScaDFX=  1.000000  1.000000  1.000000  1.000000  1.000000  0.000000
 ScaDFX=  0.000000  0.000000  0.000000  0.000000  0.000000  0.000000
 IRadAn=      5 IRanWt=     -1 IRanGd=            0 ICorTp=0 IEmpDi=  4
 NAtoms=   10 NActive=   10 NUniq=   10 SFac= 1.00D+00 NAtFMM=   60 NAOKFM=F Big=F
 Integral buffers will be    131072 words long.
 Raffenetti 1 integral format.
 Two-electron integral symmetry is turned off.
 Leave Link  301 at Sun Nov 26 11:20:17 2023, MaxMem=   134217728 cpu:               0.0 elap:               0.0
 (Enter /home/emanuele/chem_software/gaussian//gdv/l402.exe)
 AMBER calculation of energy and first derivatives.
 NRF= 0 NRA=   0 NVA=  10 HaveQM=F NVQ=       0
 Convergence limit is  0.750E-04 MaxStp= 10000 StMxLn= 3.00D-04 StpMin= 1.00D-06.
 Convergence criteria             0.00011250 0.00007500 0.00045000 0.00030000
  Step  NS  ND Rises OKQ   Scale  Max. Force  RMS Force Max. Disp.  RMS Disp.     Energy   Flag
     1   0   0   F    T  1.00D+00 0.03328750 0.01424151 0.03328750 0.01424151    0.0706056 ----
     2   0   0   F    F  4.83D-01 0.03328750 0.01424151 0.01608164 0.00688027    0.0665925 ----
     3   0   0   F    T  2.75D+00 0.01593168 0.00690683 0.06537985 0.02112178    0.0661204 ----
     4   0   0   F    F  4.32D-01 0.01593168 0.00690683 0.02827224 0.00913370    0.0635861 ----
     5   0   0   F    T  1.72D+00 0.02564560 0.00946125 0.07247632 0.03025548    0.0633376 ----
     6   0   0   F    F -3.63D-01 0.02564560 0.00946125 0.02631344 0.01098463    0.0623436 ----
     7   0   0   F    T  1.76D+00 0.01830062 0.00656996 0.04358248 0.01927085    0.0618644 ----
     8   0   0   F    F  2.39D-01 0.01830062 0.00656996 0.01040166 0.00459930    0.0605028 ----
     9   0   0   F    T  1.81D+00 0.01355963 0.00672098 0.04184121 0.02387014    0.0604504 ----
    10   0   0   F    F  1.29D+00 0.01355963 0.00672098 0.05387537 0.03073556    0.0584653 ----
    11   0   0   F    F -4.32D-02 0.01355963 0.00672098 0.00232543 0.00132664    0.0575052 ----
    12   0   0   F    T  1.80D+00 0.02291449 0.00999569 0.11780925 0.05327906    0.0575030 ----
    13   0   0   F    F -2.46D-01 0.02291449 0.00999569 0.02892861 0.01308292    0.0555555 ----
    14   0   0   F    T  5.04D+00 0.02053886 0.00756116 0.10971244 0.04019613    0.0552422 ----
    15   0   0   T    F  3.66D-01 0.02053886 0.00756116 0.04015406 0.01471153    0.0583723 ----
    16   0   0   F    T  1.34D+00 0.02012310 0.00756652 0.03757422 0.01471153    0.0536621 ----
    17   0   0   F    F  6.70D-01 0.02012310 0.00756652 0.02518465 0.00986061    0.0520517 ----
    18   0   0   F    T  1.74D+00 0.01860379 0.00779526 0.05409140 0.02457214    0.0517448 ----
    19   0   0   F    F -2.03D-01 0.01860379 0.00779526 0.01099466 0.00499455    0.0505593 ----
    20   0   0   F    T  1.76D+00 0.01554375 0.00632868 0.04584096 0.01957759    0.0504753 ----
    21   0   0   F    F  3.87D-01 0.01554375 0.00632868 0.01774672 0.00757920    0.0491074 ----
    22   0   0   F    T  3.18D+00 0.01271968 0.00518659 0.05872282 0.02715679    0.0489900 ----
    23   0   0   F    F -1.31D-01 0.01271968 0.00518659 0.00768910 0.00355588    0.0479139 ----
    24   0   0   F    T  4.21D+00 0.00967883 0.00364750 0.05322697 0.02360091    0.0478897 ----
    25   0   0   T    F  3.95D-01 0.00967883 0.00364750 0.02101440 0.00931781    0.0483539 ----
    26   0   0   F    T  3.51D+00 0.00469236 0.00202365 0.02042782 0.00931781    0.0475564 ----
    27   0   0   F    F -3.03D-01 0.00469236 0.00202365 0.00618396 0.00282071    0.0474344 ----
    28   0   0   F    T  2.45D+00 0.00444379 0.00175671 0.01625077 0.00649710    0.0474061 ----
    29   0   0   F    F -2.80D-02 0.00444379 0.00175671 0.00045561 0.00018215    0.0472960 ---+
    30   0   0   F    T  2.87D+00 0.00379606 0.00140350 0.01353037 0.00631495    0.0472959 ----
    31   0   0   T    F  4.09D-01 0.00379606 0.00140350 0.00553789 0.00258467    0.0473335 ----
    32   0   0   F    T  1.40D+00 0.00306765 0.00113886 0.00458201 0.00258467    0.0472613 ----
    33   0   0   F    F  5.79D-01 0.00306765 0.00113886 0.00265431 0.00149727    0.0472240 ----
    34   0   0   F    T  2.84D+00 0.00192470 0.00088913 0.00860957 0.00408194    0.0472183 ----
    35   0   0   F    F -3.52D-01 0.00192470 0.00088913 0.00302999 0.00143657    0.0472029 ----
    36   0   0   F    T  2.88D+00 0.00156721 0.00061247 0.00665319 0.00264537    0.0471964 ----
    37   0   0   F    F -2.34D-01 0.00156721 0.00061247 0.00155610 0.00061872    0.0471852 ----
    38   0   0   F    T  2.22D+00 0.00108976 0.00054737 0.00611556 0.00202665    0.0471840 ----
    39   0   0   F    F  4.41D+00 0.00108976 0.00054737 0.02696307 0.00893536    0.0471659 ----
    40   0   0   F    T  5.39D+00 0.00180371 0.00078668 0.03410803 0.01096201    0.0471301 ----
    41   0   0   T    F  3.74D-01 0.00180371 0.00078668 0.01275570 0.00409957    0.0471638 ----
    42   0   0   F    T  1.47D+00 0.00172235 0.00089600 0.01265302 0.00409957    0.0471114 ----
    43   0   0   F    F  1.04D+00 0.00172235 0.00089600 0.01316589 0.00426573    0.0470845 ----
    44   0   0   F    T  1.19D+00 0.00354641 0.00141374 0.02544872 0.00836530    0.0470750 ----
    45   0   0   F    F  6.99D-01 0.00354641 0.00141374 0.01778873 0.00584737    0.0470252 ----
    46   0   0   F    T  4.80D+00 0.00195380 0.00091406 0.04086647 0.01421267    0.0470152 ----
    47   0   0   T    F  3.60D-01 0.00195380 0.00091406 0.01470497 0.00511414    0.0470636 ----
    48   0   0   F    T  2.36D+00 0.00157521 0.00076273 0.01281652 0.00511414    0.0469935 ----
    49   0   0   F    F  1.94D+00 0.00157521 0.00076273 0.02486282 0.00992094    0.0469594 ----
    50   0   0   F    T  4.77D+00 0.00206754 0.00091395 0.03686447 0.01503508    0.0469334 ----
    51   0   0   T    F  3.10D-01 0.00206754 0.00091395 0.01141415 0.00465523    0.0470047 ----
    52   0   0   F    T  2.28D+00 0.00183982 0.00070444 0.01490644 0.00465523    0.0469150 ----
    53   0   0   F    F  1.98D-01 0.00183982 0.00070444 0.00295057 0.00092145    0.0468952 ----
    54   0   0   F    T  1.00D+00 0.00337987 0.00119606 0.01945519 0.00602875    0.0468946 ----
    55   0   0   F    F  2.13D+00 0.00337987 0.00119606 0.04153087 0.01286953    0.0468587 ----
    56   0   0   F    F -8.81D-03 0.00337987 0.00119606 0.00036588 0.00011338    0.0468280 --++
    57   0   0   F    T  5.00D+00 0.00262043 0.00099993 0.06168768 0.01878490    0.0468280 ----
    58   0   0   F    F -3.16D-01 0.00262043 0.00099993 0.01947272 0.00592976    0.0467876 ----
    59   0   0   F    T  2.27D+00 0.00333729 0.00120672 0.04312306 0.01285514    0.0467768 ----
    60   0   0   F    F -4.29D-01 0.00333729 0.00120672 0.01850221 0.00551558    0.0467651 ----
    61   0   0   F    T  1.46D+00 0.00320909 0.00114388 0.02201283 0.00733957    0.0467481 ----
    62   0   0   F    F  7.87D-01 0.00320909 0.00114388 0.01732061 0.00577508    0.0467075 ----
    63   0   0   F    T  2.70D+00 0.00281474 0.00113358 0.03721262 0.01311464    0.0466980 ----
    64   0   0   F    F -1.16D-01 0.00281474 0.00113358 0.00432513 0.00152428    0.0466534 ----
    65   0   0   F    T  2.27D+00 0.00308703 0.00109816 0.03306301 0.01159036    0.0466527 ----
    66   0   0   F    F  1.84D-01 0.00308703 0.00109816 0.00607239 0.00212870    0.0466041 ----
    67   0   0   F    T  1.56D+00 0.00333722 0.00144580 0.03544788 0.01371906    0.0466029 ----
    68   0   0   F    F -3.01D-01 0.00333722 0.00144580 0.01067826 0.00413271    0.0465752 ----
    69   0   0   F    T  4.18D+00 0.00175488 0.00075080 0.02154191 0.00958635    0.0465689 ----
    70   0   0   F    F -3.49D-01 0.00175488 0.00075080 0.00750916 0.00334164    0.0465525 ----
    71   0   0   F    T  2.35D+00 0.00184157 0.00078726 0.01356451 0.00624471    0.0465459 ----
    72   0   0   F    F  2.33D-02 0.00184157 0.00078726 0.00031637 0.00014565    0.0465235 --++
    73   0   0   F    T  1.35D+00 0.00255596 0.00103689 0.01277496 0.00639035    0.0465235 ----
    74   0   0   F    F -3.54D-02 0.00255596 0.00103689 0.00045198 0.00022609    0.0465026 ---+
    75   0   0   F    T  3.36D+00 0.00144193 0.00061549 0.01305266 0.00616426    0.0465026 ----
    76   0   0   F    F -4.20D-01 0.00144193 0.00061549 0.00547718 0.00258666    0.0464973 ----
    77   0   0   F    T  2.43D+00 0.00130768 0.00052988 0.00858251 0.00357760    0.0464915 ----
    78   0   0   F    F  3.52D-01 0.00130768 0.00052988 0.00302430 0.00126067    0.0464785 ----
    79   0   0   F    T  1.48D+00 0.00235857 0.00078063 0.01003062 0.00483828    0.0464776 ----
    80   0   0   F    F -2.15D-01 0.00235857 0.00078063 0.00215552 0.00103971    0.0464678 ----
    81   0   0   F    T  2.83D+00 0.00119010 0.00048605 0.00825618 0.00379856    0.0464670 ----
    82   0   0   F    F -3.70D-01 0.00119010 0.00048605 0.00305615 0.00140609    0.0464628 ----
    83   0   0   F    T  3.04D+00 0.00100324 0.00035101 0.00620062 0.00239247    0.0464607 ----
    84   0   0   F    F -5.80D-02 0.00100324 0.00035101 0.00035961 0.00013875    0.0464554 --++
    85   0   0   F    T  1.81D+00 0.00086046 0.00042827 0.00582284 0.00225372    0.0464554 ----
    86   0   0   F    F -3.60D-01 0.00086046 0.00042827 0.00209775 0.00081193    0.0464532 ----
    87   0   0   F    T  2.19D+00 0.00082173 0.00029436 0.00336772 0.00144179    0.0464522 ----
    88   0   0   F    T  1.23D+00 0.00108461 0.00037617 0.00313044 0.00144179    0.0464495 ----
    89   0   0   F    F  4.64D+00 0.00108461 0.00037617 0.01453523 0.00669450    0.0464451 ----
    90   0   0   F    T  3.74D+00 0.00125126 0.00056307 0.01672849 0.00813628    0.0464358 ----
    91   0   0   T    F  2.55D-01 0.00125126 0.00056307 0.00427323 0.00207838    0.0464698 ----
    92   0   0   F    T  1.93D+00 0.00085759 0.00037674 0.00493065 0.00207838    0.0464313 ----
    93   0   0   F    F  1.04D-01 0.00085759 0.00037674 0.00051459 0.00021691    0.0464268 ---+
    94   0   0   F    T  2.79D+00 0.00081893 0.00031699 0.00586055 0.00229529    0.0464267 ----
    95   0   0   F    F -2.29D-01 0.00081893 0.00031699 0.00134223 0.00052569    0.0464238 ----
    96   0   0   F    T  3.77D+00 0.00044553 0.00022367 0.00351299 0.00176960    0.0464235 ----
    97   0   0   T    F  4.96D-01 0.00044553 0.00022367 0.00174213 0.00087757    0.0464235 ----
    98   0   0   F    T  1.89D+00 0.00049380 0.00020979 0.00184862 0.00087757    0.0464221 ----
    99   0   0   F    T  1.57D+00 0.00049947 0.00022668 0.00195582 0.00087757    0.0464207 ----
   100   0   0   F    T  2.41D+00 0.00032459 0.00016250 0.00218507 0.00087757    0.0464193 ----
   101   0   0   F    T  3.48D+00 0.00023953 0.00011209 0.00223630 0.00087757    0.0464183 ----
   102   0   0   F    F -2.39D-01 0.00023953 0.00011209 0.00053556 0.00021016    0.0464178 ---+
   103   0   0   F    T  1.64D+00 0.00033605 0.00014508 0.00166533 0.00066740    0.0464178 ----
   104   0   0   F    F  1.39D+00 0.00033605 0.00014508 0.00232292 0.00093094    0.0464170 ----
   105   0   0   F    T  2.02D+00 0.00053183 0.00019477 0.00420027 0.00159834    0.0464166 ----
   106   0   0   F    F -2.92D-01 0.00053183 0.00019477 0.00122512 0.00046620    0.0464159 ----
   107   0   0   F    T  1.74D+00 0.00046082 0.00017280 0.00312097 0.00113214    0.0464158 ----
   108   0   0   F    F  7.01D-01 0.00046082 0.00017280 0.00218711 0.00079338    0.0464147 ----
   109   0   0   F    T  1.71D+00 0.00057957 0.00022541 0.00517763 0.00192553    0.0464144 ----
   110   0   0   F    F  3.79D-01 0.00057957 0.00022541 0.00196367 0.00073028    0.0464128 ----
   111   0   0   F    T  3.07D+00 0.00051415 0.00019792 0.00707456 0.00265581    0.0464126 ----
   112   0   0   F    F -4.81D-02 0.00051415 0.00019792 0.00034043 0.00012780    0.0464109 --++
   113   0   0   F    T  2.56D+00 0.00071514 0.00020759 0.00678264 0.00252801    0.0464109 ----
   114   0   0   F    F  4.96D-01 0.00071514 0.00020759 0.00336250 0.00125326    0.0464087 ----
   115   0   0   F    T  2.22D+00 0.00071003 0.00026853 0.00978684 0.00378127    0.0464084 ----
   116   0   0   F    F -7.72D-02 0.00071003 0.00026853 0.00075506 0.00029173    0.0464062 ---+
   117   0   0   F    T  2.86D+00 0.00057607 0.00022478 0.00861717 0.00348955    0.0464062 ----
   118   0   0   F    F -4.99D-01 0.00057607 0.00022478 0.00429726 0.00174018    0.0464062 ----
   119   0   0   F    T  2.05D+00 0.00046511 0.00018443 0.00430673 0.00174936    0.0464051 ----
   120   0   0   F    F -1.88D-01 0.00046511 0.00018443 0.00080979 0.00032893    0.0464043 ----
   121   0   0   F    T  2.06D+00 0.00053274 0.00016343 0.00361730 0.00142043    0.0464043 ----
   122   0   0   F    F  5.25D-01 0.00053274 0.00016343 0.00189863 0.00074555    0.0464032 ----
   123   0   0   F    T  2.79D+00 0.00046812 0.00017102 0.00573721 0.00216598    0.0464030 ----
   124   0   0   F    F -2.42D-01 0.00046812 0.00017102 0.00138772 0.00052391    0.0464022 ----
   125   0   0   F    T  3.46D+00 0.00031340 0.00013036 0.00416625 0.00164207    0.0464021 ----
   126   0   0   F    F -3.48D-01 0.00031340 0.00013036 0.00145136 0.00057203    0.0464017 ----
   127   0   0   F    T  2.63D+00 0.00030110 0.00011844 0.00238417 0.00107004    0.0464015 ----
   128   0   0   F    F  6.46D-01 0.00030110 0.00011844 0.00153900 0.00069072    0.0464008 ----
   129   0   0   F    T  1.51D+00 0.00059900 0.00019936 0.00404555 0.00176075    0.0464006 ----
   130   0   0   F    T  2.92D+00 0.00033281 0.00014231 0.00391146 0.00176075    0.0463997 ----
   131   0   0   F    F -4.65D-01 0.00033281 0.00014231 0.00181759 0.00081819    0.0463996 ----
   132   0   0   F    T  1.60D+00 0.00042511 0.00013697 0.00236467 0.00094256    0.0463992 ----
   133   0   0   F    F  1.01D+00 0.00042511 0.00013697 0.00239532 0.00095478    0.0463986 ----
   134   0   0   F    T  3.95D+00 0.00041779 0.00012368 0.00434439 0.00189734    0.0463983 ----
   135   0   0   F    F -3.02D-01 0.00041779 0.00012368 0.00131036 0.00057228    0.0463978 ----
   136   0   0   F    T  2.94D+00 0.00030592 0.00011792 0.00282773 0.00132506    0.0463977 ----
   137   0   0   F    F -4.52D-01 0.00030592 0.00011792 0.00127884 0.00059926    0.0463976 ----
   138   0   0   F    T  3.22D+00 0.00022613 0.00008047 0.00156421 0.00072580    0.0463974 ----
   139   0   0   F    F  2.56D-01 0.00022613 0.00008047 0.00039996 0.00018558    0.0463970 --++
   140   0   0   F    T  1.54D+00 0.00036193 0.00012876 0.00173714 0.00091138    0.0463970 ----
   141   0   0   F    F  4.51D-01 0.00036193 0.00012876 0.00078304 0.00041082    0.0463965 ----
   142   0   0   F    T  1.62D+00 0.00039810 0.00014960 0.00275380 0.00132221    0.0463964 ----
   143   0   0   F    T  2.45D+00 0.00032239 0.00011095 0.00262118 0.00132221    0.0463959 ----
   144   0   0   F    T  2.51D+00 0.00030997 0.00011927 0.00281103 0.00132221    0.0463955 ----
   145   0   0   F    F -2.07D-01 0.00030997 0.00011927 0.00058096 0.00027326    0.0463952 ---+
   146   0   0   F    T  4.26D+00 0.00017878 0.00007791 0.00243714 0.00104894    0.0463951 ----
   147   0   0   F    F -3.54D-01 0.00017878 0.00007791 0.00086355 0.00037167    0.0463950 ----
   148   0   0   F    T  1.98D+00 0.00016803 0.00008955 0.00146716 0.00067727    0.0463949 ----
   149   0   0   F    F  2.11D-01 0.00016803 0.00008955 0.00030894 0.00014261    0.0463946 --++
   150   0   0   F    T  2.20D+00 0.00025465 0.00009201 0.00188783 0.00081988    0.0463946 ----
   151   0   0   F    F -2.54D-01 0.00025465 0.00009201 0.00048033 0.00020861    0.0463944 ---+
   152   0   0   F    T  1.29D+00 0.00022568 0.00010268 0.00120655 0.00061128    0.0463944 ----
   153   0   0   F    F  1.30D+00 0.00022568 0.00010268 0.00157293 0.00079690    0.0463941 ----
   154   0   0   F    T  4.62D+00 0.00021880 0.00008082 0.00286791 0.00140817    0.0463939 ----
   155   0   0   F    F -4.51D-01 0.00021880 0.00008082 0.00129227 0.00063452    0.0463938 ----
   156   0   0   F    T  2.07D+00 0.00027816 0.00008811 0.00156617 0.00077366    0.0463937 ----
   157   0   0   F    T  4.08D+00 0.00018646 0.00006340 0.00154936 0.00077366    0.0463934 -+--
   158   0   0   F    F -2.86D-01 0.00018646 0.00006340 0.00044259 0.00022100    0.0463933 -+++
   159   0   0   F    T  1.20D+00 0.00026871 0.00009644 0.00114363 0.00055266    0.0463932 ----
   160   0   0   F    F  3.74D-01 0.00026871 0.00009644 0.00042787 0.00020676    0.0463930 --++
   161   0   0   F    T  2.66D+00 0.00022159 0.00007766 0.00153758 0.00075942    0.0463930 ----
   162   0   0   F    F -3.67D-01 0.00022159 0.00007766 0.00056486 0.00027899    0.0463929 ---+
   163   0   0   F    T  4.21D+00 0.00011929 0.00004684 0.00096087 0.00048043    0.0463929 -+--
   164   0   0   T    F  4.71D-01 0.00011929 0.00004684 0.00045289 0.00022644    0.0463929 -+-+
   165   0   0   F    T  2.73D+00 0.00011353 0.00003770 0.00055562 0.00022644    0.0463928 -+-+
   166   0   0   F    T  1.16D+00 0.00014869 0.00005380 0.00049312 0.00022644    0.0463927 -+-+
   167   0   0   F    T  2.80D+00 0.00014737 0.00005356 0.00044744 0.00022644    0.0463927 -+++
   168   0   0   T    T  1.00D+00 0.00022619 0.00008278 0.00022619 0.00008278    0.0463927 --++
   169   0   0   T    F  5.00D-01 0.00022619 0.00008278 0.00011310 0.00004139    0.0463929 --++
   170   0   0   T    F  5.00D-01 0.00022619 0.00008278 0.00005655 0.00002069    0.0463928 --++
   171   0   0   T    F  5.00D-01 0.00022619 0.00008278 0.00002827 0.00001035    0.0463927 --++
   172   0   0   T    F  5.00D-01 0.00022619 0.00008278 0.00001414 0.00000517    0.0463927 --++
   173   0   0   T    F  5.00D-01 0.00022619 0.00008278 0.00000707 0.00000259    0.0463927 --++
   174   0   0   T    F  5.00D-01 0.00022619 0.00008278 0.00000353 0.00000129    0.0463927 --++
   175   0   0   T    F  5.00D-01 0.00022619 0.00008278 0.00000177 0.00000065    0.0463927 --++
   176   0   0   T    F  5.00D-01 0.00022619 0.00008278 0.00000088 0.00000032    0.0463927 --++
   177   0   0   T    T  1.00D+00 0.00014798 0.00005382 0.00008206 0.00003654    0.0463927 -+++
   178   0   0   F    T  1.00D+00 0.00014354 0.00005098 0.00012907 0.00004823    0.0463927 -+++
   179   0   0   F    T  1.75D+00 0.00005734 0.00002443 0.00008975 0.00004823    0.0463927 ====
 ****************************
 MOLECULAR MECHANICS FUNCTION
 ****************************
 Atomic parameters:
 Center  VDW
      1 1.9080 0.0860000
      2 1.7210 0.2104000
      3 1.9080 0.1094000
      4 1.4870 0.0157000
      5 1.4870 0.0157000
      6 1.8750 0.1700000
      7 0.6000 0.0157000
      8 0.6000 0.0157000
      9 1.6612 0.2100000
     10 0.0000 0.0000000
 Molecular mechanics terms:
 NBDir 3 1      0      0
 HrmStr1  1- 2  431.53 1.3510
 HrmStr1  1- 3  294.15 1.5090
 HrmStr1  1- 9  946.08 1.2030
 HrmStr1  2-10  566.76 0.9680
 HrmStr1  3- 4  358.05 1.0960
 HrmStr1  3- 5  358.05 1.0960
 HrmStr1  3- 6  380.82 1.4520
 HrmStr1  6- 7  506.01 1.0110
 HrmStr1  6- 8  506.01 1.0110
 HrmBnd1  1- 2-10  56.55 107.23
 HrmBnd1  1- 3- 4  46.41 106.89
 HrmBnd1  1- 3- 5  46.41 106.89
 HrmBnd1  1- 3- 6  59.93 110.61
 HrmBnd1  2- 1- 3  67.92 111.72
 HrmBnd1  2- 1- 9  91.40 123.02
 HrmBnd1  3- 1- 9  62.83 125.24
 HrmBnd1  3- 6- 7  52.60 110.71
 HrmBnd1  3- 6- 8  52.60 110.71
 HrmBnd1  4- 3- 5  44.68 106.22
 HrmBnd1  4- 3- 6  52.45 112.94
 HrmBnd1  5- 3- 6  52.45 112.94
 HrmBnd1  7- 6- 8  47.09 108.63
 AmbTrs  3- 1- 2-10   0 180   0   0  0.0000 14.5000  0.0000  0.0000  2.0
 AmbTrs  9- 1- 2-10   0   0   0   0  0.0000 14.5000  0.0000  0.0000  2.0
 AmbTrs  2- 1- 3- 4   0   0   0   0  0.0000 14.5000  0.0000  0.0000  6.0
 AmbTrs  2- 1- 3- 5   0   0   0   0  0.0000 14.5000  0.0000  0.0000  6.0
 AmbTrs  2- 1- 3- 6   0   0   0   0  0.0000 14.5000  0.0000  0.0000  6.0
 AmbTrs  9- 1- 3- 4   0   0   0   0  0.0000 14.5000  0.0000  0.0000  6.0
 AmbTrs  9- 1- 3- 5   0   0   0   0  0.0000 14.5000  0.0000  0.0000  6.0
 AmbTrs  9- 1- 3- 6   0   0   0   0  0.0000 14.5000  0.0000  0.0000  6.0
 AmbTrs  1- 3- 6- 7   0 180   0   0  0.0000 25.6300  0.0000  0.0000  6.0
 AmbTrs  1- 3- 6- 8   0 180   0   0  0.0000 25.6300  0.0000  0.0000  6.0
 AmbTrs  4- 3- 6- 7   0   0   0   0  0.0000 16.9300  0.0000  0.0000  6.0
 AmbTrs  4- 3- 6- 8   0   0   0   0  0.0000 16.9300  0.0000  0.0000  6.0
 AmbTrs  5- 3- 6- 7   0   0   0   0  0.0000 16.9300  0.0000  0.0000  6.0
 AmbTrs  5- 3- 6- 8   0   0   0   0  0.0000 16.9300  0.0000  0.0000  6.0
 NBPair  2- 1 3 1      0      0 -1.000 -1.000
 NBPair  3- 2 3 1      0      0 -1.000 -1.000
 NBPair 10- 3 3 1      0      0 -0.500 -0.167
 NBPair  9- 2 3 1      0      0 -1.000 -1.000
 NBPair 10- 9 3 1      0      0 -0.500 -0.167
 NBPair  3- 1 3 1      0      0 -1.000 -1.000
 NBPair  4- 2 3 1      0      0 -0.500 -0.167
 NBPair  5- 2 3 1      0      0 -0.500 -0.167
 NBPair  6- 2 3 1      0      0 -0.500 -0.167
 NBPair  9- 3 3 1      0      0 -1.000 -1.000
 NBPair  9- 4 3 1      0      0 -0.500 -0.167
 NBPair  9- 5 3 1      0      0 -0.500 -0.167
 NBPair  9- 6 3 1      0      0 -0.500 -0.167
 NBPair  9- 1 3 1      0      0 -1.000 -1.000
 NBPair 10- 1 3 1      0      0 -1.000 -1.000
 NBPair 10- 2 3 1      0      0 -1.000 -1.000
 NBPair  4- 1 3 1      0      0 -1.000 -1.000
 NBPair  5- 1 3 1      0      0 -1.000 -1.000
 NBPair  6- 1 3 1      0      0 -1.000 -1.000
 NBPair  4- 3 3 1      0      0 -1.000 -1.000
 NBPair  5- 4 3 1      0      0 -1.000 -1.000
 NBPair  6- 4 3 1      0      0 -1.000 -1.000
 NBPair  5- 3 3 1      0      0 -1.000 -1.000
 NBPair  6- 5 3 1      0      0 -1.000 -1.000
 NBPair  6- 3 3 1      0      0 -1.000 -1.000
 NBPair  7- 1 3 1      0      0 -0.500 -0.167
 NBPair  8- 1 3 1      0      0 -0.500 -0.167
 NBPair  7- 4 3 1      0      0 -0.500 -0.167
 NBPair  8- 4 3 1      0      0 -0.500 -0.167
 NBPair  7- 5 3 1      0      0 -0.500 -0.167
 NBPair  8- 5 3 1      0      0 -0.500 -0.167
 NBPair  7- 3 3 1      0      0 -1.000 -1.000
 NBPair  8- 3 3 1      0      0 -1.000 -1.000
 NBPair  7- 6 3 1      0      0 -1.000 -1.000
 NBPair  8- 7 3 1      0      0 -1.000 -1.000
 NBPair  8- 6 3 1      0      0 -1.000 -1.000
 Energy per function type:
 Direct Coulomb + vdW (small)                           0.003868503
 Direct Coulomb (large)                                -0.131932320
 Direct vdW (large)                                   268.489549704
 Non-direct Coulomb + vdW (small)                      -0.012131409
 Non-direct Coulomb (large)                             0.138193718
 Non-direct vdW (large)                              -268.489549704
 Harmonic stretch I                                     0.000128631
 Harmonic bend I                                        0.010127221
 Amber torsion                                          0.038138307
 Energy per function class:
        Coulomb              -0.003825877
    Vanderwaals               0.001824369
     Stretching               0.000128631
        Bending               0.010127221
        Torsion               0.038138307
 Energy=    4.639265090E-02 NIter=   0.
 Dipole moment=       0.504640       0.207337      -0.330711
 Leave Link  402 at Sun Nov 26 11:20:18 2023, MaxMem=   134217728 cpu:               0.3 elap:               0.3
 (Enter /home/emanuele/chem_software/gaussian//gdv/l716.exe)
 Dipole        = 5.04640431D-01 2.07337494D-01-3.30711194D-01
 -------------------------------------------------------------------
 Center     Atomic                   Forces (Hartrees/Bohr)
 Number     Number              X              Y              Z
 -------------------------------------------------------------------
      1        6           0.000043423    0.000042077   -0.000050868
      2        8           0.000009103   -0.000029557    0.000019017
      3        6          -0.000020807   -0.000011410    0.000013297
      4        1          -0.000002905    0.000024055   -0.000017162
      5        1           0.000002830    0.000009498    0.000022058
      6        7           0.000004327    0.000000747    0.000011014
      7        1          -0.000035420    0.000003590   -0.000004777
      8        1           0.000019718   -0.000007290   -0.000012556
      9        8          -0.000035132   -0.000057337    0.000025904
     10        1           0.000014863    0.000025626   -0.000005928
 -------------------------------------------------------------------
 Cartesian Forces:  Max     0.000057337 RMS     0.000024429
 Z-matrix is all fixed cartesians, so copy forces.
 Leave Link  716 at Sun Nov 26 11:20:18 2023, MaxMem=   134217728 cpu:               0.0 elap:               0.0
 (Enter /home/emanuele/chem_software/gaussian//gdv/l103.exe)

 GradGradGradGradGradGradGradGradGradGradGradGradGradGradGradGradGradGrad
 Berny optimization.
 Search for a local minimum.
 Step number   1 out of a maximum of    2
 All quantities printed in internal units (Hartrees-Bohrs-Radians)
 RMS Force = .24429D-04 SwitMx=.10000D-02 MixMth= 2
 Mixed Optimization -- En-DIIS/RFO-DIIS
 Second derivative matrix not updated -- unit matrix used.
 ITU=  0
 RFO step:  Lambda=-1.79039665D-08 EMin= 1.00000000D+00
 Linear search not attempted -- first point.
 Variable       Old X    -DE/DX   Delta X   Delta X   Delta X     New X
                                 (Linear)    (Quad)   (Total)
    X1       -1.19707   0.00004   0.00000   0.00004   0.00004  -1.19702
    Y1       -0.94883   0.00004   0.00000   0.00004   0.00004  -0.94878
    Z1        0.22738  -0.00005   0.00000  -0.00005  -0.00005   0.22733
    X2       -2.12757   0.00001   0.00000   0.00001   0.00001  -2.12756
    Y2        1.00660  -0.00003   0.00000  -0.00003  -0.00003   1.00657
    Z2       -1.12319   0.00002   0.00000   0.00002   0.00002  -1.12317
    X3        1.37161  -0.00002   0.00000  -0.00002  -0.00002   1.37159
    Y3       -0.19302  -0.00001   0.00000  -0.00001  -0.00001  -0.19303
    Z3        1.28247   0.00001   0.00000   0.00001   0.00001   1.28248
    X4        1.15148  -0.00000   0.00000  -0.00000  -0.00000   1.15148
    Y4        1.77054   0.00002   0.00000   0.00002   0.00002   1.77057
    Z4        1.91252  -0.00002   0.00000  -0.00002  -0.00002   1.91251
    X5        1.56309   0.00000   0.00000   0.00000   0.00000   1.56309
    Y5       -1.38326   0.00001   0.00000   0.00001   0.00001  -1.38325
    Z5        2.96942   0.00002   0.00000   0.00002   0.00002   2.96944
    X6        3.34814   0.00000   0.00000   0.00000   0.00000   3.34814
    Y6       -0.66542   0.00000   0.00000   0.00000   0.00000  -0.66542
    Z6       -0.58204   0.00001   0.00000   0.00001   0.00001  -0.58203
    X7        2.88319  -0.00004   0.00000  -0.00004  -0.00004   2.88316
    Y7       -1.21998   0.00000   0.00000   0.00000   0.00000  -1.21997
    Z7       -2.35140  -0.00000   0.00000  -0.00000  -0.00000  -2.35141
    X8        5.15256   0.00002   0.00000   0.00002   0.00002   5.15258
    Y8       -0.15126  -0.00001   0.00000  -0.00001  -0.00001  -0.15127
    Z8       -0.21728  -0.00001   0.00000  -0.00001  -0.00001  -0.21729
    X9       -2.61608  -0.00004   0.00000  -0.00004  -0.00004  -2.61611
    Y9       -2.13351  -0.00006   0.00000  -0.00006  -0.00006  -2.13357
    Z9        1.54874   0.00003   0.00000   0.00003   0.00003   1.54877
   X10       -3.32723   0.00001   0.00000   0.00001   0.00001  -3.32721
   Y10        0.28308   0.00003   0.00000   0.00003   0.00003   0.28310
   Z10       -2.29667  -0.00001   0.00000  -0.00001  -0.00001  -2.29667
         Item               Value     Threshold  Converged?
 Maximum Force            0.000057     0.000450     YES
 RMS     Force            0.000024     0.000300     YES
 Maximum Displacement     0.000057     0.001800     YES
 RMS     Displacement     0.000024     0.001200     YES
 Predicted change in Energy=-8.951983D-09
 Optimization completed.
    -- Stationary point found.
 Largest change from initial coordinates is atom    2       0.133 Angstoms.
 GradGradGradGradGradGradGradGradGradGradGradGradGradGradGradGradGradGrad

 Leave Link  103 at Sun Nov 26 11:20:18 2023, MaxMem=   134217728 cpu:               0.0 elap:               0.0
 (Enter /home/emanuele/chem_software/gaussian//gdv/l202.exe)
                          Input orientation:                          
 ---------------------------------------------------------------------
 Center     Atomic      Atomic             Coordinates (Angstroms)
 Number     Number       Type             X           Y           Z
 ---------------------------------------------------------------------
      1          6    20001002       -0.633460   -0.502097    0.120323
      2          8    20001022       -1.125860    0.532671   -0.594366
      3          6    20001001        0.725826   -0.102141    0.678654
      4          1    20001034        0.609338    0.936931    1.012064
      5          1    20001034        0.827150   -0.731991    1.571349
      6          7    20001020        1.771757   -0.352127   -0.308002
      7          1    20001029        1.525721   -0.645583   -1.244309
      8          1    20001029        2.726616   -0.080046   -0.114979
      9          8    20001025       -1.384370   -1.129004    0.819560
     10          1    20001031       -1.760693    0.149797   -1.215343
 ---------------------------------------------------------------------
                    Distance matrix (angstroms):
                    1          2          3          4          5
     1  C    0.000000
     2  O    1.350549   0.000000
     3  C    1.522944   2.335017   0.000000
     4  H    2.100131   2.398948   1.097453   0.000000
     5  H    2.071644   3.178669   1.097216   1.773568   0.000000
     6  N    2.447656   3.043198   1.459436   2.180702   2.137414
     7  H    2.558294   2.973481   2.152428   2.904363   2.902308
     8  H    3.394644   3.930243   2.152557   2.605252   2.622347
     9  O    1.202418   2.197084   2.351006   2.877501   2.369309
    10  H    1.865375   0.967067   3.135837   3.346336   3.903861
                    6          7          8          9         10
     6  N    0.000000
     7  H    1.011593   0.000000
     8  H    1.011456   1.742805   0.000000
     9  O    3.440359   3.600260   4.344408   0.000000
    10  H    3.681494   3.381417   4.625967   2.432649   0.000000
 Symmetry turned off by external request.
 Stoichiometry    C2H5NO2
 Framework group  C1[X(C2H5NO2)]
 Deg. of freedom    24
 Full point group                 C1      NOp   1
 Rotational constants (GHZ):           9.5087208           3.8956316           3.1066403
 Leave Link  202 at Sun Nov 26 11:20:18 2023, MaxMem=   134217728 cpu:               0.0 elap:               0.0
 (Enter /home/emanuele/chem_software/gaussian//gdv/l9999.exe)
 Unable to Open any file for archive entry.
 1\1\GINC-EMANUELE-XPS-13-9343\FOpt\AMBER\ZDO\C2H5N1O2\EMANUELE\26-Nov-
 2023\0\\#p Amber=(SoftFirst,Print) geom=nocrowd nosymm opt=(maxcycle=3
 00)\\Title\\0,1\C,-0.6334600082,-0.5020972248,0.1203227199\O,-1.125859
 9745,0.5326714314,-0.5943659272\C,0.7258261303,-0.1021408698,0.6786535
 171\H,0.6093375106,0.9369308355,1.0120640286\H,0.8271498892,-0.7319910
 878,1.5713485515\N,1.771756793,-0.3521265535,-0.3080023496\H,1.5257208
 937,-0.6455831634,-1.2443085522\H,2.7266161375,-0.0800456975,-0.114978
 8554\O,-1.3843695141,-1.1290037737,0.8195597925\H,-1.7606928575,0.1497
 971036,-1.2153429252\\Version=ES64L-GDVRevJ.14\HF=0.0463927\RMSD=0.000
 e+00\RMSF=2.443e-05\Dipole=0.5046404,0.2073375,-0.3307112\PG=C01 [X(C2
 H5N1O2)]\\@
 The archive entry for this job was punched.


 SEE YOU NOW,
 YOUR BAIT OF FALSEHOOD TAKES THIS CARP OF TRUTH.
 AND THUS DO WE OF WISDOM AND OF REACH...
 BY INDIRECTIONS FIND DIRECTIONS OUT.    -- HAMLET, II, 1
 Job cpu time:       0 days  0 hours  0 minutes  0.8 seconds.
 Elapsed time:       0 days  0 hours  0 minutes  0.7 seconds.
 File lengths (MBytes):  RWF=      6 Int=      0 D2E=      0 Chk=      1 Scr=      1
 Normal termination of Gaussian DV at Sun Nov 26 11:20:18 2023.
