 Entering Gaussian System, Link 0=/home/emanuele/chem_software/gaussian//g09/g09
 Input=0_zmat_qm.gjf
 Output=0_zmat_qm.log
 Initial command:
 /home/emanuele/chem_software/gaussian//gdv/l1.exe "/home/emanuele/chem_software/gaussian/scratch/Gau-9990.inp" -scrdir="/home/emanuele/chem_software/gaussian/scratch/"
 Entering Link 1 = /home/emanuele/chem_software/gaussian//gdv/l1.exe PID=      9992.
  
 Copyright (c) 1988-2020, Gaussian, Inc.  All Rights Reserved.
  
 This is the private, development version of
 the Gaussian(R) DV system of programs. It is based on
 the Gaussian(R) 16 system (copyright 2016, Gaussian, Inc.),
 the Gaussian(R) 09 system (copyright 2009, Gaussian, Inc.),
 the Gaussian(R) 03 system (copyright 2003, Gaussian, Inc.),
 the Gaussian(R) 98 system (copyright 1998, Gaussian, Inc.),
 the Gaussian(R) 94 system (copyright 1995, Gaussian, Inc.),
 the Gaussian 92(TM) system (copyright 1992, Gaussian, Inc.),
 the Gaussian 90(TM) system (copyright 1990, Gaussian, Inc.),
 the Gaussian 88(TM) system (copyright 1988, Gaussian, Inc.),
 the Gaussian 86(TM) system (copyright 1986, Carnegie Mellon
 University), and the Gaussian 82(TM) system (copyright 1983,
 Carnegie Mellon University). Gaussian is a federally registered
 trademark of Gaussian, Inc.
  
 This software contains proprietary and confidential information,
 including trade secrets, belonging to Gaussian, Inc.
  
 This software is provided under written license and may be
 used, copied, transmitted, or stored only in accord with that
 written license.
  
 The following legend is applicable only to US Government
 contracts under FAR:
  
                    RESTRICTED RIGHTS LEGEND
  
 Use, reproduction and disclosure by the US Government is
 subject to restrictions as set forth in subparagraphs (a)
 and (c) of the Commercial Computer Software - Restricted
 Rights clause in FAR 52.227-19.
  
 Gaussian, Inc.
 340 Quinnipiac St., Bldg. 40, Wallingford CT 06492
  
  
 ---------------------------------------------------------------
 Warning -- This program may not be used in any manner that
 competes with the business of Gaussian, Inc. or will provide
 assistance to any competitor of Gaussian, Inc.  The licensee
 of this program is prohibited from giving any competitor of
 Gaussian, Inc. access to this program.  By using this program,
 the user acknowledges that Gaussian, Inc. is engaged in the
 business of creating and licensing software in the field of
 computational chemistry and represents and warrants to the
 licensee that it is not a competitor of Gaussian, Inc. and that
 it will not use this program in any manner prohibited above.
 ---------------------------------------------------------------
  

 Cite this work as:
 Gaussian Development Version, Revision J.14,
 M. J. Frisch, G. W. Trucks, H. B. Schlegel, G. E. Scuseria, 
 M. A. Robb, J. R. Cheeseman, G. Scalmani, V. Barone, 
 G. A. Petersson, H. Nakatsuji, X. Li, A. V. Marenich, M. Caricato, 
 J. Bloino, B. G. Janesko, J. Zheng, R. Gomperts, B. Mennucci, 
 H. P. Hratchian, J. V. Ortiz, A. F. Izmaylov, J. L. Sonnenberg, 
 D. Williams-Young, F. Ding, F. Lipparini, F. Egidi, J. Goings, 
 B. Peng, A. Petrone, T. Henderson, D. Ranasinghe, V. G. Zakrzewski, 
 J. Gao, N. Rega, G. Zheng, W. Liang, M. Hada, M. Ehara, K. Toyota, 
 R. Fukuda, J. Hasegawa, M. Ishida, T. Nakajima, Y. Honda, O. Kitao, 
 H. Nakai, T. Vreven, K. Throssell, J. A. Montgomery, Jr., 
 J. E. Peralta, F. Ogliaro, M. J. Bearpark, J. J. Heyd, 
 E. N. Brothers, K. N. Kudin, V. N. Staroverov, T. A. Keith, 
 R. Kobayashi, J. Normand, K. Raghavachari, A. P. Rendell, 
 J. C. Burant, S. S. Iyengar, J. Tomasi, M. Cossi, J. M. Millam, 
 M. Klene, C. Adamo, R. Cammi, J. W. Ochterski, R. L. Martin, 
 K. Morokuma, O. Farkas, J. B. Foresman, and D. J. Fox, 
 Gaussian, Inc., Wallingford CT, 2020.
 
 ******************************************
 Gaussian DV:  ES64L-GDVRevJ.14 29-Dec-2020
                25-Nov-2023 
 ******************************************
 %mem=1GB
 %nprocshared=4
 Will use up to    4 processors via shared memory.
 %chk=0_zmat_qm.chk
 ----------------------------------------------------------
 #p nosymm geom=nocrowd opt=(modredundant,maxcycle=100) PM6
 ----------------------------------------------------------
 1/6=100,18=120,19=15,26=1,37=210000000,38=1/1,3;
 2/9=110,12=1,15=1,40=1/2;
 3/5=2,25=1,41=3900000,71=1/1,2,3;
 4/35=1/1;
 5/5=2,35=1,38=5/2;
 6/7=2,8=2,9=2,10=2,28=1/1;
 7/30=1/1,2,3,16;
 1/6=100,18=20,19=15,26=1/3(2);
 2/9=110,12=1,15=1/2;
 99//99;
 2/9=110,12=1,15=1/2;
 3/5=2,25=1,41=3900000,71=1,135=20/1,2,3;
 4/5=5,16=3,35=1/1;
 5/5=2,35=1,38=5/2;
 7/30=1/1,2,3,16;
 1/6=100,18=20,19=15,26=1/3(-5);
 2/9=110,12=1,15=1/2;
 6/7=2,8=2,9=2,10=2,19=2,28=1/1;
 99/9=1/99;
 Leave Link    1 at Sat Nov 25 14:41:50 2023, MaxMem=   134217728 cpu:               0.2 elap:               0.1
 (Enter /home/emanuele/chem_software/gaussian//gdv/l101.exe)
 -----
 Title
 -----
 Symbolic Z-matrix:
 Charge =  0 Multiplicity = 1
 C                    -0.53685   0.10417   0.01464 
 O                    -1.63632  -0.67637  -0.06827 
 C                     0.72601  -0.7177    0.10528 
 H                     0.71699  -1.15712   1.11445 
 H                     0.64338  -1.5538   -0.59228 
 N                     1.88901   0.09773  -0.1951 
 H                     1.74816   1.04081   0.14593 
 H                     2.72354  -0.27843   0.23189 
 O                    -0.58681   1.30563   0.04628 
 H                    -2.40509  -0.08851  -0.07785 
 
 The following ModRedundant input section has been read:
 D       1       3       6       7 S  10 36.000                                
 
 ITRead=  0  0  0  0  0  0  0  0  0  0
 MicOpt= -1 -1 -1 -1 -1 -1 -1 -1 -1 -1
 NAtoms=     10 NQM=       10 NQMF=       0 NMMI=      0 NMMIF=      0
                NMic=       0 NMicF=      0.
                    Isotopes and Nuclear Properties:
 (Nuclear quadrupole moments (NQMom) in fm**2, nuclear magnetic moments (NMagM)
  in nuclear magnetons)

  Atom         1           2           3           4           5           6           7           8           9          10
 IAtWgt=          12          16          12           1           1          14           1           1          16           1
 AtmWgt=  12.0000000  15.9949146  12.0000000   1.0078250   1.0078250  14.0030740   1.0078250   1.0078250  15.9949146   1.0078250
 NucSpn=           0           0           0           1           1           2           1           1           0           1
 AtZEff=  -0.0000000  -0.0000000  -0.0000000  -0.0000000  -0.0000000  -0.0000000  -0.0000000  -0.0000000  -0.0000000  -0.0000000
 NQMom=    0.0000000   0.0000000   0.0000000   0.0000000   0.0000000   2.0440000   0.0000000   0.0000000   0.0000000   0.0000000
 NMagM=    0.0000000   0.0000000   0.0000000   2.7928460   2.7928460   0.4037610   2.7928460   2.7928460   0.0000000   2.7928460
 AtZNuc=   6.0000000   8.0000000   6.0000000   1.0000000   1.0000000   7.0000000   1.0000000   1.0000000   8.0000000   1.0000000
 Leave Link  101 at Sat Nov 25 14:41:50 2023, MaxMem=   134217728 cpu:               0.9 elap:               0.3
 (Enter /home/emanuele/chem_software/gaussian//gdv/l103.exe)

 GradGradGradGradGradGradGradGradGradGradGradGradGradGradGradGradGradGrad
 Berny optimization.
 Initialization pass.
                           ----------------------------
                           !    Initial Parameters    !
                           ! (Angstroms and Degrees)  !
 --------------------------                            --------------------------
 ! Name  Definition              Value          Derivative Info.                !
 --------------------------------------------------------------------------------
 ! R1    R(1,2)                  1.3509         estimate D2E/DX2                !
 ! R2    R(1,3)                  1.5095         estimate D2E/DX2                !
 ! R3    R(1,9)                  1.2029         estimate D2E/DX2                !
 ! R4    R(2,10)                 0.9678         estimate D2E/DX2                !
 ! R5    R(3,4)                  1.1007         estimate D2E/DX2                !
 ! R6    R(3,5)                  1.092          estimate D2E/DX2                !
 ! R7    R(3,6)                  1.4518         estimate D2E/DX2                !
 ! R8    R(6,7)                  1.0127         estimate D2E/DX2                !
 ! R9    R(6,8)                  1.0101         estimate D2E/DX2                !
 ! A1    A(2,1,3)              111.7154         estimate D2E/DX2                !
 ! A2    A(2,1,9)              123.0182         estimate D2E/DX2                !
 ! A3    A(3,1,9)              125.2388         estimate D2E/DX2                !
 ! A4    A(1,2,10)             107.2257         estimate D2E/DX2                !
 ! A5    A(1,3,4)              105.4003         estimate D2E/DX2                !
 ! A6    A(1,3,5)              108.3736         estimate D2E/DX2                !
 ! A7    A(1,3,6)              110.6071         estimate D2E/DX2                !
 ! A8    A(4,3,5)              106.2232         estimate D2E/DX2                !
 ! A9    A(4,3,6)              114.8648         estimate D2E/DX2                !
 ! A10   A(5,3,6)              111.0079         estimate D2E/DX2                !
 ! A11   A(3,6,7)              109.9968         estimate D2E/DX2                !
 ! A12   A(3,6,8)              111.4207         estimate D2E/DX2                !
 ! A13   A(7,6,8)              108.6253         estimate D2E/DX2                !
 ! D1    D(3,1,2,10)           177.195          estimate D2E/DX2                !
 ! D2    D(9,1,2,10)            -0.9857         estimate D2E/DX2                !
 ! D3    D(2,1,3,4)            -71.8288         estimate D2E/DX2                !
 ! D4    D(2,1,3,5)             41.552          estimate D2E/DX2                !
 ! D5    D(2,1,3,6)            163.4539         estimate D2E/DX2                !
 ! D6    D(9,1,3,4)            106.3034         estimate D2E/DX2                !
 ! D7    D(9,1,3,5)           -140.3158         estimate D2E/DX2                !
 ! D8    D(9,1,3,6)            -18.4139         estimate D2E/DX2                !
 ! D9    D(1,3,6,7)             34.6533         Scan                            !
 ! D10   D(1,3,6,8)            155.1742         estimate D2E/DX2                !
 ! D11   D(4,3,6,7)            -84.4877         estimate D2E/DX2                !
 ! D12   D(4,3,6,8)             36.0331         estimate D2E/DX2                !
 ! D13   D(5,3,6,7)            154.9936         estimate D2E/DX2                !
 ! D14   D(5,3,6,8)            -84.4855         estimate D2E/DX2                !
 --------------------------------------------------------------------------------
 Trust Radius=3.00D-01 FncErr=1.00D-07 GrdErr=1.00D-07 EigMax=2.50D+02 EigMin=1.00D-04
 Number of optimizations in scan=  11
 Number of steps in this run=    100 maximum allowed number of steps=    100.
 GradGradGradGradGradGradGradGradGradGradGradGradGradGradGradGradGradGrad

 Leave Link  103 at Sat Nov 25 14:41:50 2023, MaxMem=   134217728 cpu:               0.0 elap:               0.0
 (Enter /home/emanuele/chem_software/gaussian//gdv/l202.exe)
                          Input orientation:                          
 ---------------------------------------------------------------------
 Center     Atomic      Atomic             Coordinates (Angstroms)
 Number     Number       Type             X           Y           Z
 ---------------------------------------------------------------------
      1          6           0       -0.536850    0.104174    0.014636
      2          8           0       -1.636322   -0.676373   -0.068268
      3          6           0        0.726013   -0.717700    0.105280
      4          1           0        0.716994   -1.157121    1.114447
      5          1           0        0.643380   -1.553795   -0.592281
      6          7           0        1.889013    0.097733   -0.195097
      7          1           0        1.748159    1.040807    0.145925
      8          1           0        2.723536   -0.278432    0.231888
      9          8           0       -0.586810    1.305633    0.046275
     10          1           0       -2.405088   -0.088514   -0.077854
 ---------------------------------------------------------------------
                    Distance matrix (angstroms):
                    1          2          3          4          5
     1  C    0.000000
     2  O    1.350913   0.000000
     3  C    1.509475   2.369062   0.000000
     4  H    2.091070   2.677318   1.100723   0.000000
     5  H    2.123712   2.498299   1.092005   1.753764   0.000000
     6  N    2.434921   3.611553   1.451801   2.159443   2.106395
     7  H    2.473011   3.801223   2.034400   2.613852   2.915038
     8  H    3.289940   4.388258   2.049167   2.361613   2.575433
     9  O    1.202913   2.245650   2.412646   2.984301   3.177648
    10  H    1.880424   0.967818   3.198938   3.508689   3.421234
                    6          7          8          9         10
     6  N    0.000000
     7  H    1.012682   0.000000
     8  H    1.010072   1.642906   0.000000
     9  O    2.765318   2.352051   3.674521   0.000000
    10  H    4.299737   4.309861   5.141478   2.294600   0.000000
 Symmetry turned off by external request.
 Stoichiometry    C2H5NO2
 Framework group  C1[X(C2H5NO2)]
 Deg. of freedom    24
 Full point group                 C1      NOp   1
 Rotational constants (GHZ):          10.4489861           3.9571341           2.9518000
 Leave Link  202 at Sat Nov 25 14:41:50 2023, MaxMem=   134217728 cpu:               0.1 elap:               0.0
 (Enter /home/emanuele/chem_software/gaussian//gdv/l301.exe)
 Standard basis: VSTO-6G (5D, 7F)
 Ernie: Thresh=  0.10000D-02 Tol=  0.10000D-05 Strict=F.
  NNHCO=     0 NNPyr=     0 NCTC=     0               EPep=         0.000000000
    EC=        84.002832998  ECS=         2.253874644   EG=         0.126211539
   EHC=         0.001112369  EAt=       -38.066560349  AtH=         1.329713788
 EPDDG=         0.000000000  ECC=        86.384031549 EAtT=        39.396274136
    25 basis functions,   150 primitive gaussians,    25 cartesian basis functions
    15 alpha electrons       15 beta electrons
       nuclear repulsion energy       125.7803056858 Hartrees.
 IExCor=       0 DFT=F Ex=HF Corr=None N6=None ScaHFX=  1.000000
 ScaDFX=  1.000000  1.000000  1.000000  1.000000  1.000000  0.000000
 ScaDFX=  0.000000  0.000000  0.000000  0.000000  0.000000  0.000000
 IRadAn=      5 IRanWt=     -1 IRanGd=            0 ICorTp=0 IEmpDi=  4
 Integral buffers will be    131072 words long.
 Regular integral format.
 Two-electron integral symmetry is turned off.
 Leave Link  301 at Sat Nov 25 14:41:50 2023, MaxMem=   134217728 cpu:               0.2 elap:               0.1
 (Enter /home/emanuele/chem_software/gaussian//gdv/l302.exe)
 Do NDO integrals.
 NPDir=0 NMtPBC=     1 NCelOv=     1 NCel=       1 NClECP=     1 NCelD=      1
         NCelK=      1 NCelE2=     1 NClLst=     1 CellRange=     0.0.
 One-electron integrals computed using PRISM.
 NBasis=    25 RedAO= F EigKep=  0.00D+00  NBF=    25
 NBsUse=    25 1.00D-04 EigRej=  0.00D+00 NBFU=    25
 Leave Link  302 at Sat Nov 25 14:41:50 2023, MaxMem=   134217728 cpu:               0.3 elap:               0.1
 (Enter /home/emanuele/chem_software/gaussian//gdv/l303.exe)
 DipDrv:  MaxL=1.
 Leave Link  303 at Sat Nov 25 14:41:50 2023, MaxMem=   134217728 cpu:               0.1 elap:               0.0
 (Enter /home/emanuele/chem_software/gaussian//gdv/l401.exe)
 Simple Huckel Guess.
 JPrj=0 DoOrth=F DoCkMO=F.
 Leave Link  401 at Sat Nov 25 14:41:50 2023, MaxMem=   134217728 cpu:               0.2 elap:               0.0
 (Enter /home/emanuele/chem_software/gaussian//gdv/l502.exe)
 Keep J ints in memory in canonical form, NReq=861126.
 FoFCou: FMM=F IPFlag=           0 FMFlag=           0 FMFlg1=           0
         NFxFlg=           0 DoJE=F BraDBF=F KetDBF=F FulRan=T
         wScrn=  0.000000 ICntrl=       600 IOpCl=  2 I1Cent=           0 NGrid=           0
         NMat0=    1 NMatS0=     55 NMatT0=    0 NMatD0=    1 NMtDS0=    0 NMtDT0=    0
 Symmetry not used in FoFCou.
 Two-electron integral symmetry not used.
 Closed shell SCF:
 Using DIIS extrapolation, IDIIS=  1040.
 Overlap will be assumed to be unity.
 NGot=   134217728 LenX=   134155015 LenY=   134153949
 Requested convergence on RMS density matrix=1.00D-08 within 128 cycles.
 Requested convergence on MAX density matrix=1.00D-06.
 Requested convergence on             energy=1.00D-06.
 No special actions if energy rises.

 Cycle   1  Pass 1  IDiag  1:
 E= 0.171768323968593    
 DIIS: error= 5.87D-02 at cycle   1 NSaved=   1.
 NSaved= 1 IEnMin= 1 EnMin= 0.171768323968593     IErMin= 1 ErrMin= 5.87D-02
 ErrMax= 5.87D-02  0.00D+00 EMaxC= 1.00D-01 BMatC= 8.86D-02 BMatP= 8.86D-02
 IDIUse=3 WtCom= 4.13D-01 WtEn= 5.87D-01
 Coeff-Com:  0.100D+01
 Coeff-En:   0.100D+01
 Coeff:      0.100D+01
 GapD=    2.000 DampG=2.000 DampE=0.500 DampFc=1.0000 IDamp=-1.
 RMSDP=1.97D-02 MaxDP=1.61D-01              OVMax= 0.00D+00

 Cycle   2  Pass 1  IDiag  1:
 E=-0.907243624587153E-01 Delta-E=       -0.262492686427 Rises=F Damp=F
 DIIS: error= 1.89D-02 at cycle   2 NSaved=   2.
 NSaved= 2 IEnMin= 2 EnMin=-0.907243624587153E-01 IErMin= 2 ErrMin= 1.89D-02
 ErrMax= 1.89D-02  0.00D+00 EMaxC= 1.00D-01 BMatC= 1.04D-02 BMatP= 8.86D-02
 IDIUse=3 WtCom= 8.11D-01 WtEn= 1.89D-01
 Coeff-Com: -0.330D+00 0.133D+01
 Coeff-En:   0.000D+00 0.100D+01
 Coeff:     -0.268D+00 0.127D+01
 RMSDP=9.09D-03 MaxDP=5.88D-02 DE=-2.62D-01 OVMax= 0.00D+00

 Cycle   3  Pass 1  IDiag  3:
 E=-0.131686604490383     Delta-E=       -0.040962242032 Rises=F Damp=F
 DIIS: error= 5.72D-03 at cycle   3 NSaved=   3.
 NSaved= 3 IEnMin= 3 EnMin=-0.131686604490383     IErMin= 3 ErrMin= 5.72D-03
 ErrMax= 5.72D-03  0.00D+00 EMaxC= 1.00D-01 BMatC= 9.51D-04 BMatP= 1.04D-02
 IDIUse=3 WtCom= 9.43D-01 WtEn= 5.72D-02
 Coeff-Com:  0.114D+00-0.663D+00 0.155D+01
 Coeff-En:   0.000D+00 0.000D+00 0.100D+01
 Coeff:      0.108D+00-0.625D+00 0.152D+01
 Gap=     0.372 Goal=   None    Shift=    0.000
 RMSDP=4.00D-03 MaxDP=3.01D-02 DE=-4.10D-02 OVMax= 2.54D-02

 Cycle   4  Pass 1  IDiag  3:
 E=-0.136696101732383     Delta-E=       -0.005009497242 Rises=F Damp=F
 DIIS: error= 1.40D-03 at cycle   4 NSaved=   4.
 NSaved= 4 IEnMin= 4 EnMin=-0.136696101732383     IErMin= 4 ErrMin= 1.40D-03
 ErrMax= 1.40D-03  0.00D+00 EMaxC= 1.00D-01 BMatC= 4.28D-05 BMatP= 9.51D-04
 IDIUse=3 WtCom= 9.86D-01 WtEn= 1.40D-02
 Coeff-Com: -0.400D-01 0.258D+00-0.755D+00 0.154D+01
 Coeff-En:   0.000D+00 0.000D+00 0.000D+00 0.100D+01
 Coeff:     -0.394D-01 0.254D+00-0.745D+00 0.153D+01
 Gap=     0.372 Goal=   None    Shift=    0.000
 RMSDP=1.04D-03 MaxDP=9.03D-03 DE=-5.01D-03 OVMax= 7.57D-03

 Cycle   5  Pass 1  IDiag  3:
 E=-0.136963559301549     Delta-E=       -0.000267457569 Rises=F Damp=F
 DIIS: error= 1.91D-04 at cycle   5 NSaved=   5.
 NSaved= 5 IEnMin= 5 EnMin=-0.136963559301549     IErMin= 5 ErrMin= 1.91D-04
 ErrMax= 1.91D-04  0.00D+00 EMaxC= 1.00D-01 BMatC= 1.66D-06 BMatP= 4.28D-05
 IDIUse=3 WtCom= 9.98D-01 WtEn= 1.91D-03
 Coeff-Com:  0.842D-02-0.624D-01 0.208D+00-0.597D+00 0.144D+01
 Coeff-En:   0.000D+00 0.000D+00 0.000D+00 0.000D+00 0.100D+01
 Coeff:      0.840D-02-0.622D-01 0.208D+00-0.596D+00 0.144D+01
 Gap=     0.372 Goal=   None    Shift=    0.000
 RMSDP=2.12D-04 MaxDP=1.77D-03 DE=-2.67D-04 OVMax= 1.33D-03

 Cycle   6  Pass 1  IDiag  3:
 E=-0.136973636601908     Delta-E=       -0.000010077300 Rises=F Damp=F
 DIIS: error= 3.70D-05 at cycle   6 NSaved=   6.
 NSaved= 6 IEnMin= 6 EnMin=-0.136973636601908     IErMin= 6 ErrMin= 3.70D-05
 ErrMax= 3.70D-05  0.00D+00 EMaxC= 1.00D-01 BMatC= 5.72D-08 BMatP= 1.66D-06
 IDIUse=1 WtCom= 1.00D+00 WtEn= 0.00D+00
 Coeff-Com: -0.207D-02 0.176D-01-0.620D-01 0.206D+00-0.642D+00 0.148D+01
 Coeff:     -0.207D-02 0.176D-01-0.620D-01 0.206D+00-0.642D+00 0.148D+01
 Gap=     0.372 Goal=   None    Shift=    0.000
 RMSDP=3.64D-05 MaxDP=2.48D-04 DE=-1.01D-05 OVMax= 2.53D-04

 Cycle   7  Pass 1  IDiag  3:
 E=-0.136973965269405     Delta-E=       -0.000000328667 Rises=F Damp=F
 DIIS: error= 5.99D-06 at cycle   7 NSaved=   7.
 NSaved= 7 IEnMin= 7 EnMin=-0.136973965269405     IErMin= 7 ErrMin= 5.99D-06
 ErrMax= 5.99D-06  0.00D+00 EMaxC= 1.00D-01 BMatC= 2.51D-09 BMatP= 5.72D-08
 IDIUse=1 WtCom= 1.00D+00 WtEn= 0.00D+00
 Coeff-Com:  0.699D-03-0.607D-02 0.203D-01-0.682D-01 0.223D+00-0.593D+00
 Coeff-Com:  0.142D+01
 Coeff:      0.699D-03-0.607D-02 0.203D-01-0.682D-01 0.223D+00-0.593D+00
 Coeff:      0.142D+01
 Gap=     0.372 Goal=   None    Shift=    0.000
 RMSDP=8.01D-06 MaxDP=5.07D-05 DE=-3.29D-07 OVMax= 6.55D-05

 Cycle   8  Pass 1  IDiag  3:
 E=-0.136973981683084     Delta-E=       -0.000000016414 Rises=F Damp=F
 DIIS: error= 2.82D-06 at cycle   8 NSaved=   8.
 NSaved= 8 IEnMin= 8 EnMin=-0.136973981683084     IErMin= 8 ErrMin= 2.82D-06
 ErrMax= 2.82D-06  0.00D+00 EMaxC= 1.00D-01 BMatC= 2.98D-10 BMatP= 2.51D-09
 IDIUse=1 WtCom= 1.00D+00 WtEn= 0.00D+00
 Coeff-Com: -0.111D-03 0.111D-02-0.319D-02 0.121D-01-0.468D-01 0.147D+00
 Coeff-Com: -0.696D+00 0.159D+01
 Coeff:     -0.111D-03 0.111D-02-0.319D-02 0.121D-01-0.468D-01 0.147D+00
 Coeff:     -0.696D+00 0.159D+01
 Gap=     0.372 Goal=   None    Shift=    0.000
 RMSDP=3.21D-06 MaxDP=1.72D-05 DE=-1.64D-08 OVMax= 1.97D-05

 Cycle   9  Pass 1  IDiag  3:
 E=-0.136973983708913     Delta-E=       -0.000000002026 Rises=F Damp=F
 DIIS: error= 6.46D-07 at cycle   9 NSaved=   9.
 NSaved= 9 IEnMin= 9 EnMin=-0.136973983708913     IErMin= 9 ErrMin= 6.46D-07
 ErrMax= 6.46D-07  0.00D+00 EMaxC= 1.00D-01 BMatC= 1.61D-11 BMatP= 2.98D-10
 IDIUse=1 WtCom= 1.00D+00 WtEn= 0.00D+00
 Coeff-Com: -0.274D-06-0.722D-04-0.551D-04-0.350D-03 0.401D-02-0.184D-01
 Coeff-Com:  0.170D+00-0.565D+00 0.141D+01
 Coeff:     -0.274D-06-0.722D-04-0.551D-04-0.350D-03 0.401D-02-0.184D-01
 Coeff:      0.170D+00-0.565D+00 0.141D+01
 Gap=     0.372 Goal=   None    Shift=    0.000
 RMSDP=6.23D-07 MaxDP=3.84D-06 DE=-2.03D-09 OVMax= 3.31D-06

 Cycle  10  Pass 1  IDiag  3:
 E=-0.136973983799180     Delta-E=       -0.000000000090 Rises=F Damp=F
 DIIS: error= 1.49D-07 at cycle  10 NSaved=  10.
 NSaved=10 IEnMin=10 EnMin=-0.136973983799180     IErMin=10 ErrMin= 1.49D-07
 ErrMax= 1.49D-07  0.00D+00 EMaxC= 1.00D-01 BMatC= 1.06D-12 BMatP= 1.61D-11
 IDIUse=1 WtCom= 1.00D+00 WtEn= 0.00D+00
 Coeff-Com:  0.607D-05-0.280D-04 0.163D-03-0.381D-03 0.520D-03 0.145D-03
 Coeff-Com: -0.175D-01 0.762D-01-0.426D+00 0.137D+01
 Coeff:      0.607D-05-0.280D-04 0.163D-03-0.381D-03 0.520D-03 0.145D-03
 Coeff:     -0.175D-01 0.762D-01-0.426D+00 0.137D+01
 Gap=     0.372 Goal=   None    Shift=    0.000
 RMSDP=1.63D-07 MaxDP=1.11D-06 DE=-9.03D-11 OVMax= 8.46D-07

 Cycle  11  Pass 1  IDiag  3:
 E=-0.136973983805575     Delta-E=       -0.000000000006 Rises=F Damp=F
 DIIS: error= 4.05D-08 at cycle  11 NSaved=  11.
 NSaved=11 IEnMin=11 EnMin=-0.136973983805575     IErMin=11 ErrMin= 4.05D-08
 ErrMax= 4.05D-08  0.00D+00 EMaxC= 1.00D-01 BMatC= 8.06D-14 BMatP= 1.06D-12
 IDIUse=1 WtCom= 1.00D+00 WtEn= 0.00D+00
 Coeff-Com: -0.131D-05 0.896D-05-0.282D-04 0.921D-04-0.355D-03 0.116D-02
 Coeff-Com: -0.918D-02 0.286D-01 0.130D-01-0.454D+00 0.142D+01
 Coeff:     -0.131D-05 0.896D-05-0.282D-04 0.921D-04-0.355D-03 0.116D-02
 Coeff:     -0.918D-02 0.286D-01 0.130D-01-0.454D+00 0.142D+01
 Gap=     0.372 Goal=   None    Shift=    0.000
 RMSDP=4.85D-08 MaxDP=2.87D-07 DE=-6.39D-12 OVMax= 3.58D-07

 Cycle  12  Pass 1  IDiag  3:
 E=-0.136973983806030     Delta-E=       -0.000000000000 Rises=F Damp=F
 DIIS: error= 9.46D-09 at cycle  12 NSaved=  12.
 NSaved=12 IEnMin=12 EnMin=-0.136973983806030     IErMin=12 ErrMin= 9.46D-09
 ErrMax= 9.46D-09  0.00D+00 EMaxC= 1.00D-01 BMatC= 5.27D-15 BMatP= 8.06D-14
 IDIUse=1 WtCom= 1.00D+00 WtEn= 0.00D+00
 Coeff-Com:  0.184D-06-0.112D-05 0.111D-05-0.665D-05 0.719D-04-0.344D-03
 Coeff-Com:  0.455D-02-0.166D-01 0.736D-02 0.197D+00-0.845D+00 0.165D+01
 Coeff:      0.184D-06-0.112D-05 0.111D-05-0.665D-05 0.719D-04-0.344D-03
 Coeff:      0.455D-02-0.166D-01 0.736D-02 0.197D+00-0.845D+00 0.165D+01
 Gap=     0.372 Goal=   None    Shift=    0.000
 RMSDP=1.45D-08 MaxDP=8.88D-08 DE=-4.55D-13 OVMax= 1.01D-07

 Cycle  13  Pass 1  IDiag  3:
 E=-0.136973983806101     Delta-E=       -0.000000000000 Rises=F Damp=F
 DIIS: error= 1.67D-09 at cycle  13 NSaved=  13.
 NSaved=13 IEnMin=13 EnMin=-0.136973983806101     IErMin=13 ErrMin= 1.67D-09
 ErrMax= 1.67D-09  0.00D+00 EMaxC= 1.00D-01 BMatC= 1.79D-16 BMatP= 5.27D-15
 IDIUse=1 WtCom= 1.00D+00 WtEn= 0.00D+00
 Coeff-Com:  0.881D-08-0.179D-06 0.222D-05-0.531D-05-0.960D-05 0.107D-03
 Coeff-Com: -0.209D-02 0.799D-02-0.547D-02-0.862D-01 0.398D+00-0.885D+00
 Coeff-Com:  0.157D+01
 Coeff:      0.881D-08-0.179D-06 0.222D-05-0.531D-05-0.960D-05 0.107D-03
 Coeff:     -0.209D-02 0.799D-02-0.547D-02-0.862D-01 0.398D+00-0.885D+00
 Coeff:      0.157D+01
 Gap=     0.372 Goal=   None    Shift=    0.000
 RMSDP=2.50D-09 MaxDP=1.75D-08 DE=-7.11D-14 OVMax= 2.13D-08

 Cycle  14  Pass 2  IDiag  1:
 SCF Done:  E(RPM6) = -0.136973983806     A.U. after   14 cycles
            NFock= 13  Conv=0.25D-08     -V/T= 0.9979
 KE=-6.559711597378D+01 PE=-1.647720729518D+02 EE= 1.044519092559D+02
 Leave Link  502 at Sat Nov 25 14:41:50 2023, MaxMem=   134217728 cpu:               0.2 elap:               0.1
 (Enter /home/emanuele/chem_software/gaussian//gdv/l601.exe)
 Copying SCF densities to generalized density rwf, IOpCl= 0 IROHF=0.

 **********************************************************************

            Population analysis using the SCF Density.

 **********************************************************************

 Alpha  occ. eigenvalues --       -1.22033      -1.17650      -1.15177      -0.96585      -0.79048
 Alpha  occ. eigenvalues --       -0.69293      -0.65535      -0.63929      -0.58072      -0.56742
 Alpha  occ. eigenvalues --       -0.53691      -0.50561      -0.46483      -0.42332      -0.36139
 Alpha virt. eigenvalues --        0.01043       0.05109       0.09137       0.11428       0.13931
 Alpha virt. eigenvalues --        0.16361       0.16810       0.19059       0.21211       0.24502
          Condensed to atoms (all electrons):
               1          2          3          4          5          6
     1  C    3.389636   0.000000   0.000000   0.000000   0.000000   0.000000
     2  O    0.000000   6.491501   0.000000   0.000000   0.000000   0.000000
     3  C    0.000000   0.000000   4.256520   0.000000   0.000000   0.000000
     4  H    0.000000   0.000000   0.000000   0.847919   0.000000   0.000000
     5  H    0.000000   0.000000   0.000000   0.000000   0.808674   0.000000
     6  N    0.000000   0.000000   0.000000   0.000000   0.000000   5.485381
     7  H    0.000000   0.000000   0.000000   0.000000   0.000000   0.000000
     8  H    0.000000   0.000000   0.000000   0.000000   0.000000   0.000000
     9  O    0.000000   0.000000   0.000000   0.000000   0.000000   0.000000
    10  H    0.000000   0.000000   0.000000   0.000000   0.000000   0.000000
               7          8          9         10
     1  C    0.000000   0.000000   0.000000   0.000000
     2  O    0.000000   0.000000   0.000000   0.000000
     3  C    0.000000   0.000000   0.000000   0.000000
     4  H    0.000000   0.000000   0.000000   0.000000
     5  H    0.000000   0.000000   0.000000   0.000000
     6  N    0.000000   0.000000   0.000000   0.000000
     7  H    0.770909   0.000000   0.000000   0.000000
     8  H    0.000000   0.782627   0.000000   0.000000
     9  O    0.000000   0.000000   6.501898   0.000000
    10  H    0.000000   0.000000   0.000000   0.664933
 Mulliken charges:
               1
     1  C    0.610364
     2  O   -0.491501
     3  C   -0.256520
     4  H    0.152081
     5  H    0.191326
     6  N   -0.485381
     7  H    0.229091
     8  H    0.217373
     9  O   -0.501898
    10  H    0.335067
 Sum of Mulliken charges =  -0.00000
 Mulliken charges with hydrogens summed into heavy atoms:
               1
     1  C    0.610364
     2  O   -0.156434
     3  C    0.086886
     6  N   -0.038918
     9  O   -0.501898
 Charge=             -0.0000 electrons
 Dipole moment (field-independent basis, Debye):
    X=             -0.0442    Y=             -1.7562    Z=              2.0287  Tot=              2.6836
 N-N= 1.257803056858D+02 E-N=-1.647720729272D+02  KE=-6.559711597378D+01
 Leave Link  601 at Sat Nov 25 14:41:50 2023, MaxMem=   134217728 cpu:               0.1 elap:               0.0
 (Enter /home/emanuele/chem_software/gaussian//gdv/l701.exe)
 ... and contract with generalized density number  0.
 Compute integral first derivatives.
 Leave Link  701 at Sat Nov 25 14:41:50 2023, MaxMem=   134217728 cpu:               0.2 elap:               0.1
 (Enter /home/emanuele/chem_software/gaussian//gdv/l702.exe)
 L702 exits ... SP integral derivatives will be done elsewhere.
 Leave Link  702 at Sat Nov 25 14:41:51 2023, MaxMem=   134217728 cpu:               0.1 elap:               0.0
 (Enter /home/emanuele/chem_software/gaussian//gdv/l703.exe)
 Integral derivatives from FoFJK, PRISM(SPDF).
 Compute integral first derivatives, UseDBF=F ICtDFT=           0.
 Calling FoFJK, ICntrl=      2127 FMM=F ISym2X=0 I1Cent= 0 IOpClX= 0 NMat=1 NMatS=1 NMatT=0.
 FoFJK:  IHMeth=40 ICntrl=    2127 DoSepK=F KAlg= 0 I1Cent=           0 FoldK=F
 IRaf=         0 NMat=       1 IRICut=       1 DoRegI=T DoRafI=F ISym2E= 0 IDoP0=3 IntGTp=3.
 FoFCou: FMM=F IPFlag=           0 FMFlag=      100000 FMFlg1=         800
         NFxFlg=           0 DoJE=F BraDBF=F KetDBF=F FulRan=T
         wScrn=  0.000000 ICntrl=      2127 IOpCl=  0 I1Cent=           0 NGrid=           0
         NMat0=    1 NMatS0=      1 NMatT0=    0 NMatD0=    1 NMtDS0=    0 NMtDT0=    0
 Symmetry not used in FoFCou.
 Leave Link  703 at Sat Nov 25 14:41:51 2023, MaxMem=   134217728 cpu:               0.1 elap:               0.0
 (Enter /home/emanuele/chem_software/gaussian//gdv/l716.exe)
 Dipole        =-1.73953341D-02-6.90951364D-01 7.98140051D-01
 -------------------------------------------------------------------
 Center     Atomic                   Forces (Hartrees/Bohr)
 Number     Number              X              Y              Z
 -------------------------------------------------------------------
      1        6           0.029519480    0.004598071   -0.001501695
      2        8          -0.002629323   -0.006351354    0.000288808
      3        6          -0.021332520   -0.010188111    0.011815132
      4        1           0.002225947   -0.007671509    0.009764009
      5        1           0.003016531   -0.011675785   -0.010628727
      6        7           0.018023015    0.011316189   -0.011554417
      7        1           0.003069768    0.006682372    0.000517805
      8        1           0.002494252   -0.001031591    0.002148452
      9        8          -0.009778131    0.012789983    0.001092432
     10        1          -0.024609020    0.001531735   -0.001941798
 -------------------------------------------------------------------
 Cartesian Forces:  Max     0.029519480 RMS     0.010928384
 Leave Link  716 at Sat Nov 25 14:41:51 2023, MaxMem=   134217728 cpu:               0.2 elap:               0.0
 (Enter /home/emanuele/chem_software/gaussian//gdv/l103.exe)

 GradGradGradGradGradGradGradGradGradGradGradGradGradGradGradGradGradGrad
 Berny optimization.
 FormGI is forming the generalized inverse of G from B-inverse, IUseBI=4.
 Internal  Forces:  Max     0.030263752 RMS     0.010202630
 Search for a local minimum.
 Step number   1 out of a maximum of  100 on scan point     1 out of    11
 All quantities printed in internal units (Hartrees-Bohrs-Radians)
 RMS Force = .10347D-01 SwitMx=.10000D-02 MixMth= 1
 Mixed Optimization -- RFO/linear search
 Second derivative matrix not updated -- first step.
 ITU=  0
     Eigenvalues ---    0.00641   0.01053   0.02341   0.02405   0.04773
     Eigenvalues ---    0.06482   0.09826   0.12461   0.16000   0.16000
     Eigenvalues ---    0.16000   0.21890   0.24992   0.25000   0.31403
     Eigenvalues ---    0.33602   0.34582   0.38010   0.45526   0.45961
     Eigenvalues ---    0.53825   0.54828   1.033731000.000001000.00000
     Eigenvalues --- 1000.000001000.000001000.000001000.000001000.00000
     Eigenvalues --- 1000.000001000.000001000.000001000.000001000.00000
     Eigenvalues --- 1000.00000
 RFO step:  Lambda=-1.19718247D-02 EMin= 6.40605360D-03
 Linear search not attempted -- first point.
 Iteration  1 RMS(Cart)=  0.07266824 RMS(Int)=  0.00353818
 Iteration  2 RMS(Cart)=  0.00349197 RMS(Int)=  0.00016131
 Iteration  3 RMS(Cart)=  0.00001738 RMS(Int)=  0.00016068
 Iteration  4 RMS(Cart)=  0.00000000 RMS(Int)=  0.00016068
 Fixing frozen coordinates.
 Iteration  1 RMS(Cart)=  0.00000899 RMS(Int)=  0.00000910
 Iteration  2 RMS(Cart)=  0.00000492 RMS(Int)=  0.00001016
 Iteration  3 RMS(Cart)=  0.00000269 RMS(Int)=  0.00001148
 Iteration  4 RMS(Cart)=  0.00000147 RMS(Int)=  0.00001236
 Iteration  5 RMS(Cart)=  0.00000080 RMS(Int)=  0.00001287
 ITry= 1 IFail=0 DXMaxC= 2.25D-01 DCOld= 1.00D+10 DXMaxT= 3.00D-01 DXLimC= 3.00D+00 Rises=F
 Variable       Old X    -DE/DX   Delta X   Delta X   Delta X     New X
                                 (Linear)    (Quad)   (Total)
    R1        2.55286   0.02505   0.00000   0.04472   0.04472   2.59758
    R2        2.85250   0.01324   0.00000   0.04061   0.04061   2.89311
    R3        2.27318   0.01321   0.00000   0.01263   0.01263   2.28581
    R4        1.82891   0.02050   0.00000   0.03725   0.03725   1.86616
    R5        2.08006   0.01200   0.00000   0.03447   0.03447   2.11454
    R6        2.06359   0.01550   0.00000   0.04332   0.04332   2.10691
    R7        2.74351   0.03026   0.00000   0.07719   0.07719   2.82070
    R8        1.91369   0.00597   0.00000   0.01278   0.01278   1.92647
    R9        1.90876   0.00335   0.00000   0.00711   0.00711   1.91587
    A1        1.94980  -0.00359   0.00000  -0.01377  -0.01377   1.93603
    A2        2.14707  -0.00860   0.00000  -0.03294  -0.03295   2.11413
    A3        2.18583   0.01219   0.00000   0.04646   0.04644   2.23227
    A4        1.87144   0.02526   0.00000   0.14689   0.14689   2.01833
    A5        1.83958   0.00243   0.00000   0.03313   0.03278   1.87237
    A6        1.89148   0.00261   0.00000   0.01457   0.01437   1.90585
    A7        1.93046   0.00003   0.00000   0.00378   0.00354   1.93400
    A8        1.85394  -0.00055   0.00000  -0.01014  -0.01058   1.84337
    A9        2.00477   0.00048   0.00000   0.00918   0.00869   2.01346
   A10        1.93745  -0.00453   0.00000  -0.04652  -0.04657   1.89088
   A11        1.91981   0.00706   0.00000   0.04413   0.04403   1.96384
   A12        1.94466  -0.00170   0.00000  -0.00688  -0.00698   1.93768
   A13        1.89587  -0.00228   0.00000  -0.00750  -0.00767   1.88820
    D1        3.09264   0.00086   0.00000   0.01845   0.01863   3.11127
    D2       -0.01720   0.00071   0.00000   0.02576   0.02558   0.00838
    D3       -1.25365  -0.00021   0.00000  -0.01562  -0.01551  -1.26916
    D4        0.72522   0.00150   0.00000  -0.00482  -0.00460   0.72062
    D5        2.85281  -0.00239   0.00000  -0.05057  -0.05073   2.80208
    D6        1.85534  -0.00051   0.00000  -0.02489  -0.02490   1.83045
    D7       -2.44897   0.00119   0.00000  -0.01409  -0.01398  -2.46296
    D8       -0.32138  -0.00270   0.00000  -0.05985  -0.06012  -0.38150
    D9        0.60481   0.00046   0.00000   0.00000  -0.00000   0.60481
   D10        2.70830   0.00122   0.00000   0.01563   0.01566   2.72396
   D11       -1.47459  -0.00306   0.00000  -0.05218  -0.05213  -1.52672
   D12        0.62890  -0.00230   0.00000  -0.03655  -0.03646   0.59244
   D13        2.70515   0.00077   0.00000  -0.00987  -0.00990   2.69525
   D14       -1.47455   0.00153   0.00000   0.00576   0.00577  -1.46878
         Item               Value     Threshold  Converged?
 Maximum Force            0.030264     0.000450     NO 
 RMS     Force            0.010347     0.000300     NO 
 Maximum Displacement     0.224861     0.001800     NO 
 RMS     Displacement     0.073051     0.001200     NO 
 Predicted change in Energy=-6.334465D-03
 Lowest energy point so far.  Saving SCF results.
 GradGradGradGradGradGradGradGradGradGradGradGradGradGradGradGradGradGrad

 Leave Link  103 at Sat Nov 25 14:41:51 2023, MaxMem=   134217728 cpu:               0.1 elap:               0.0
 (Enter /home/emanuele/chem_software/gaussian//gdv/l202.exe)
                          Input orientation:                          
 ---------------------------------------------------------------------
 Center     Atomic      Atomic             Coordinates (Angstroms)
 Number     Number       Type             X           Y           Z
 ---------------------------------------------------------------------
      1          6           0       -0.545078    0.142734    0.035108
      2          8           0       -1.662489   -0.648558   -0.086204
      3          6           0        0.721715   -0.711337    0.133363
      4          1           0        0.726765   -1.182869    1.148111
      5          1           0        0.650928   -1.556722   -0.590089
      6          7           0        1.932120    0.094690   -0.203147
      7          1           0        1.853957    1.063503    0.104354
      8          1           0        2.763553   -0.304738    0.217610
      9          8           0       -0.635366    1.347518    0.094005
     10          1           0       -2.524079   -0.167810   -0.128160
 ---------------------------------------------------------------------
                    Distance matrix (angstroms):
                    1          2          3          4          5
     1  C    0.000000
     2  O    1.374578   0.000000
     3  C    1.530966   2.395116   0.000000
     4  H    2.147926   2.741816   1.118965   0.000000
     5  H    2.170127   2.535855   1.114931   1.779567   0.000000
     6  N    2.489093   3.672507   1.492648   2.216063   2.125638
     7  H    2.570599   3.915719   2.105438   2.721429   2.965655
     8  H    3.343737   4.449760   2.083632   2.405296   2.585155
     9  O    1.209598   2.252061   2.466192   3.060948   3.249176
    10  H    2.009860   0.987531   3.301363   3.636922   3.496159
                    6          7          8          9         10
     6  N    0.000000
     7  H    1.019444   0.000000
     8  H    1.013834   1.646899   0.000000
     9  O    2.872257   2.505494   3.781253   0.000000
    10  H    4.464554   4.553833   5.300694   2.431628   0.000000
 Symmetry turned off by external request.
 Stoichiometry    C2H5NO2
 Framework group  C1[X(C2H5NO2)]
 Deg. of freedom    24
 Full point group                 C1      NOp   1
 Rotational constants (GHZ):          10.1181761           3.7748840           2.8345859
 Leave Link  202 at Sat Nov 25 14:41:51 2023, MaxMem=   134217728 cpu:               0.1 elap:               0.0
 (Enter /home/emanuele/chem_software/gaussian//gdv/l301.exe)
 Standard basis: VSTO-6G (5D, 7F)
 Ernie: Thresh=  0.10000D-02 Tol=  0.10000D-05 Strict=F.
  NNHCO=     0 NNPyr=     0 NCTC=     0               EPep=         0.000000000
    EC=        82.767886090  ECS=         2.132579635   EG=         0.120859155
   EHC=         0.000970243  EAt=       -38.066560349  AtH=         1.329713788
 EPDDG=         0.000000000  ECC=        85.022295123 EAtT=        39.396274136
    25 basis functions,   150 primitive gaussians,    25 cartesian basis functions
    15 alpha electrons       15 beta electrons
       nuclear repulsion energy       124.4185692594 Hartrees.
 IExCor=       0 DFT=F Ex=HF Corr=None N6=None ScaHFX=  1.000000
 ScaDFX=  1.000000  1.000000  1.000000  1.000000  1.000000  0.000000
 ScaDFX=  0.000000  0.000000  0.000000  0.000000  0.000000  0.000000
 IRadAn=      5 IRanWt=     -1 IRanGd=            0 ICorTp=0 IEmpDi=  4
 Integral buffers will be    131072 words long.
 Regular integral format.
 Two-electron integral symmetry is turned off.
 Leave Link  301 at Sat Nov 25 14:41:51 2023, MaxMem=   134217728 cpu:               0.2 elap:               0.1
 (Enter /home/emanuele/chem_software/gaussian//gdv/l302.exe)
 Do NDO integrals.
 NPDir=0 NMtPBC=     1 NCelOv=     1 NCel=       1 NClECP=     1 NCelD=      1
         NCelK=      1 NCelE2=     1 NClLst=     1 CellRange=     0.0.
 One-electron integrals computed using PRISM.
 NBasis=    25 RedAO= F EigKep=  0.00D+00  NBF=    25
 NBsUse=    25 1.00D-04 EigRej=  0.00D+00 NBFU=    25
 Leave Link  302 at Sat Nov 25 14:41:51 2023, MaxMem=   134217728 cpu:               0.4 elap:               0.1
 (Enter /home/emanuele/chem_software/gaussian//gdv/l303.exe)
 DipDrv:  MaxL=1.
 Leave Link  303 at Sat Nov 25 14:41:51 2023, MaxMem=   134217728 cpu:               0.1 elap:               0.0
 (Enter /home/emanuele/chem_software/gaussian//gdv/l401.exe)
 Initial guess from the checkpoint file:  "0_zmat_qm.chk"
 B after Tr=     0.000000    0.000000    0.000000
         Rot=    1.000000    0.000000    0.000000    0.000000 Ang=   0.00 deg.
 AO Guess basis will be translated and rotated to current coordinates.
 JPrj=0 DoOrth=T DoCkMO=T.
 Leave Link  401 at Sat Nov 25 14:41:51 2023, MaxMem=   134217728 cpu:               0.6 elap:               0.2
 (Enter /home/emanuele/chem_software/gaussian//gdv/l502.exe)
 Keep J ints in memory in canonical form, NReq=861126.
 FoFCou: FMM=F IPFlag=           0 FMFlag=           0 FMFlg1=           0
         NFxFlg=           0 DoJE=F BraDBF=F KetDBF=F FulRan=T
         wScrn=  0.000000 ICntrl=       600 IOpCl=  2 I1Cent=           0 NGrid=           0
         NMat0=    1 NMatS0=     55 NMatT0=    0 NMatD0=    1 NMtDS0=    0 NMtDT0=    0
 Symmetry not used in FoFCou.
 Two-electron integral symmetry not used.
 Closed shell SCF:
 Using DIIS extrapolation, IDIIS=  1040.
 Overlap will be assumed to be unity.
 NGot=   134217728 LenX=   134155015 LenY=   134153949
 Requested convergence on RMS density matrix=1.00D-08 within 128 cycles.
 Requested convergence on MAX density matrix=1.00D-06.
 Requested convergence on             energy=1.00D-06.
 No special actions if energy rises.

 Cycle   1  Pass 1  IDiag  1:
 E=-0.134382535747250    
 DIIS: error= 7.30D-03 at cycle   1 NSaved=   1.
 NSaved= 1 IEnMin= 1 EnMin=-0.134382535747250     IErMin= 1 ErrMin= 7.30D-03
 ErrMax= 7.30D-03  0.00D+00 EMaxC= 1.00D-01 BMatC= 1.87D-03 BMatP= 1.87D-03
 IDIUse=3 WtCom= 9.27D-01 WtEn= 7.30D-02
 Coeff-Com:  0.100D+01
 Coeff-En:   0.100D+01
 Coeff:      0.100D+01
 GapD=    2.000 DampG=2.000 DampE=1.000 DampFc=2.0000 IDamp=-1.
 RMSDP=2.97D-03 MaxDP=1.93D-02              OVMax= 0.00D+00

 Cycle   2  Pass 1  IDiag  3:
 E=-0.140291247954394     Delta-E=       -0.005908712207 Rises=F Damp=F
 DIIS: error= 2.59D-03 at cycle   2 NSaved=   2.
 NSaved= 2 IEnMin= 2 EnMin=-0.140291247954394     IErMin= 2 ErrMin= 2.59D-03
 ErrMax= 2.59D-03  0.00D+00 EMaxC= 1.00D-01 BMatC= 2.30D-04 BMatP= 1.87D-03
 IDIUse=3 WtCom= 9.74D-01 WtEn= 2.59D-02
 Coeff-Com: -0.455D+00 0.145D+01
 Coeff-En:   0.000D+00 0.100D+01
 Coeff:     -0.443D+00 0.144D+01
 Gap=     0.375 Goal=   None    Shift=    0.000
 RMSDP=1.68D-03 MaxDP=1.15D-02 DE=-5.91D-03 OVMax= 9.47D-03

 Cycle   3  Pass 1  IDiag  3:
 E=-0.141301486882128     Delta-E=       -0.001010238928 Rises=F Damp=F
 DIIS: error= 3.45D-04 at cycle   3 NSaved=   3.
 NSaved= 3 IEnMin= 3 EnMin=-0.141301486882128     IErMin= 3 ErrMin= 3.45D-04
 ErrMax= 3.45D-04  0.00D+00 EMaxC= 1.00D-01 BMatC= 7.44D-06 BMatP= 2.30D-04
 IDIUse=3 WtCom= 9.97D-01 WtEn= 3.45D-03
 Coeff-Com:  0.151D+00-0.582D+00 0.143D+01
 Coeff-En:   0.000D+00 0.000D+00 0.100D+01
 Coeff:      0.150D+00-0.580D+00 0.143D+01
 Gap=     0.375 Goal=   None    Shift=    0.000
 RMSDP=3.85D-04 MaxDP=2.33D-03 DE=-1.01D-03 OVMax= 2.30D-03

 Cycle   4  Pass 1  IDiag  3:
 E=-0.141343295892042     Delta-E=       -0.000041809010 Rises=F Damp=F
 DIIS: error= 7.17D-05 at cycle   4 NSaved=   4.
 NSaved= 4 IEnMin= 4 EnMin=-0.141343295892042     IErMin= 4 ErrMin= 7.17D-05
 ErrMax= 7.17D-05  0.00D+00 EMaxC= 1.00D-01 BMatC= 3.43D-07 BMatP= 7.44D-06
 IDIUse=1 WtCom= 1.00D+00 WtEn= 0.00D+00
 Coeff-Com: -0.275D-01 0.119D+00-0.445D+00 0.135D+01
 Coeff:     -0.275D-01 0.119D+00-0.445D+00 0.135D+01
 Gap=     0.376 Goal=   None    Shift=    0.000
 RMSDP=9.00D-05 MaxDP=4.57D-04 DE=-4.18D-05 OVMax= 6.99D-04

 Cycle   5  Pass 1  IDiag  3:
 E=-0.141345569387298     Delta-E=       -0.000002273495 Rises=F Damp=F
 DIIS: error= 2.65D-05 at cycle   5 NSaved=   5.
 NSaved= 5 IEnMin= 5 EnMin=-0.141345569387298     IErMin= 5 ErrMin= 2.65D-05
 ErrMax= 2.65D-05  0.00D+00 EMaxC= 1.00D-01 BMatC= 3.47D-08 BMatP= 3.43D-07
 IDIUse=1 WtCom= 1.00D+00 WtEn= 0.00D+00
 Coeff-Com:  0.188D-02-0.126D-01 0.102D+00-0.668D+00 0.158D+01
 Coeff:      0.188D-02-0.126D-01 0.102D+00-0.668D+00 0.158D+01
 Gap=     0.376 Goal=   None    Shift=    0.000
 RMSDP=3.66D-05 MaxDP=2.37D-04 DE=-2.27D-06 OVMax= 3.49D-04

 Cycle   6  Pass 1  IDiag  3:
 E=-0.141345837588801     Delta-E=       -0.000000268202 Rises=F Damp=F
 DIIS: error= 6.54D-06 at cycle   6 NSaved=   6.
 NSaved= 6 IEnMin= 6 EnMin=-0.141345837588801     IErMin= 6 ErrMin= 6.54D-06
 ErrMax= 6.54D-06  0.00D+00 EMaxC= 1.00D-01 BMatC= 1.68D-09 BMatP= 3.47D-08
 IDIUse=1 WtCom= 1.00D+00 WtEn= 0.00D+00
 Coeff-Com:  0.424D-03 0.762D-03-0.343D-01 0.306D+00-0.890D+00 0.162D+01
 Coeff:      0.424D-03 0.762D-03-0.343D-01 0.306D+00-0.890D+00 0.162D+01
 Gap=     0.376 Goal=   None    Shift=    0.000
 RMSDP=8.34D-06 MaxDP=6.29D-05 DE=-2.68D-07 OVMax= 9.08D-05

 Cycle   7  Pass 1  IDiag  3:
 E=-0.141345850604168     Delta-E=       -0.000000013015 Rises=F Damp=F
 DIIS: error= 1.26D-06 at cycle   7 NSaved=   7.
 NSaved= 7 IEnMin= 7 EnMin=-0.141345850604168     IErMin= 7 ErrMin= 1.26D-06
 ErrMax= 1.26D-06  0.00D+00 EMaxC= 1.00D-01 BMatC= 7.10D-11 BMatP= 1.68D-09
 IDIUse=1 WtCom= 1.00D+00 WtEn= 0.00D+00
 Coeff-Com: -0.329D-03 0.941D-04 0.151D-01-0.145D+00 0.436D+00-0.914D+00
 Coeff-Com:  0.161D+01
 Coeff:     -0.329D-03 0.941D-04 0.151D-01-0.145D+00 0.436D+00-0.914D+00
 Coeff:      0.161D+01
 Gap=     0.376 Goal=   None    Shift=    0.000
 RMSDP=1.63D-06 MaxDP=1.21D-05 DE=-1.30D-08 OVMax= 1.81D-05

 Cycle   8  Pass 1  IDiag  3:
 E=-0.141345851125521     Delta-E=       -0.000000000521 Rises=F Damp=F
 DIIS: error= 2.18D-07 at cycle   8 NSaved=   8.
 NSaved= 8 IEnMin= 8 EnMin=-0.141345851125521     IErMin= 8 ErrMin= 2.18D-07
 ErrMax= 2.18D-07  0.00D+00 EMaxC= 1.00D-01 BMatC= 3.25D-12 BMatP= 7.10D-11
 IDIUse=1 WtCom= 1.00D+00 WtEn= 0.00D+00
 Coeff-Com:  0.130D-03 0.508D-04-0.745D-02 0.704D-01-0.212D+00 0.454D+00
 Coeff-Com: -0.919D+00 0.161D+01
 Coeff:      0.130D-03 0.508D-04-0.745D-02 0.704D-01-0.212D+00 0.454D+00
 Coeff:     -0.919D+00 0.161D+01
 Gap=     0.376 Goal=   None    Shift=    0.000
 RMSDP=3.38D-07 MaxDP=2.11D-06 DE=-5.21D-10 OVMax= 3.21D-06

 Cycle   9  Pass 1  IDiag  3:
 E=-0.141345851149197     Delta-E=       -0.000000000024 Rises=F Damp=F
 DIIS: error= 4.33D-08 at cycle   9 NSaved=   9.
 NSaved= 9 IEnMin= 9 EnMin=-0.141345851149197     IErMin= 9 ErrMin= 4.33D-08
 ErrMax= 4.33D-08  0.00D+00 EMaxC= 1.00D-01 BMatC= 1.60D-13 BMatP= 3.25D-12
 IDIUse=1 WtCom= 1.00D+00 WtEn= 0.00D+00
 Coeff-Com: -0.501D-04-0.366D-04 0.312D-02-0.292D-01 0.879D-01-0.189D+00
 Coeff-Com:  0.389D+00-0.807D+00 0.155D+01
 Coeff:     -0.501D-04-0.366D-04 0.312D-02-0.292D-01 0.879D-01-0.189D+00
 Coeff:      0.389D+00-0.807D+00 0.155D+01
 Gap=     0.376 Goal=   None    Shift=    0.000
 RMSDP=7.41D-08 MaxDP=4.27D-07 DE=-2.37D-11 OVMax= 5.77D-07

 Cycle  10  Pass 1  IDiag  3:
 E=-0.141345851150447     Delta-E=       -0.000000000001 Rises=F Damp=F
 DIIS: error= 1.04D-08 at cycle  10 NSaved=  10.
 NSaved=10 IEnMin=10 EnMin=-0.141345851150447     IErMin=10 ErrMin= 1.04D-08
 ErrMax= 1.04D-08  0.00D+00 EMaxC= 1.00D-01 BMatC= 7.65D-15 BMatP= 1.60D-13
 IDIUse=1 WtCom= 1.00D+00 WtEn= 0.00D+00
 Coeff-Com:  0.146D-04 0.173D-04-0.102D-02 0.948D-02-0.285D-01 0.613D-01
 Coeff-Com: -0.127D+00 0.274D+00-0.691D+00 0.150D+01
 Coeff:      0.146D-04 0.173D-04-0.102D-02 0.948D-02-0.285D-01 0.613D-01
 Coeff:     -0.127D+00 0.274D+00-0.691D+00 0.150D+01
 Gap=     0.376 Goal=   None    Shift=    0.000
 RMSDP=1.65D-08 MaxDP=9.18D-08 DE=-1.25D-12 OVMax= 1.52D-07

 Cycle  11  Pass 1  IDiag  3:
 E=-0.141345851150291     Delta-E=        0.000000000000 Rises=F Damp=F
 DIIS: error= 1.84D-09 at cycle  11 NSaved=  11.
 NSaved=11 IEnMin=10 EnMin=-0.141345851150447     IErMin=11 ErrMin= 1.84D-09
 ErrMax= 1.84D-09  0.00D+00 EMaxC= 1.00D-01 BMatC= 2.13D-16 BMatP= 7.65D-15
 IDIUse=1 WtCom= 1.00D+00 WtEn= 0.00D+00
 Coeff-Com: -0.372D-05-0.607D-05 0.287D-03-0.264D-02 0.794D-02-0.171D-01
 Coeff-Com:  0.356D-01-0.771D-01 0.209D+00-0.556D+00 0.140D+01
 Coeff:     -0.372D-05-0.607D-05 0.287D-03-0.264D-02 0.794D-02-0.171D-01
 Coeff:      0.356D-01-0.771D-01 0.209D+00-0.556D+00 0.140D+01
 Gap=     0.376 Goal=   None    Shift=    0.000
 RMSDP=2.28D-09 MaxDP=1.43D-08 DE= 1.56D-13 OVMax= 1.79D-08

 Cycle  12  Pass 2  IDiag  1:
 SCF Done:  E(RPM6) = -0.141345851150     A.U. after   12 cycles
            NFock= 11  Conv=0.23D-08     -V/T= 0.9978
 KE=-6.556198712507D+01 PE=-1.623637855585D+02 EE= 1.033658575730D+02
 Leave Link  502 at Sat Nov 25 14:41:51 2023, MaxMem=   134217728 cpu:               0.2 elap:               0.1
 (Enter /home/emanuele/chem_software/gaussian//gdv/l701.exe)
 ... and contract with generalized density number  0.
 Compute integral first derivatives.
 Leave Link  701 at Sat Nov 25 14:41:51 2023, MaxMem=   134217728 cpu:               0.2 elap:               0.1
 (Enter /home/emanuele/chem_software/gaussian//gdv/l702.exe)
 L702 exits ... SP integral derivatives will be done elsewhere.
 Leave Link  702 at Sat Nov 25 14:41:51 2023, MaxMem=   134217728 cpu:               0.1 elap:               0.0
 (Enter /home/emanuele/chem_software/gaussian//gdv/l703.exe)
 Integral derivatives from FoFJK, PRISM(SPDF).
 Compute integral first derivatives, UseDBF=F ICtDFT=           0.
 Calling FoFJK, ICntrl=      2127 FMM=F ISym2X=0 I1Cent= 0 IOpClX= 0 NMat=1 NMatS=1 NMatT=0.
 FoFJK:  IHMeth=40 ICntrl=    2127 DoSepK=F KAlg= 0 I1Cent=           0 FoldK=F
 IRaf=         0 NMat=       1 IRICut=       1 DoRegI=T DoRafI=F ISym2E= 0 IDoP0=3 IntGTp=3.
 FoFCou: FMM=F IPFlag=           0 FMFlag=      100000 FMFlg1=         800
         NFxFlg=           0 DoJE=F BraDBF=F KetDBF=F FulRan=T
         wScrn=  0.000000 ICntrl=      2127 IOpCl=  0 I1Cent=           0 NGrid=           0
         NMat0=    1 NMatS0=      1 NMatT0=    0 NMatD0=    1 NMtDS0=    0 NMtDT0=    0
 Symmetry not used in FoFCou.
 Leave Link  703 at Sat Nov 25 14:41:51 2023, MaxMem=   134217728 cpu:               0.2 elap:               0.0
 (Enter /home/emanuele/chem_software/gaussian//gdv/l716.exe)
 Dipole        = 6.16773957D-02-7.12897284D-01 7.53499753D-01
 -------------------------------------------------------------------
 Center     Atomic                   Forces (Hartrees/Bohr)
 Number     Number              X              Y              Z
 -------------------------------------------------------------------
      1        6           0.009303378    0.005489380    0.000623787
      2        8           0.007249729   -0.004859717    0.000484099
      3        6          -0.008895039    0.006689652    0.003715948
      4        1           0.001625689    0.001534178   -0.001540263
      5        1           0.001001823   -0.000534613   -0.002306925
      6        7          -0.005368616   -0.003033663   -0.003974526
      7        1          -0.002613855   -0.001842784    0.001237967
      8        1          -0.001514587   -0.000719520    0.002093973
      9        8          -0.002516138   -0.007055016   -0.000180460
     10        1           0.001727617    0.004332103   -0.000153600
 -------------------------------------------------------------------
 Cartesian Forces:  Max     0.009303378 RMS     0.004065456
 Leave Link  716 at Sat Nov 25 14:41:51 2023, MaxMem=   134217728 cpu:               0.1 elap:               0.0
 (Enter /home/emanuele/chem_software/gaussian//gdv/l103.exe)

 GradGradGradGradGradGradGradGradGradGradGradGradGradGradGradGradGradGrad
 Berny optimization.
 Using GEDIIS/GDIIS optimizer.
 FormGI is forming the generalized inverse of G from B-inverse, IUseBI=4.
 Internal  Forces:  Max     0.014261776 RMS     0.004280853
 Search for a local minimum.
 Step number   2 out of a maximum of  100 on scan point     1 out of    11
 All quantities printed in internal units (Hartrees-Bohrs-Radians)
 RMS Force = .43345D-02 SwitMx=.10000D-02 MixMth= 1
 Mixed Optimization -- RFO/linear search
 Update second derivatives using D2CorX and points    1    2
 DE= -4.37D-03 DEPred=-6.33D-03 R= 6.90D-01
 TightC=F SS=  1.41D+00  RLast= 2.40D-01 DXNew= 5.0454D-01 7.2143D-01
 Trust test= 6.90D-01 RLast= 2.40D-01 DXMaxT set to 5.05D-01
 ITU=  1  0
 Use linear search instead of GDIIS.
     Eigenvalues ---    0.00640   0.01022   0.02294   0.02342   0.04719
     Eigenvalues ---    0.06577   0.09571   0.12480   0.15731   0.16000
     Eigenvalues ---    0.17998   0.21879   0.23304   0.25176   0.32153
     Eigenvalues ---    0.33947   0.34536   0.43636   0.45786   0.46013
     Eigenvalues ---    0.53222   0.58418   1.049601000.000001000.00000
     Eigenvalues --- 1000.000001000.000001000.000001000.000001000.00000
     Eigenvalues --- 1000.000001000.000001000.000001000.000001000.00000
     Eigenvalues --- 1000.00000
 RFO step:  Lambda=-1.32427118D-03 EMin= 6.40224986D-03
 Quartic linear search produced a step of -0.20059.
 Iteration  1 RMS(Cart)=  0.03083628 RMS(Int)=  0.00044344
 Iteration  2 RMS(Cart)=  0.00052455 RMS(Int)=  0.00023842
 Iteration  3 RMS(Cart)=  0.00000014 RMS(Int)=  0.00023842
 Fixing frozen coordinates.
 Iteration  1 RMS(Cart)=  0.00003819 RMS(Int)=  0.00003837
 Iteration  2 RMS(Cart)=  0.00002108 RMS(Int)=  0.00004285
 Iteration  3 RMS(Cart)=  0.00001164 RMS(Int)=  0.00004846
 Iteration  4 RMS(Cart)=  0.00000642 RMS(Int)=  0.00005222
 Iteration  5 RMS(Cart)=  0.00000355 RMS(Int)=  0.00005445
 Iteration  6 RMS(Cart)=  0.00000196 RMS(Int)=  0.00005572
 Iteration  7 RMS(Cart)=  0.00000108 RMS(Int)=  0.00005643
 Iteration  8 RMS(Cart)=  0.00000060 RMS(Int)=  0.00005683
 ITry= 1 IFail=0 DXMaxC= 8.48D-02 DCOld= 1.00D+10 DXMaxT= 5.05D-01 DXLimC= 3.00D+00 Rises=F
 Variable       Old X    -DE/DX   Delta X   Delta X   Delta X     New X
                                 (Linear)    (Quad)   (Total)
    R1        2.59758  -0.00702  -0.00897   0.00343  -0.00554   2.59204
    R2        2.89311  -0.01426  -0.00815  -0.02386  -0.03200   2.86110
    R3        2.28581  -0.00685  -0.00253  -0.00140  -0.00394   2.28187
    R4        1.86616   0.00061  -0.00747   0.01225   0.00478   1.87094
    R5        2.11454  -0.00204  -0.00691   0.00559  -0.00132   2.11321
    R6        2.10691   0.00184  -0.00869   0.01732   0.00863   2.11554
    R7        2.82070  -0.01058  -0.01548   0.00124  -0.01425   2.80645
    R8        1.92647  -0.00118  -0.00256   0.00183  -0.00074   1.92573
    R9        1.91587  -0.00009  -0.00143   0.00201   0.00058   1.91645
    A1        1.93603  -0.00626   0.00276  -0.02380  -0.02108   1.91495
    A2        2.11413  -0.00030   0.00661  -0.01061  -0.00404   2.11009
    A3        2.23227   0.00656  -0.00932   0.03494   0.02559   2.25786
    A4        2.01833  -0.00859  -0.02946   0.00066  -0.02880   1.98953
    A5        1.87237   0.00231  -0.00658   0.02014   0.01367   1.88603
    A6        1.90585   0.00193  -0.00288   0.01296   0.00979   1.91564
    A7        1.93400  -0.00425  -0.00071  -0.01721  -0.01789   1.91611
    A8        1.84337   0.00040   0.00212   0.00888   0.01094   1.85431
    A9        2.01346   0.00028  -0.00174  -0.00074  -0.00231   2.01114
   A10        1.89088  -0.00031   0.00934  -0.02162  -0.01227   1.87861
   A11        1.96384  -0.00484  -0.00883  -0.01984  -0.02921   1.93463
   A12        1.93768  -0.00289   0.00140  -0.02537  -0.02452   1.91316
   A13        1.88820   0.00238   0.00154  -0.00670  -0.00623   1.88197
    D1        3.11127   0.00059  -0.00374   0.02488   0.02098   3.13225
    D2        0.00838   0.00023  -0.00513   0.01065   0.00568   0.01406
    D3       -1.26916  -0.00158   0.00311  -0.04839  -0.04541  -1.31456
    D4        0.72062   0.00105   0.00092  -0.02112  -0.02015   0.70047
    D5        2.80208  -0.00071   0.01018  -0.05012  -0.04001   2.76207
    D6        1.83045  -0.00140   0.00499  -0.03435  -0.02939   1.80106
    D7       -2.46296   0.00123   0.00281  -0.00709  -0.00413  -2.46709
    D8       -0.38150  -0.00054   0.01206  -0.03608  -0.02399  -0.40549
    D9        0.60481   0.00099   0.00000   0.00000   0.00000   0.60481
   D10        2.72396  -0.00143  -0.00314  -0.04089  -0.04368   2.68028
   D11       -1.52672   0.00109   0.01046  -0.01259  -0.00229  -1.52901
   D12        0.59244  -0.00134   0.00731  -0.05348  -0.04597   0.54646
   D13        2.69525   0.00061   0.00199  -0.00798  -0.00602   2.68923
   D14       -1.46878  -0.00181  -0.00116  -0.04887  -0.04971  -1.51849
         Item               Value     Threshold  Converged?
 Maximum Force            0.014262     0.000450     NO 
 RMS     Force            0.004334     0.000300     NO 
 Maximum Displacement     0.084795     0.001800     NO 
 RMS     Displacement     0.031098     0.001200     NO 
 Predicted change in Energy=-9.736356D-04
 Lowest energy point so far.  Saving SCF results.
 GradGradGradGradGradGradGradGradGradGradGradGradGradGradGradGradGradGrad

 Leave Link  103 at Sat Nov 25 14:41:51 2023, MaxMem=   134217728 cpu:               0.0 elap:               0.0
 (Enter /home/emanuele/chem_software/gaussian//gdv/l202.exe)
                          Input orientation:                          
 ---------------------------------------------------------------------
 Center     Atomic      Atomic             Coordinates (Angstroms)
 Number     Number       Type             X           Y           Z
 ---------------------------------------------------------------------
      1          6           0       -0.525927    0.146081    0.052339
      2          8           0       -1.632308   -0.651181   -0.095012
      3          6           0        0.716279   -0.715060    0.139786
      4          1           0        0.745672   -1.178952    1.156868
      5          1           0        0.641747   -1.561905   -0.588617
      6          7           0        1.911284    0.087936   -0.224511
      7          1           0        1.809085    1.052490    0.087995
      8          1           0        2.732444   -0.299476    0.227253
      9          8           0       -0.631547    1.347098    0.119377
     10          1           0       -2.484703   -0.150620   -0.150527
 ---------------------------------------------------------------------
                    Distance matrix (angstroms):
                    1          2          3          4          5
     1  C    0.000000
     2  O    1.371648   0.000000
     3  C    1.514030   2.361160   0.000000
     4  H    2.143050   2.738711   1.118264   0.000000
     5  H    2.165987   2.498878   1.119497   1.790020   0.000000
     6  N    2.453574   3.622169   1.485109   2.207230   2.113355
     7  H    2.505021   3.844369   2.078735   2.693078   2.942030
     8  H    3.293341   4.390742   2.060408   2.363244   2.574953
     9  O    1.207515   2.245129   2.463646   3.058440   3.253434
    10  H    1.991479   0.990061   3.263306   3.633466   3.458083
                    6          7          8          9         10
     6  N    0.000000
     7  H    1.019053   0.000000
     8  H    1.014141   1.643106   0.000000
     9  O    2.858276   2.458549   3.746903   0.000000
    10  H    4.403077   4.465533   5.232925   2.397956   0.000000
 Symmetry turned off by external request.
 Stoichiometry    C2H5NO2
 Framework group  C1[X(C2H5NO2)]
 Deg. of freedom    24
 Full point group                 C1      NOp   1
 Rotational constants (GHZ):          10.0475116           3.8710240           2.8909024
 Leave Link  202 at Sat Nov 25 14:41:51 2023, MaxMem=   134217728 cpu:               0.1 elap:               0.0
 (Enter /home/emanuele/chem_software/gaussian//gdv/l301.exe)
 Standard basis: VSTO-6G (5D, 7F)
 Ernie: Thresh=  0.10000D-02 Tol=  0.10000D-05 Strict=F.
  NNHCO=     0 NNPyr=     0 NCTC=     0               EPep=         0.000000000
    EC=        83.186619339  ECS=         2.151680678   EG=         0.122594987
   EHC=         0.000975035  EAt=       -38.066560349  AtH=         1.329713788
 EPDDG=         0.000000000  ECC=        85.461870038 EAtT=        39.396274136
    25 basis functions,   150 primitive gaussians,    25 cartesian basis functions
    15 alpha electrons       15 beta electrons
       nuclear repulsion energy       124.8581441748 Hartrees.
 IExCor=       0 DFT=F Ex=HF Corr=None N6=None ScaHFX=  1.000000
 ScaDFX=  1.000000  1.000000  1.000000  1.000000  1.000000  0.000000
 ScaDFX=  0.000000  0.000000  0.000000  0.000000  0.000000  0.000000
 IRadAn=      5 IRanWt=     -1 IRanGd=            0 ICorTp=0 IEmpDi=  4
 Integral buffers will be    131072 words long.
 Regular integral format.
 Two-electron integral symmetry is turned off.
 Leave Link  301 at Sat Nov 25 14:41:52 2023, MaxMem=   134217728 cpu:               0.2 elap:               0.1
 (Enter /home/emanuele/chem_software/gaussian//gdv/l302.exe)
 Do NDO integrals.
 NPDir=0 NMtPBC=     1 NCelOv=     1 NCel=       1 NClECP=     1 NCelD=      1
         NCelK=      1 NCelE2=     1 NClLst=     1 CellRange=     0.0.
 One-electron integrals computed using PRISM.
 NBasis=    25 RedAO= F EigKep=  0.00D+00  NBF=    25
 NBsUse=    25 1.00D-04 EigRej=  0.00D+00 NBFU=    25
 Leave Link  302 at Sat Nov 25 14:41:52 2023, MaxMem=   134217728 cpu:               0.3 elap:               0.1
 (Enter /home/emanuele/chem_software/gaussian//gdv/l303.exe)
 DipDrv:  MaxL=1.
 Leave Link  303 at Sat Nov 25 14:41:52 2023, MaxMem=   134217728 cpu:               0.2 elap:               0.0
 (Enter /home/emanuele/chem_software/gaussian//gdv/l401.exe)
 Initial guess from the checkpoint file:  "0_zmat_qm.chk"
 B after Tr=     0.000000    0.000000    0.000000
         Rot=    1.000000    0.000000    0.000000    0.000000 Ang=   0.00 deg.
 AO Guess basis will be translated and rotated to current coordinates.
 JPrj=0 DoOrth=T DoCkMO=T.
 Leave Link  401 at Sat Nov 25 14:41:52 2023, MaxMem=   134217728 cpu:               0.8 elap:               0.2
 (Enter /home/emanuele/chem_software/gaussian//gdv/l502.exe)
 Keep J ints in memory in canonical form, NReq=861126.
 FoFCou: FMM=F IPFlag=           0 FMFlag=           0 FMFlg1=           0
         NFxFlg=           0 DoJE=F BraDBF=F KetDBF=F FulRan=T
         wScrn=  0.000000 ICntrl=       600 IOpCl=  2 I1Cent=           0 NGrid=           0
         NMat0=    1 NMatS0=     55 NMatT0=    0 NMatD0=    1 NMtDS0=    0 NMtDT0=    0
 Symmetry not used in FoFCou.
 Two-electron integral symmetry not used.
 Closed shell SCF:
 Using DIIS extrapolation, IDIIS=  1040.
 Overlap will be assumed to be unity.
 NGot=   134217728 LenX=   134155015 LenY=   134153949
 Requested convergence on RMS density matrix=1.00D-08 within 128 cycles.
 Requested convergence on MAX density matrix=1.00D-06.
 Requested convergence on             energy=1.00D-06.
 No special actions if energy rises.

 Cycle   1  Pass 1  IDiag  1:
 E=-0.141305384193927    
 DIIS: error= 2.10D-03 at cycle   1 NSaved=   1.
 NSaved= 1 IEnMin= 1 EnMin=-0.141305384193927     IErMin= 1 ErrMin= 2.10D-03
 ErrMax= 2.10D-03  0.00D+00 EMaxC= 1.00D-01 BMatC= 2.61D-04 BMatP= 2.61D-04
 IDIUse=3 WtCom= 9.79D-01 WtEn= 2.10D-02
 Coeff-Com:  0.100D+01
 Coeff-En:   0.100D+01
 Coeff:      0.100D+01
 GapD=    2.000 DampG=2.000 DampE=1.000 DampFc=2.0000 IDamp=-1.
 RMSDP=1.20D-03 MaxDP=6.37D-03              OVMax= 0.00D+00

 Cycle   2  Pass 1  IDiag  3:
 E=-0.142227307461326     Delta-E=       -0.000921923267 Rises=F Damp=F
 DIIS: error= 8.51D-04 at cycle   2 NSaved=   2.
 NSaved= 2 IEnMin= 2 EnMin=-0.142227307461326     IErMin= 2 ErrMin= 8.51D-04
 ErrMax= 8.51D-04  0.00D+00 EMaxC= 1.00D-01 BMatC= 3.88D-05 BMatP= 2.61D-04
 IDIUse=3 WtCom= 9.91D-01 WtEn= 8.51D-03
 Coeff-Com: -0.553D+00 0.155D+01
 Coeff-En:   0.000D+00 0.100D+01
 Coeff:     -0.548D+00 0.155D+01
 Gap=     0.378 Goal=   None    Shift=    0.000
 RMSDP=8.09D-04 MaxDP=4.93D-03 DE=-9.22D-04 OVMax= 5.09D-03

 Cycle   3  Pass 1  IDiag  3:
 E=-0.142423457639893     Delta-E=       -0.000196150179 Rises=F Damp=F
 DIIS: error= 1.71D-04 at cycle   3 NSaved=   3.
 NSaved= 3 IEnMin= 3 EnMin=-0.142423457639893     IErMin= 3 ErrMin= 1.71D-04
 ErrMax= 1.71D-04  0.00D+00 EMaxC= 1.00D-01 BMatC= 1.13D-06 BMatP= 3.88D-05
 IDIUse=3 WtCom= 9.98D-01 WtEn= 1.71D-03
 Coeff-Com:  0.258D+00-0.810D+00 0.155D+01
 Coeff-En:   0.000D+00 0.000D+00 0.100D+01
 Coeff:      0.258D+00-0.808D+00 0.155D+01
 Gap=     0.378 Goal=   None    Shift=    0.000
 RMSDP=1.80D-04 MaxDP=1.24D-03 DE=-1.96D-04 OVMax= 1.14D-03

 Cycle   4  Pass 1  IDiag  3:
 E=-0.142430872711373     Delta-E=       -0.000007415071 Rises=F Damp=F
 DIIS: error= 3.10D-05 at cycle   4 NSaved=   4.
 NSaved= 4 IEnMin= 4 EnMin=-0.142430872711373     IErMin= 4 ErrMin= 3.10D-05
 ErrMax= 3.10D-05  0.00D+00 EMaxC= 1.00D-01 BMatC= 4.92D-08 BMatP= 1.13D-06
 IDIUse=1 WtCom= 1.00D+00 WtEn= 0.00D+00
 Coeff-Com: -0.137D+00 0.434D+00-0.923D+00 0.163D+01
 Coeff:     -0.137D+00 0.434D+00-0.923D+00 0.163D+01
 Gap=     0.378 Goal=   None    Shift=    0.000
 RMSDP=4.06D-05 MaxDP=2.59D-04 DE=-7.42D-06 OVMax= 3.67D-04

 Cycle   5  Pass 1  IDiag  3:
 E=-0.142431239134183     Delta-E=       -0.000000366423 Rises=F Damp=F
 DIIS: error= 8.76D-06 at cycle   5 NSaved=   5.
 NSaved= 5 IEnMin= 5 EnMin=-0.142431239134183     IErMin= 5 ErrMin= 8.76D-06
 ErrMax= 8.76D-06  0.00D+00 EMaxC= 1.00D-01 BMatC= 3.17D-09 BMatP= 4.92D-08
 IDIUse=1 WtCom= 1.00D+00 WtEn= 0.00D+00
 Coeff-Com:  0.442D-01-0.141D+00 0.310D+00-0.737D+00 0.152D+01
 Coeff:      0.442D-01-0.141D+00 0.310D+00-0.737D+00 0.152D+01
 Gap=     0.378 Goal=   None    Shift=    0.000
 RMSDP=1.13D-05 MaxDP=8.36D-05 DE=-3.66D-07 OVMax= 1.20D-04

 Cycle   6  Pass 1  IDiag  3:
 E=-0.142431263860658     Delta-E=       -0.000000024726 Rises=F Damp=F
 DIIS: error= 1.76D-06 at cycle   6 NSaved=   6.
 NSaved= 6 IEnMin= 6 EnMin=-0.142431263860658     IErMin= 6 ErrMin= 1.76D-06
 ErrMax= 1.76D-06  0.00D+00 EMaxC= 1.00D-01 BMatC= 1.87D-10 BMatP= 3.17D-09
 IDIUse=1 WtCom= 1.00D+00 WtEn= 0.00D+00
 Coeff-Com: -0.957D-02 0.307D-01-0.690D-01 0.205D+00-0.652D+00 0.149D+01
 Coeff:     -0.957D-02 0.307D-01-0.690D-01 0.205D+00-0.652D+00 0.149D+01
 Gap=     0.378 Goal=   None    Shift=    0.000
 RMSDP=2.50D-06 MaxDP=1.74D-05 DE=-2.47D-08 OVMax= 2.76D-05

 Cycle   7  Pass 1  IDiag  3:
 E=-0.142431265157725     Delta-E=       -0.000000001297 Rises=F Damp=F
 DIIS: error= 3.21D-07 at cycle   7 NSaved=   7.
 NSaved= 7 IEnMin= 7 EnMin=-0.142431265157725     IErMin= 7 ErrMin= 3.21D-07
 ErrMax= 3.21D-07  0.00D+00 EMaxC= 1.00D-01 BMatC= 8.91D-12 BMatP= 1.87D-10
 IDIUse=1 WtCom= 1.00D+00 WtEn= 0.00D+00
 Coeff-Com:  0.107D-02-0.349D-02 0.835D-02-0.350D-01 0.156D+00-0.541D+00
 Coeff-Com:  0.141D+01
 Coeff:      0.107D-02-0.349D-02 0.835D-02-0.350D-01 0.156D+00-0.541D+00
 Coeff:      0.141D+01
 Gap=     0.378 Goal=   None    Shift=    0.000
 RMSDP=4.96D-07 MaxDP=2.55D-06 DE=-1.30D-09 OVMax= 4.67D-06

 Cycle   8  Pass 1  IDiag  3:
 E=-0.142431265217070     Delta-E=       -0.000000000059 Rises=F Damp=F
 DIIS: error= 1.17D-07 at cycle   8 NSaved=   8.
 NSaved= 8 IEnMin= 8 EnMin=-0.142431265217070     IErMin= 8 ErrMin= 1.17D-07
 ErrMax= 1.17D-07  0.00D+00 EMaxC= 1.00D-01 BMatC= 6.14D-13 BMatP= 8.91D-12
 IDIUse=1 WtCom= 1.00D+00 WtEn= 0.00D+00
 Coeff-Com:  0.243D-03-0.748D-03 0.138D-02 0.193D-02-0.315D-01 0.166D+00
 Coeff-Com: -0.680D+00 0.154D+01
 Coeff:      0.243D-03-0.748D-03 0.138D-02 0.193D-02-0.315D-01 0.166D+00
 Coeff:     -0.680D+00 0.154D+01
 Gap=     0.378 Goal=   None    Shift=    0.000
 RMSDP=1.41D-07 MaxDP=9.17D-07 DE=-5.93D-11 OVMax= 9.61D-07

 Cycle   9  Pass 1  IDiag  3:
 E=-0.142431265221134     Delta-E=       -0.000000000004 Rises=F Damp=F
 DIIS: error= 2.16D-08 at cycle   9 NSaved=   9.
 NSaved= 9 IEnMin= 9 EnMin=-0.142431265221134     IErMin= 9 ErrMin= 2.16D-08
 ErrMax= 2.16D-08  0.00D+00 EMaxC= 1.00D-01 BMatC= 2.59D-14 BMatP= 6.14D-13
 IDIUse=1 WtCom= 1.00D+00 WtEn= 0.00D+00
 Coeff-Com: -0.133D-03 0.413D-03-0.806D-03-0.135D-04 0.102D-01-0.617D-01
 Coeff-Com:  0.281D+00-0.780D+00 0.155D+01
 Coeff:     -0.133D-03 0.413D-03-0.806D-03-0.135D-04 0.102D-01-0.617D-01
 Coeff:      0.281D+00-0.780D+00 0.155D+01
 Gap=     0.378 Goal=   None    Shift=    0.000
 RMSDP=2.91D-08 MaxDP=1.99D-07 DE=-4.06D-12 OVMax= 1.99D-07

 Cycle  10  Pass 1  IDiag  3:
 E=-0.142431265221404     Delta-E=       -0.000000000000 Rises=F Damp=F
 DIIS: error= 4.77D-09 at cycle  10 NSaved=  10.
 NSaved=10 IEnMin=10 EnMin=-0.142431265221404     IErMin=10 ErrMin= 4.77D-09
 ErrMax= 4.77D-09  0.00D+00 EMaxC= 1.00D-01 BMatC= 8.99D-16 BMatP= 2.59D-14
 IDIUse=1 WtCom= 1.00D+00 WtEn= 0.00D+00
 Coeff-Com:  0.466D-04-0.145D-03 0.287D-03-0.612D-04-0.320D-02 0.202D-01
 Coeff-Com: -0.945D-01 0.275D+00-0.665D+00 0.147D+01
 Coeff:      0.466D-04-0.145D-03 0.287D-03-0.612D-04-0.320D-02 0.202D-01
 Coeff:     -0.945D-01 0.275D+00-0.665D+00 0.147D+01
 Gap=     0.378 Goal=   None    Shift=    0.000
 RMSDP=4.96D-09 MaxDP=2.56D-08 DE=-2.70D-13 OVMax= 3.20D-08

 Cycle  11  Pass 2  IDiag  1:
 SCF Done:  E(RPM6) = -0.142431265221     A.U. after   11 cycles
            NFock= 10  Conv=0.50D-08     -V/T= 0.9978
 KE=-6.557083790292D+01 PE=-1.631771063987D+02 EE= 1.037473688616D+02
 Leave Link  502 at Sat Nov 25 14:41:52 2023, MaxMem=   134217728 cpu:               0.2 elap:               0.0
 (Enter /home/emanuele/chem_software/gaussian//gdv/l701.exe)
 ... and contract with generalized density number  0.
 Compute integral first derivatives.
 Leave Link  701 at Sat Nov 25 14:41:52 2023, MaxMem=   134217728 cpu:               0.2 elap:               0.1
 (Enter /home/emanuele/chem_software/gaussian//gdv/l702.exe)
 L702 exits ... SP integral derivatives will be done elsewhere.
 Leave Link  702 at Sat Nov 25 14:41:52 2023, MaxMem=   134217728 cpu:               0.2 elap:               0.0
 (Enter /home/emanuele/chem_software/gaussian//gdv/l703.exe)
 Integral derivatives from FoFJK, PRISM(SPDF).
 Compute integral first derivatives, UseDBF=F ICtDFT=           0.
 Calling FoFJK, ICntrl=      2127 FMM=F ISym2X=0 I1Cent= 0 IOpClX= 0 NMat=1 NMatS=1 NMatT=0.
 FoFJK:  IHMeth=40 ICntrl=    2127 DoSepK=F KAlg= 0 I1Cent=           0 FoldK=F
 IRaf=         0 NMat=       1 IRICut=       1 DoRegI=T DoRafI=F ISym2E= 0 IDoP0=3 IntGTp=3.
 FoFCou: FMM=F IPFlag=           0 FMFlag=      100000 FMFlg1=         800
         NFxFlg=           0 DoJE=F BraDBF=F KetDBF=F FulRan=T
         wScrn=  0.000000 ICntrl=      2127 IOpCl=  0 I1Cent=           0 NGrid=           0
         NMat0=    1 NMatS0=      1 NMatT0=    0 NMatD0=    1 NMtDS0=    0 NMtDT0=    0
 Symmetry not used in FoFCou.
 Leave Link  703 at Sat Nov 25 14:41:52 2023, MaxMem=   134217728 cpu:               0.1 elap:               0.0
 (Enter /home/emanuele/chem_software/gaussian//gdv/l716.exe)
 Dipole        = 6.31624246D-02-6.95348249D-01 7.58700566D-01
 -------------------------------------------------------------------
 Center     Atomic                   Forces (Hartrees/Bohr)
 Number     Number              X              Y              Z
 -------------------------------------------------------------------
      1        6           0.002939843    0.002765813   -0.000858122
      2        8           0.000863330   -0.003284338    0.000145327
      3        6          -0.005469725    0.000563157    0.002533598
      4        1           0.000789873    0.000295509   -0.001437099
      5        1          -0.000209643   -0.000634263   -0.000515826
      6        7           0.000894620   -0.001112056   -0.001049782
      7        1           0.000378095    0.000994348    0.000065602
      8        1           0.001463922    0.000526404    0.000624392
      9        8          -0.001241810   -0.002114249    0.000647784
     10        1          -0.000408506    0.001999674   -0.000155872
 -------------------------------------------------------------------
 Cartesian Forces:  Max     0.005469725 RMS     0.001697368
 Leave Link  716 at Sat Nov 25 14:41:52 2023, MaxMem=   134217728 cpu:               0.1 elap:               0.0
 (Enter /home/emanuele/chem_software/gaussian//gdv/l103.exe)

 GradGradGradGradGradGradGradGradGradGradGradGradGradGradGradGradGradGrad
 Berny optimization.
 Using GEDIIS/GDIIS optimizer.
 FormGI is forming the generalized inverse of G from B-inverse, IUseBI=4.
 Internal  Forces:  Max     0.002813137 RMS     0.001112116
 Search for a local minimum.
 Step number   3 out of a maximum of  100 on scan point     1 out of    11
 All quantities printed in internal units (Hartrees-Bohrs-Radians)
 RMS Force = .11278D-02 SwitMx=.10000D-02 MixMth= 1
 Mixed Optimization -- RFO/linear search
 Update second derivatives using D2CorX and points    1    2    3
 DE= -1.09D-03 DEPred=-9.74D-04 R= 1.11D+00
 TightC=F SS=  1.41D+00  RLast= 1.35D-01 DXNew= 8.4853D-01 4.0497D-01
 Trust test= 1.11D+00 RLast= 1.35D-01 DXMaxT set to 5.05D-01
 ITU=  1  1  0
 Use linear search instead of GDIIS.
     Eigenvalues ---    0.00622   0.01018   0.02306   0.02387   0.04969
     Eigenvalues ---    0.06727   0.09229   0.12460   0.15976   0.16692
     Eigenvalues ---    0.17201   0.20285   0.22833   0.25176   0.30855
     Eigenvalues ---    0.33788   0.34454   0.44116   0.45781   0.47389
     Eigenvalues ---    0.53068   0.59348   1.039151000.000001000.00000
     Eigenvalues --- 1000.000001000.000001000.000001000.000001000.00000
     Eigenvalues --- 1000.000001000.000001000.000001000.000001000.00000
     Eigenvalues --- 1000.00000
 RFO step:  Lambda=-3.10160897D-04 EMin= 6.21609014D-03
 Quartic linear search produced a step of  0.11972.
 Iteration  1 RMS(Cart)=  0.02305180 RMS(Int)=  0.00039768
 Iteration  2 RMS(Cart)=  0.00043107 RMS(Int)=  0.00007863
 Iteration  3 RMS(Cart)=  0.00000022 RMS(Int)=  0.00007863
 Fixing frozen coordinates.
 Iteration  1 RMS(Cart)=  0.00000554 RMS(Int)=  0.00000558
 Iteration  2 RMS(Cart)=  0.00000306 RMS(Int)=  0.00000623
 Iteration  3 RMS(Cart)=  0.00000169 RMS(Int)=  0.00000705
 Iteration  4 RMS(Cart)=  0.00000093 RMS(Int)=  0.00000759
 ITry= 1 IFail=0 DXMaxC= 8.56D-02 DCOld= 1.00D+10 DXMaxT= 5.05D-01 DXLimC= 3.00D+00 Rises=F
 Variable       Old X    -DE/DX   Delta X   Delta X   Delta X     New X
                                 (Linear)    (Quad)   (Total)
    R1        2.59204   0.00038  -0.00066   0.00217   0.00151   2.59355
    R2        2.86110  -0.00211  -0.00383  -0.00772  -0.01156   2.84955
    R3        2.28187  -0.00196  -0.00047  -0.00190  -0.00237   2.27950
    R4        1.87094   0.00137   0.00057   0.00450   0.00507   1.87602
    R5        2.11321  -0.00141  -0.00016  -0.00367  -0.00383   2.10938
    R6        2.11554   0.00083   0.00103   0.00468   0.00571   2.12125
    R7        2.80645   0.00251  -0.00171   0.00974   0.00804   2.81449
    R8        1.92573   0.00092  -0.00009   0.00277   0.00268   1.92841
    R9        1.91645   0.00126   0.00007   0.00345   0.00352   1.91997
    A1        1.91495  -0.00139  -0.00252  -0.00806  -0.01076   1.90419
    A2        2.11009  -0.00082  -0.00048  -0.00537  -0.00602   2.10406
    A3        2.25786   0.00220   0.00306   0.01262   0.01550   2.27336
    A4        1.98953  -0.00281  -0.00345  -0.01661  -0.02006   1.96948
    A5        1.88603   0.00023   0.00164   0.00945   0.01108   1.89711
    A6        1.91564  -0.00049   0.00117  -0.00436  -0.00321   1.91242
    A7        1.91611   0.00131  -0.00214   0.00748   0.00531   1.92142
    A8        1.85431   0.00006   0.00131  -0.00301  -0.00174   1.85256
    A9        2.01114  -0.00074  -0.00028  -0.00294  -0.00328   2.00787
   A10        1.87861  -0.00043  -0.00147  -0.00738  -0.00886   1.86975
   A11        1.93463   0.00059  -0.00350   0.00406   0.00050   1.93513
   A12        1.91316   0.00135  -0.00294   0.00809   0.00509   1.91825
   A13        1.88197  -0.00088  -0.00075  -0.00744  -0.00832   1.87365
    D1        3.13225   0.00006   0.00251  -0.00715  -0.00445   3.12780
    D2        0.01406   0.00031   0.00068   0.02589   0.02637   0.04043
    D3       -1.31456  -0.00005  -0.00544  -0.02096  -0.02632  -1.34088
    D4        0.70047  -0.00011  -0.00241  -0.02163  -0.02398   0.67649
    D5        2.76207  -0.00015  -0.00479  -0.02877  -0.03355   2.72853
    D6        1.80106  -0.00039  -0.00352  -0.05798  -0.06153   1.73953
    D7       -2.46709  -0.00045  -0.00050  -0.05866  -0.05920  -2.52629
    D8       -0.40549  -0.00049  -0.00287  -0.06580  -0.06876  -0.47425
    D9        0.60481   0.00005   0.00000   0.00000  -0.00000   0.60481
   D10        2.68028   0.00019  -0.00523  -0.00157  -0.00676   2.67352
   D11       -1.52901  -0.00074  -0.00027  -0.01622  -0.01648  -1.54549
   D12        0.54646  -0.00060  -0.00550  -0.01778  -0.02324   0.52322
   D13        2.68923  -0.00005  -0.00072  -0.00538  -0.00612   2.68311
   D14       -1.51849   0.00008  -0.00595  -0.00695  -0.01288  -1.53136
         Item               Value     Threshold  Converged?
 Maximum Force            0.002813     0.000450     NO 
 RMS     Force            0.001128     0.000300     NO 
 Maximum Displacement     0.085649     0.001800     NO 
 RMS     Displacement     0.023170     0.001200     NO 
 Predicted change in Energy=-1.768112D-04
 Lowest energy point so far.  Saving SCF results.
 GradGradGradGradGradGradGradGradGradGradGradGradGradGradGradGradGradGrad

 Leave Link  103 at Sat Nov 25 14:41:52 2023, MaxMem=   134217728 cpu:               0.0 elap:               0.0
 (Enter /home/emanuele/chem_software/gaussian//gdv/l202.exe)
                          Input orientation:                          
 ---------------------------------------------------------------------
 Center     Atomic      Atomic             Coordinates (Angstroms)
 Number     Number       Type             X           Y           Z
 ---------------------------------------------------------------------
      1          6           0       -0.525858    0.149404    0.055559
      2          8           0       -1.622686   -0.657562   -0.115869
      3          6           0        0.709459   -0.710266    0.149190
      4          1           0        0.749800   -1.169189    1.165923
      5          1           0        0.629501   -1.563743   -0.575538
      6          7           0        1.912578    0.079492   -0.234197
      7          1           0        1.819574    1.051245    0.063133
      8          1           0        2.736066   -0.300129    0.224082
      9          8           0       -0.654389    1.343821    0.164701
     10          1           0       -2.472021   -0.146660   -0.172031
 ---------------------------------------------------------------------
                    Distance matrix (angstroms):
                    1          2          3          4          5
     1  C    0.000000
     2  O    1.372448   0.000000
     3  C    1.507915   2.347751   0.000000
     4  H    2.144504   2.744712   1.116236   0.000000
     5  H    2.160558   2.470791   1.122519   1.789646   0.000000
     6  N    2.456587   3.613218   1.489362   2.207168   2.112587
     7  H    2.512853   3.847236   2.083911   2.700164   2.943186
     8  H    3.297064   4.386576   2.069048   2.363807   2.583357
     9  O    1.206261   2.240950   2.465684   3.047853   3.263473
    10  H    1.981666   0.992746   3.246945   3.635357   3.433712
                    6          7          8          9         10
     6  N    0.000000
     7  H    1.020470   0.000000
     8  H    1.016004   1.640754   0.000000
     9  O    2.889112   2.493273   3.768459   0.000000
    10  H    4.390868   4.461846   5.225384   2.374597   0.000000
 Symmetry turned off by external request.
[...]
    A2        2.09447   0.00000  -0.00000   0.00001   0.00001   2.09448
    A3        2.25598  -0.00001   0.00002  -0.00004  -0.00002   2.25596
    A4        1.96659   0.00000   0.00001  -0.00003  -0.00002   1.96657
    A5        1.89074   0.00010   0.00004   0.00006   0.00010   1.89084
    A6        1.89013  -0.00011   0.00003  -0.00007  -0.00004   1.89009
    A7        1.95515   0.00001  -0.00003   0.00004   0.00001   1.95516
    A8        1.86062  -0.00000  -0.00003  -0.00001  -0.00004   1.86058
    A9        1.99519  -0.00000   0.00001  -0.00006  -0.00004   1.99515
   A10        1.86704  -0.00001  -0.00002   0.00003   0.00001   1.86705
   A11        1.93185  -0.00004  -0.00004   0.00003  -0.00001   1.93184
   A12        1.91510  -0.00006   0.00000  -0.00010  -0.00010   1.91501
   A13        1.86778  -0.00007  -0.00002   0.00006   0.00004   1.86782
    D1        3.12052   0.00000   0.00001   0.00005   0.00006   3.12058
    D2       -0.06018   0.00000   0.00006   0.00001   0.00007  -0.06012
    D3        1.42380   0.00003  -0.00029  -0.00002  -0.00031   1.42349
    D4       -2.84781   0.00002  -0.00029  -0.00004  -0.00033  -2.84813
    D5       -0.79291  -0.00005  -0.00031  -0.00002  -0.00034  -0.79324
    D6       -1.67405   0.00003  -0.00034   0.00003  -0.00032  -1.67437
    D7        0.33753   0.00002  -0.00034   0.00001  -0.00033   0.33719
    D8        2.39242  -0.00005  -0.00037   0.00002  -0.00034   2.39208
    D9        0.60482   0.00026  -0.00000   0.00000  -0.00000   0.60482
   D10        2.66232   0.00011  -0.00005   0.00003  -0.00002   2.66230
   D11       -1.55440   0.00012  -0.00003  -0.00007  -0.00011  -1.55451
   D12        0.50310  -0.00003  -0.00008  -0.00004  -0.00013   0.50297
   D13        2.67344   0.00013   0.00001  -0.00005  -0.00004   2.67340
   D14       -1.55225  -0.00002  -0.00004  -0.00001  -0.00006  -1.55230
         Item               Value     Threshold  Converged?
 Maximum Force            0.000020     0.000450     YES
 RMS     Force            0.000007     0.000300     YES
 Maximum Displacement     0.000523     0.001800     YES
 RMS     Displacement     0.000170     0.001200     YES
 Predicted change in Energy=-3.366213D-09
 Optimization completed.
    -- Stationary point found.
                           ----------------------------
                           !   Optimized Parameters   !
                           ! (Angstroms and Degrees)  !
 --------------------------                            --------------------------
 ! Name  Definition              Value          Derivative Info.                !
 --------------------------------------------------------------------------------
 ! R1    R(1,2)                  1.3788         -DE/DX =    0.0                 !
 ! R2    R(1,3)                  1.5096         -DE/DX =    0.0                 !
 ! R3    R(1,9)                  1.205          -DE/DX =    0.0                 !
 ! R4    R(2,10)                 0.9949         -DE/DX =    0.0                 !
 ! R5    R(3,4)                  1.1155         -DE/DX =    0.0                 !
 ! R6    R(3,5)                  1.1229         -DE/DX =    0.0                 !
 ! R7    R(3,6)                  1.4896         -DE/DX =    0.0                 !
 ! R8    R(6,7)                  1.0202         -DE/DX =    0.0                 !
 ! R9    R(6,8)                  1.0167         -DE/DX =    0.0                 !
 ! A1    A(2,1,3)              110.6915         -DE/DX =    0.0                 !
 ! A2    A(2,1,9)              120.0044         -DE/DX =    0.0                 !
 ! A3    A(3,1,9)              129.2582         -DE/DX =    0.0                 !
 ! A4    A(1,2,10)             112.6775         -DE/DX =    0.0                 !
 ! A5    A(1,3,4)              108.3314         -DE/DX =    0.0001              !
 ! A6    A(1,3,5)              108.2963         -DE/DX =   -0.0001              !
 ! A7    A(1,3,6)              112.0216         -DE/DX =    0.0                 !
 ! A8    A(4,3,5)              106.6058         -DE/DX =    0.0                 !
 ! A9    A(4,3,6)              114.3159         -DE/DX =    0.0                 !
 ! A10   A(5,3,6)              106.9738         -DE/DX =    0.0                 !
 ! A11   A(3,6,7)              110.6871         -DE/DX =    0.0                 !
 ! A12   A(3,6,8)              109.7272         -DE/DX =   -0.0001              !
 ! A13   A(7,6,8)              107.0158         -DE/DX =   -0.0001              !
 ! D1    D(3,1,2,10)           178.7925         -DE/DX =    0.0                 !
 ! D2    D(9,1,2,10)            -3.4481         -DE/DX =    0.0                 !
 ! D3    D(2,1,3,4)             81.5778         -DE/DX =    0.0                 !
 ! D4    D(2,1,3,5)           -163.1673         -DE/DX =    0.0                 !
 ! D5    D(2,1,3,6)            -45.4304         -DE/DX =   -0.0001              !
 ! D6    D(9,1,3,4)            -95.9161         -DE/DX =    0.0                 !
 ! D7    D(9,1,3,5)             19.3389         -DE/DX =    0.0                 !
 ! D8    D(9,1,3,6)            137.0758         -DE/DX =   -0.0001              !
 ! D9    D(1,3,6,7)             34.6535         -DE/DX =    0.0003              !
 ! D10   D(1,3,6,8)            152.5395         -DE/DX =    0.0001              !
 ! D11   D(4,3,6,7)            -89.0606         -DE/DX =    0.0001              !
 ! D12   D(4,3,6,8)             28.8254         -DE/DX =    0.0                 !
 ! D13   D(5,3,6,7)            153.1768         -DE/DX =    0.0001              !
 ! D14   D(5,3,6,8)            -88.9371         -DE/DX =    0.0                 !
 --------------------------------------------------------------------------------
 Lowest energy point so far.  Saving SCF results.
 Summary of Optimized Potential Surface Scan (add -0.0 to energies):
                           1         2         3         4         5
     Eigenvalues --    -0.14270  -0.14259  -0.14177  -0.14171  -0.14214
           R1           1.37429   1.37565   1.37726   1.37776   1.37806
           R2           1.50917   1.51513   1.52089   1.52004   1.51399
           R3           1.20674   1.20525   1.20414   1.20387   1.20435
           R4           0.99587   0.99471   0.99352   0.99364   0.99457
           R5           1.11492   1.11436   1.11297   1.11535   1.11938
           R6           1.12235   1.11927   1.11547   1.11342   1.11458
           R7           1.48899   1.48484   1.48231   1.48311   1.48698
           R8           1.02103   1.01787   1.01395   1.01333   1.01595
           R9           1.01663   1.01539   1.01335   1.01467   1.01922
           A1         109.51426 109.26946 109.19178 109.40550 109.91452
           A2         120.52313 120.46861 120.39597 120.37188 120.28066
           A3         129.93395 130.21090 130.37278 130.18641 129.75355
           A4         112.79624 112.93418 112.96369 112.86687 112.74120
           A5         108.59197 108.47671 108.44401 108.16060 108.45324
           A6         109.79764 109.72487 109.47220 109.66899 108.95066
           A7         110.04401 107.00876 105.24778 105.65348 108.41523
           A8         106.17481 106.93840 107.21311 107.42560 107.25235
           A9         114.79121 115.43007 114.24511 111.28084 108.55854
           A10        107.30562 109.19744 112.11294 114.49959 115.04114
           A11        110.75648 110.73933 111.35459 111.14950 110.05690
           A12        109.82203 110.30536 111.18876 111.04390 110.26266
           A13        107.11820 107.88934 108.58104 108.80236 107.72453
           D1         179.74016-179.40946-177.73606-177.27126-178.02138
           D2           1.50121   2.93303   4.32050   4.70229   4.33702
           D3         -85.59953-108.44397-130.50607-154.34404 179.15306
           D4          30.08772   8.05164 -13.83966 -37.47559 -64.41393
           D5         147.98403 126.40946 106.83875  86.40772  61.45992
           D6          92.42198  68.91200  47.16538  23.42703  -3.49625
           D7        -151.89076-174.59238 163.83179 140.29548 112.93676
           D8         -33.99445 -56.23456 -75.48980 -95.82121-121.18938
           D9          34.65332  70.65326 106.65338 142.65329 178.65330
           D10        152.76623-169.98405-132.11454 -96.07347 -62.64439
           D11        -88.19023 -50.17183 -12.18939  25.49083  61.02741
           D12         29.92268  69.19086 109.04269 146.76406 179.72971
           D13        154.07978-170.64609-134.41904 -96.56068 -59.11523
           D14        -87.80731 -51.28339 -13.18696  24.71255  59.58707
                           6         7         8         9        10
     Eigenvalues --    -0.14178  -0.14373  -0.14691  -0.14646  -0.14305
           R1           1.37882   1.37823   1.37855   1.37876   1.37872
           R2           1.50907   1.51098   1.51506   1.51360   1.50937
           R3           1.20524   1.20618   1.20584   1.20577   1.20590
           R4           0.99499   0.99511   0.99476   0.99481   0.99505
           R5           1.12373   1.12647   1.12271   1.11738   1.11492
           R6           1.11536   1.11521   1.11827   1.12387   1.12636
           R7           1.48980   1.48153   1.47453   1.47751   1.48646
           R8           1.01692   1.01524   1.01688   1.02006   1.02050
           R9           1.02026   1.01747   1.01792   1.01865   1.01847
           A1         110.88824 111.45823 110.92129 110.97028 111.35878
           A2         119.94589 119.78090 119.84883 119.83840 119.79649
           A3         129.12782 128.75997 129.22939 129.19093 128.83923
           A4         112.66560 112.64057 112.70499 112.71338 112.65931
           A5         108.11741 106.98682 107.60139 108.89071 108.84922
           A6         108.33503 108.91938 108.65388 107.42122 107.22840
           A7         112.93299 116.33208 116.77838 116.86303 115.95262
           A8         106.37230 105.24695 105.10020 105.01622 105.35941
           A9         106.68935 106.54623 108.14104 110.31891 112.50302
           A10        114.02906 112.07400 109.91520 107.63475 106.24791
           A11        109.70961 110.70709 110.77657 110.54563 110.92062
           A12        110.82316 111.62825 110.92648 110.20151 109.76089
           A13        106.77620 108.04440 107.36962 105.77816 105.46962
           D1        -178.86262-178.76275-179.40609 179.18625 178.80764
           D2           3.18142   1.55289   0.36059  -0.60693  -1.97157
           D3         159.36930 136.32077 123.06241 121.31999 103.92724
           D4         -85.74103-110.38926-123.63710-125.45244-142.56379
           D5          41.56022  17.41007   1.32740  -4.46440 -24.09254
           D6         -22.91401 -44.03055 -56.67635 -58.91148 -75.20462
           D7          91.97566  69.25942  56.62414  54.31609  38.30434
           D8        -140.72308-162.94126-178.41135 175.30413 156.77559
           D9        -145.34673-109.34650 -73.34658 -37.34675  -1.34669
           D10        -27.68368  11.05832  45.79210  79.22551 114.80524
           D11         96.01027 131.50362 165.20133-162.41603-127.54330
           D12       -146.32669-108.09156 -75.65999 -45.84377 -11.39137
           D13        -21.11018  16.88858  50.97924  83.52874 117.66227
           D14         96.55286 137.29340 170.11793-159.89900-126.18580
                          11
     Eigenvalues --    -0.14181
           R1           1.37877
           R2           1.50963
           R3           1.20504
           R4           0.99489
           R5           1.11548
           R6           1.12286
           R7           1.48964
           R8           1.02024
           R9           1.01675
           A1         110.69151
           A2         120.00444
           A3         129.25820
           A4         112.67745
           A5         108.33145
           A6         108.29635
           A7         112.02158
           A8         106.60583
           A9         114.31589
           A10        106.97379
           A11        110.68706
           A12        109.72725
           A13        107.01585
           D1         178.79255
           D2          -3.44812
           D3          81.57778
           D4        -163.16726
           D5         -45.43036
           D6         -95.91608
           D7          19.33889
           D8         137.07578
           D9          34.65350
           D10        152.53954
           D11        -89.06063
           D12         28.82541
           D13        153.17682
           D14        -88.93713
 Largest change from initial coordinates is atom    9       1.371 Angstoms.
 GradGradGradGradGradGradGradGradGradGradGradGradGradGradGradGradGradGrad

 Leave Link  103 at Sat Nov 25 14:42:50 2023, MaxMem=   134217728 cpu:               0.0 elap:               0.0
 (Enter /home/emanuele/chem_software/gaussian//gdv/l202.exe)
                          Input orientation:                          
 ---------------------------------------------------------------------
 Center     Atomic      Atomic             Coordinates (Angstroms)
 Number     Number       Type             X           Y           Z
 ---------------------------------------------------------------------
      1          6           0       -0.675496   -0.375414    0.293953
      2          8           0       -0.864918    0.179024   -0.954137
      3          6           0        0.748122   -0.176877    0.755346
      4          1           0        0.840524    0.852425    1.175232
      5          1           0        0.946789   -0.887684    1.601576
      6          7           0        1.732148   -0.492259   -0.317621
      7          1           0        1.363754   -0.231338   -1.232546
      8          1           0        2.581544    0.047768   -0.173838
      9          8           0       -1.600295   -0.887304    0.872611
     10          1           0       -1.790147    0.048070   -1.295626
 ---------------------------------------------------------------------
                    Distance matrix (angstroms):
                    1          2          3          4          5
     1  C    0.000000
     2  O    1.378772   0.000000
     3  C    1.509632   2.377161   0.000000
     4  H    2.140691   2.810020   1.115484   0.000000
     5  H    2.145718   3.309353   1.122863   1.794726   0.000000
     6  N    2.486851   2.756905   1.489641   2.198131   2.111034
     7  H    2.551372   2.283175   2.081750   2.691786   2.938861
     8  H    3.317563   3.536127   2.067676   2.344913   2.588356
     9  O    1.205043   2.239385   2.456322   3.012612   2.649345
    10  H    1.987095   0.994893   3.271069   3.697642   4.093926
                    6          7          8          9         10
     6  N    0.000000
     7  H    1.020237   0.000000
     8  H    1.016748   1.637613   0.000000
     9  O    3.560603   3.694262   4.411031   0.000000
    10  H    3.695269   3.166882   4.513324   2.369012   0.000000
 Symmetry turned off by external request.
 Stoichiometry    C2H5NO2
 Framework group  C1[X(C2H5NO2)]
 Deg. of freedom    24
 Full point group                 C1      NOp   1
 Rotational constants (GHZ):           9.5483725           3.9742406           3.0248726
 Leave Link  202 at Sat Nov 25 14:42:50 2023, MaxMem=   134217728 cpu:               0.1 elap:               0.0
 (Enter /home/emanuele/chem_software/gaussian//gdv/l601.exe)
 Copying SCF densities to generalized density rwf, IOpCl= 0 IROHF=0.

 **********************************************************************

            Population analysis using the SCF Density.

 **********************************************************************

 Alpha  occ. eigenvalues --       -1.20290      -1.16276      -1.12708      -0.95134      -0.80427
 Alpha  occ. eigenvalues --       -0.66632      -0.65444      -0.63126      -0.58339      -0.55733
 Alpha  occ. eigenvalues --       -0.52842      -0.50870      -0.46026      -0.42298      -0.36838
 Alpha virt. eigenvalues --        0.00919       0.04861       0.09209       0.10397       0.14163
 Alpha virt. eigenvalues --        0.15909       0.17309       0.18187       0.20498       0.23752
          Condensed to atoms (all electrons):
               1          2          3          4          5          6
     1  C    3.370866   0.000000   0.000000   0.000000   0.000000   0.000000
     2  O    0.000000   6.542025   0.000000   0.000000   0.000000   0.000000
     3  C    0.000000   0.000000   4.258891   0.000000   0.000000   0.000000
     4  H    0.000000   0.000000   0.000000   0.840359   0.000000   0.000000
     5  H    0.000000   0.000000   0.000000   0.000000   0.803154   0.000000
     6  N    0.000000   0.000000   0.000000   0.000000   0.000000   5.479817
     7  H    0.000000   0.000000   0.000000   0.000000   0.000000   0.000000
     8  H    0.000000   0.000000   0.000000   0.000000   0.000000   0.000000
     9  O    0.000000   0.000000   0.000000   0.000000   0.000000   0.000000
    10  H    0.000000   0.000000   0.000000   0.000000   0.000000   0.000000
               7          8          9         10
     1  C    0.000000   0.000000   0.000000   0.000000
     2  O    0.000000   0.000000   0.000000   0.000000
     3  C    0.000000   0.000000   0.000000   0.000000
     4  H    0.000000   0.000000   0.000000   0.000000
     5  H    0.000000   0.000000   0.000000   0.000000
     6  N    0.000000   0.000000   0.000000   0.000000
     7  H    0.774757   0.000000   0.000000   0.000000
     8  H    0.000000   0.787301   0.000000   0.000000
     9  O    0.000000   0.000000   6.488634   0.000000
    10  H    0.000000   0.000000   0.000000   0.654197
 Mulliken charges:
               1
     1  C    0.629134
     2  O   -0.542025
     3  C   -0.258891
     4  H    0.159641
     5  H    0.196846
     6  N   -0.479817
     7  H    0.225243
     8  H    0.212699
     9  O   -0.488634
    10  H    0.345803
 Sum of Mulliken charges =   0.00000
 Mulliken charges with hydrogens summed into heavy atoms:
               1
     1  C    0.629134
     2  O   -0.196222
     3  C    0.097597
     6  N   -0.041875
     9  O   -0.488634
 Charge=              0.0000 electrons
 Dipole moment (field-independent basis, Debye):
    X=              1.1130    Y=              2.5819    Z=             -0.5678  Tot=              2.8683
 N-N= 1.252120617686D+02 E-N=-1.638897954910D+02  KE=-6.555828791780D+01
 Leave Link  601 at Sat Nov 25 14:42:50 2023, MaxMem=   134217728 cpu:               0.1 elap:               0.0
 (Enter /home/emanuele/chem_software/gaussian//gdv/l9999.exe)
 Unable to Open any file for archive entry.
 1\1\GINC-EMANUELE-XPS-13-9343\Scan\RPM6\ZDO\C2H5N1O2\EMANUELE\25-Nov-2
 023\0\\#p nosymm geom=nocrowd opt=(modredundant,maxcycle=100) PM6\\Tit
 le\\0,1\C,-0.6754961132,-0.375413714,0.2939532769\O,-0.8649178358,0.17
 90239745,-0.9541373677\C,0.7481218427,-0.1768768809,0.755345695\H,0.84
 05236049,0.8524252234,1.1752321012\H,0.9467889507,-0.8876838012,1.6015
 763559\N,1.7321482326,-0.49225908,-0.3176205455\H,1.3637543785,-0.2313
 377985,-1.2325463325\H,2.5815441406,0.0477678064,-0.1738376384\O,-1.60
 02952071,-0.8873035206,0.8726112718\H,-1.7901469939,0.0480697909,-1.29
 56258168\\Version=ES64L-GDVRevJ.14\HF=-0.1426955,-0.1425901,-0.1417661
 ,-0.1417112,-0.1421417,-0.1417761,-0.1437336,-0.1469087,-0.1464558,-0.
 1430506,-0.1418063\RMSD=7.290e-09,3.346e-09,7.523e-09,4.719e-09,5.181e
 -09,2.589e-09,3.547e-09,4.135e-09,9.632e-09,3.717e-09,8.389e-09\PG=C01
  [X(C2H5N1O2)]\\@
 The archive entry for this job was punched.


 NO SCIENCE HAS EVER MADE MORE RAPID PROGRESS IN A
 SHORTER TIME THAN CHEMISTRY.
   -- MARTIN HEINRICH KLOPROTH, 1791
 (FIRST PROFESSOR OF CHEMISTRY AT THE UNIVERSITY OF BERLIN)
 Job cpu time:       0 days  0 hours  3 minutes 20.8 seconds.
 Elapsed time:       0 days  0 hours  0 minutes 53.2 seconds.
 File lengths (MBytes):  RWF=      6 Int=      0 D2E=      0 Chk=      3 Scr=      1
 Normal termination of Gaussian DV at Sat Nov 25 14:42:50 2023.
