 Entering Gaussian System, Link 0=/home/emanuele/chem_software/gaussian//g09/g09
 Input=0_zmat_mm_30.gjf
 Output=0_zmat_mm_30.log
 Initial command:
 /home/emanuele/chem_software/gaussian//gdv/l1.exe "/home/emanuele/chem_software/gaussian/scratch/Gau-6254.inp" -scrdir="/home/emanuele/chem_software/gaussian/scratch/"
 Entering Link 1 = /home/emanuele/chem_software/gaussian//gdv/l1.exe PID=      6256.
  
 Copyright (c) 1988-2020, Gaussian, Inc.  All Rights Reserved.
  
 This is the private, development version of
 the Gaussian(R) DV system of programs. It is based on
 the Gaussian(R) 16 system (copyright 2016, Gaussian, Inc.),
 the Gaussian(R) 09 system (copyright 2009, Gaussian, Inc.),
 the Gaussian(R) 03 system (copyright 2003, Gaussian, Inc.),
 the Gaussian(R) 98 system (copyright 1998, Gaussian, Inc.),
 the Gaussian(R) 94 system (copyright 1995, Gaussian, Inc.),
 the Gaussian 92(TM) system (copyright 1992, Gaussian, Inc.),
 the Gaussian 90(TM) system (copyright 1990, Gaussian, Inc.),
 the Gaussian 88(TM) system (copyright 1988, Gaussian, Inc.),
 the Gaussian 86(TM) system (copyright 1986, Carnegie Mellon
 University), and the Gaussian 82(TM) system (copyright 1983,
 Carnegie Mellon University). Gaussian is a federally registered
 trademark of Gaussian, Inc.
  
 This software contains proprietary and confidential information,
 including trade secrets, belonging to Gaussian, Inc.
  
 This software is provided under written license and may be
 used, copied, transmitted, or stored only in accord with that
 written license.
  
 The following legend is applicable only to US Government
 contracts under FAR:
  
                    RESTRICTED RIGHTS LEGEND
  
 Use, reproduction and disclosure by the US Government is
 subject to restrictions as set forth in subparagraphs (a)
 and (c) of the Commercial Computer Software - Restricted
 Rights clause in FAR 52.227-19.
  
 Gaussian, Inc.
 340 Quinnipiac St., Bldg. 40, Wallingford CT 06492
  
  
 ---------------------------------------------------------------
 Warning -- This program may not be used in any manner that
 competes with the business of Gaussian, Inc. or will provide
 assistance to any competitor of Gaussian, Inc.  The licensee
 of this program is prohibited from giving any competitor of
 Gaussian, Inc. access to this program.  By using this program,
 the user acknowledges that Gaussian, Inc. is engaged in the
 business of creating and licensing software in the field of
 computational chemistry and represents and warrants to the
 licensee that it is not a competitor of Gaussian, Inc. and that
 it will not use this program in any manner prohibited above.
 ---------------------------------------------------------------
  

 Cite this work as:
 Gaussian Development Version, Revision J.14,
 M. J. Frisch, G. W. Trucks, H. B. Schlegel, G. E. Scuseria, 
 M. A. Robb, J. R. Cheeseman, G. Scalmani, V. Barone, 
 G. A. Petersson, H. Nakatsuji, X. Li, A. V. Marenich, M. Caricato, 
 J. Bloino, B. G. Janesko, J. Zheng, R. Gomperts, B. Mennucci, 
 H. P. Hratchian, J. V. Ortiz, A. F. Izmaylov, J. L. Sonnenberg, 
 D. Williams-Young, F. Ding, F. Lipparini, F. Egidi, J. Goings, 
 B. Peng, A. Petrone, T. Henderson, D. Ranasinghe, V. G. Zakrzewski, 
 J. Gao, N. Rega, G. Zheng, W. Liang, M. Hada, M. Ehara, K. Toyota, 
 R. Fukuda, J. Hasegawa, M. Ishida, T. Nakajima, Y. Honda, O. Kitao, 
 H. Nakai, T. Vreven, K. Throssell, J. A. Montgomery, Jr., 
 J. E. Peralta, F. Ogliaro, M. J. Bearpark, J. J. Heyd, 
 E. N. Brothers, K. N. Kudin, V. N. Staroverov, T. A. Keith, 
 R. Kobayashi, J. Normand, K. Raghavachari, A. P. Rendell, 
 J. C. Burant, S. S. Iyengar, J. Tomasi, M. Cossi, J. M. Millam, 
 M. Klene, C. Adamo, R. Cammi, J. W. Ochterski, R. L. Martin, 
 K. Morokuma, O. Farkas, J. B. Foresman, and D. J. Fox, 
 Gaussian, Inc., Wallingford CT, 2020.
 
 ******************************************
 Gaussian DV:  ES64L-GDVRevJ.14 29-Dec-2020
                26-Nov-2023 
 ******************************************
 %mem=1GB
 %nprocshared=1
 Will use up to    1 processors via shared memory.
 %chk=0_zmat_mm_30.chk
 -----------------------------------------------------------------
 #p Amber=(SoftFirst,Print) geom=nocrowd nosymm opt=(maxcycle=300)
 -----------------------------------------------------------------
 1/6=300,10=10,18=4000020,19=15,37=210000000,38=1,56=2,64=203/1,3;
 2/9=110,12=1,15=1,40=1/2;
 3/5=30,11=9,25=1,30=1,41=10030000,43=2,71=1/1;
 4/20=11,22=1001,24=3,119=11/2;
 7/30=1,44=-1/16;
 1/6=300,10=10,18=4000020,19=15,64=203/3(2);
 2/9=110,12=1,15=1/2;
 99//99;
 2/9=110,12=1,15=1/2;
 3/5=30,11=9,25=1,30=1,41=10030000,43=2,71=1/1;
 4/16=2,20=11,22=1001,24=3,119=11/2;
 7/30=1,44=-1/16;
 1/6=300,10=10,18=4000020,19=15,64=203/3(-4);
 2/9=110,12=1,15=1/2;
 99/9=10/99;
 Leave Link    1 at Sun Nov 26 11:20:11 2023, MaxMem=   134217728 cpu:               0.0 elap:               0.0
 (Enter /home/emanuele/chem_software/gaussian//gdv/l101.exe)
 -----
 Title
 -----
 Symbolic Z-matrix:
 Charge =  0 Multiplicity = 1
 C-C-+0.299289        -0.64255   0.09135   0.31432 
 O-OH--0.289770       -1.07087  -0.52524  -0.84168 
 C-CT--0.035454        0.73811  -0.429     0.68256 
 H-HC-+0.090426        1.10551  -0.48821   1.73604 
 H-HC-+0.095387        0.54719  -1.46768   0.32441 
 N-N3--0.336253        1.66856   0.32936  -0.18862 
 H-H-+0.142619         2.60844   0.00779   0.06214 
 H-H-+0.128282         1.63505  -0.1298   -1.095 
 O-O2--0.308037       -1.35425   0.87813   0.88472 
 H-HO-+0.213510       -1.95316  -0.1903   -1.15395 
 
 ITRead=  3  3  3  3  3  3  3  3  3  3
 MicOpt=  0  0  0  0  0  0  0  0  0  0
 NAtoms=     10 NQM=        0 NQMF=       0 NMMI=      0 NMMIF=      0
                NMic=      10 NMicF=      0.
                    Isotopes and Nuclear Properties:
 (Nuclear quadrupole moments (NQMom) in fm**2, nuclear magnetic moments (NMagM)
  in nuclear magnetons)

  Atom         1           2           3           4           5           6           7           8           9          10
 IAtWgt=          12          16          12           1           1          14           1           1          16           1
 AtmWgt=  12.0000000  15.9949146  12.0000000   1.0078250   1.0078250  14.0030740   1.0078250   1.0078250  15.9949146   1.0078250
 NucSpn=           0           0           0           1           1           2           1           1           0           1
 AtZEff=  -0.0000000  -0.0000000  -0.0000000  -0.0000000  -0.0000000  -0.0000000  -0.0000000  -0.0000000  -0.0000000  -0.0000000
 NQMom=    0.0000000   0.0000000   0.0000000   0.0000000   0.0000000   2.0440000   0.0000000   0.0000000   0.0000000   0.0000000
 NMagM=    0.0000000   0.0000000   0.0000000   2.7928460   2.7928460   0.4037610   2.7928460   2.7928460   0.0000000   2.7928460
 AtZNuc=   6.0000000   8.0000000   6.0000000   1.0000000   1.0000000   7.0000000   1.0000000   1.0000000   8.0000000   1.0000000
 Generating MM parameters.
 I=    1 IAn=  6 Valence= 5.
          JB=  1 J=    2 IAn=  8 IBT=12 Dist= 1.38D+00
          JB=  2 J=    3 IAn=  6 IBT= 1 Dist= 1.52D+00
          JB=  3 J=    9 IAn=  8 IBT= 2 Dist= 1.20D+00
 I=    2 IAn=  8 Valence= 3.
          JB=  1 J=    1 IAn=  6 IBT=12 Dist= 1.38D+00
          JB=  2 J=   10 IAn=  1 IBT= 1 Dist= 9.94D-01
 Read MM parameter file:
 Include all MM classes

 MM sanity checks:
 All charges sum to:               -0.00000100
 Charges of atoms sum to:          -0.00000100
 WARNING -- The following centers have non-zero partial charges, but zero Vanderwaals
 parameters.  These centers can collapse onto other centers with non-zero charge.
   Center  Layer   Charge
     10 H    R    0.213510
 MMInit generated parameter data with length LenPar=        2069.
 MM Charge=             -0.0000 electrons
 MM Dipole moment (Debye):
    X=              1.2720    Y=             -2.0501    Z=             -0.4102  Tot=              2.4473
 MM Quadrupole moment (Debye-Ang):
   XX=              2.5830   YY=             -0.5814   ZZ=              1.3254
   XY=             -0.2794   XZ=              2.8846   YZ=             -1.8465
 MM Traceless Quadrupole moment (Debye-Ang):
   XX=              1.4740   YY=             -1.6904   ZZ=              0.2164
   XY=             -0.2794   XZ=              2.8846   YZ=             -1.8465
 MM Octapole moment (Debye-Ang**2):
  XXX=              5.3029  YYY=             -2.3508  ZZZ=             -0.2899  XYY=              2.2321
  XXY=             -4.3139  XXZ=             -5.1485  XZZ=              2.3997  YZZ=             -1.5366
  YYZ=             -0.2251  XYZ=              1.5712
 MM Hexadecapole moment (Debye-Ang**3):
 XXXX=             32.5995 YYYY=              1.1417 ZZZZ=              5.0246 XXXY=              0.6551
 XXXZ=             10.7281 YYYX=              0.2169 YYYZ=             -1.5837 ZZZX=              4.7247
 ZZZY=             -2.0323 XXYY=             -2.4409 XXZZ=              5.4177 YYZZ=             -0.7069
 XXYZ=             -1.9099 YYXZ=              1.4968 ZZXY=              0.4134
 Leave Link  101 at Sun Nov 26 11:20:11 2023, MaxMem=   134217728 cpu:               0.3 elap:               0.3
 (Enter /home/emanuele/chem_software/gaussian//gdv/l103.exe)

 GradGradGradGradGradGradGradGradGradGradGradGradGradGradGradGradGradGrad
 Berny optimization.
 Initialization pass.
 No Z-matrix variables, so optimization will use Cartesian coordinates.
 Trust Radius=1.00D-01 FncErr=1.00D-07 GrdErr=1.00D-07 EigMax=2.50D+02 EigMin=1.00D-04
 Number of steps in this run=      2 maximum allowed number of steps=      2.
 GradGradGradGradGradGradGradGradGradGradGradGradGradGradGradGradGradGrad

 Leave Link  103 at Sun Nov 26 11:20:11 2023, MaxMem=   134217728 cpu:               0.0 elap:               0.0
 (Enter /home/emanuele/chem_software/gaussian//gdv/l202.exe)
                          Input orientation:                          
 ---------------------------------------------------------------------
 Center     Atomic      Atomic             Coordinates (Angstroms)
 Number     Number       Type             X           Y           Z
 ---------------------------------------------------------------------
      1          6    20001002       -0.642549    0.091353    0.314321
      2          8    20001022       -1.070870   -0.525237   -0.841677
      3          6    20001001        0.738105   -0.428996    0.682564
      4          1    20001034        1.105509   -0.488214    1.736042
      5          1    20001034        0.547187   -1.467678    0.324409
      6          7    20001020        1.668563    0.329359   -0.188619
      7          1    20001029        2.608440    0.007787    0.062141
      8          1    20001029        1.635050   -0.129798   -1.095004
      9          8    20001025       -1.354246    0.878132    0.884722
     10          1    20001031       -1.953163   -0.190296   -1.153948
 ---------------------------------------------------------------------
                    Distance matrix (angstroms):
                    1          2          3          4          5
     1  C    0.000000
     2  O    1.378395   0.000000
     3  C    1.520714   2.367480   0.000000
     4  H    2.326563   3.373816   1.117277   0.000000
     5  H    1.961161   2.205915   1.115161   1.806594   0.000000
     6  N    2.377148   2.943011   1.483177   2.165589   2.179455
     7  H    3.261826   3.826006   2.018380   2.303641   2.548440
     8  H    2.687482   2.746370   2.013400   2.902361   2.233406
     9  O    1.204529   2.242811   2.475355   2.939735   3.071192
    10  H    1.988177   0.994052   3.266906   4.218563   3.173168
                    6          7          8          9         10
     6  N    0.000000
     7  H    1.024528   0.000000
     8  H    1.016603   1.518355   0.000000
     9  O    3.254318   4.139688   3.724396   0.000000
    10  H    3.784019   4.725075   3.589207   2.378322   0.000000
 Symmetry turned off by external request.
 Stoichiometry    C2H5NO2
 Framework group  C1[X(C2H5NO2)]
 Deg. of freedom    24
 Full point group                 C1      NOp   1
 Rotational constants (GHZ):           8.7674481           4.0140274           3.2291703
 Leave Link  202 at Sun Nov 26 11:20:11 2023, MaxMem=   134217728 cpu:               0.0 elap:               0.0
 (Enter /home/emanuele/chem_software/gaussian//gdv/l301.exe)
 Standard basis: Dummy (5D, 7F)
    10 basis functions,    10 primitive gaussians,    10 cartesian basis functions
     7 alpha electrons        7 beta electrons
       nuclear repulsion energy        22.6602308699 Hartrees.
 IExCor=       0 DFT=F Ex=HF Corr=None N6=None ScaHFX=  1.000000
 ScaDFX=  1.000000  1.000000  1.000000  1.000000  1.000000  0.000000
 ScaDFX=  0.000000  0.000000  0.000000  0.000000  0.000000  0.000000
 IRadAn=      5 IRanWt=     -1 IRanGd=            0 ICorTp=0 IEmpDi=  4
 NAtoms=   10 NActive=   10 NUniq=   10 SFac= 1.00D+00 NAtFMM=   60 NAOKFM=F Big=F
 Integral buffers will be    131072 words long.
 Raffenetti 1 integral format.
 Two-electron integral symmetry is turned off.
 Leave Link  301 at Sun Nov 26 11:20:11 2023, MaxMem=   134217728 cpu:               0.0 elap:               0.0
 (Enter /home/emanuele/chem_software/gaussian//gdv/l402.exe)
 AMBER calculation of energy and first derivatives.
 NRF= 0 NRA=   0 NVA=  10 HaveQM=F NVQ=       0
 Convergence limit is  0.750E-04 MaxStp= 10000 StMxLn= 3.00D-04 StpMin= 1.00D-06.
 Convergence criteria             0.00011250 0.00007500 0.00045000 0.00030000
  Step  NS  ND Rises OKQ   Scale  Max. Force  RMS Force Max. Disp.  RMS Disp.     Energy   Flag
     1   0   0   F    T  1.00D+00 0.04564902 0.01758507 0.04564902 0.01758507    0.0988549 ----
     2   0   0   F    F  8.52D-01 0.04564902 0.01758507 0.03890940 0.01498881    0.0921247 ----
     3   0   0   F    T  2.15D+00 0.02603086 0.01240259 0.08190452 0.03257389    0.0903386 ----
     4   0   0   F    F  3.76D-01 0.02603086 0.01240259 0.03079517 0.01224741    0.0840443 ----
     5   0   0   F    T  1.32D+00 0.04645769 0.01708489 0.12023530 0.04482130    0.0835386 ----
     6   0   0   F    F -1.14D-01 0.04645769 0.01708489 0.01374714 0.00512466    0.0785189 ----
     7   0   0   F    T  2.95D+00 0.02385490 0.00905998 0.10905832 0.03969664    0.0784339 ----
     8   0   0   T    F  4.92D-01 0.02385490 0.00905998 0.05363516 0.01952291    0.0785716 ----
     9   0   0   F    T  1.94D+00 0.01344396 0.00676979 0.05620638 0.01952291    0.0766432 ----
    10   0   0   F    F  2.39D+00 0.01344396 0.00676979 0.13421881 0.04662000    0.0743600 ----
    11   0   0   F    F -2.46D-02 0.01344396 0.00676979 0.00329841 0.00114568    0.0721201 ----
    12   0   0   F    T  3.60D+00 0.01911098 0.00864832 0.15265307 0.06499723    0.0721187 ----
    13   0   0   T    F  4.27D-01 0.01911098 0.00864832 0.06525264 0.02778353    0.0735841 ----
    14   0   0   F    T  1.44D+00 0.02093012 0.00860139 0.06811764 0.02778353    0.0703862 ----
    15   0   0   F    F  2.90D-01 0.02093012 0.00860139 0.01973284 0.00804855    0.0684196 ----
    16   0   0   F    T  1.55D+00 0.01977151 0.00914297 0.09451097 0.03583207    0.0683144 ----
    17   0   0   F    F  2.24D-01 0.01977151 0.00914297 0.02112894 0.00801064    0.0659631 ----
    18   0   0   F    T  4.25D+00 0.01331990 0.00616442 0.12941910 0.04384272    0.0658788 ----
    19   0   0   F    F -8.57D-02 0.01331990 0.00616442 0.01109047 0.00375707    0.0638014 ----
    20   0   0   F    T  1.79D+00 0.02037579 0.00854944 0.12405570 0.04008565    0.0637853 ----
    21   0   0   F    F  6.35D-01 0.02037579 0.00854944 0.07871673 0.02543544    0.0607396 ----
    22   0   0   F    F -8.40D-03 0.02037579 0.00854944 0.00066095 0.00021357    0.0600872 ---+
    23   0   0   F    T  1.18D+00 0.03394128 0.01326998 0.20491156 0.06530752    0.0600872 ----
    24   0   0   F    F -3.32D-01 0.03394128 0.01326998 0.06793031 0.02165012    0.0585232 ----
    25   0   0   F    T  4.42D+00 0.02228808 0.00984644 0.09757235 0.04365740    0.0578553 ----
    26   0   0   T    F  2.25D-01 0.02228808 0.00984644 0.02199637 0.00984197    0.0734661 ----
    27   0   0   F    T  1.25D+00 0.01331502 0.00653033 0.02260077 0.00984197    0.0564070 ----
    28   0   0   F    F  6.73D-01 0.01331502 0.00653033 0.01520953 0.00662331    0.0552851 ----
    29   0   0   F    T  1.14D+00 0.02298294 0.00804283 0.04336752 0.01646528    0.0550694 ----
    30   0   0   F    F  1.30D+00 0.02298294 0.00804283 0.05640344 0.02141461    0.0533233 ----
    31   0   0   F    F -7.65D-03 0.02298294 0.00804283 0.00043150 0.00016383    0.0524949 --++
    32   0   0   F    T  3.17D+00 0.01599360 0.00668603 0.08624900 0.03771606    0.0524948 ----
    33   0   0   F    F -1.28D-01 0.01599360 0.00668603 0.01101927 0.00481865    0.0506668 ----
    34   0   0   F    T  2.14D+00 0.01890586 0.00726408 0.06198778 0.03289741    0.0506262 ----
    35   0   0   F    F  2.08D-01 0.01890586 0.00726408 0.01287157 0.00683105    0.0486292 ----
    36   0   0   F    T  3.05D+00 0.01404566 0.00635771 0.08050417 0.03972846    0.0485680 ----
    37   0   0   T    F  2.70D-01 0.01404566 0.00635771 0.02170785 0.01071273    0.0516511 ----
    38   0   0   F    T  2.64D+00 0.00834951 0.00292261 0.02541986 0.01071273    0.0480706 ----
    39   0   0   F    F  8.08D-02 0.00834951 0.00292261 0.00205294 0.00086517    0.0477092 ----
    40   0   0   F    T  2.87D+00 0.00607583 0.00254314 0.02213614 0.01157790    0.0477072 ----
    41   0   0   F    F -2.55D-01 0.00607583 0.00254314 0.00563613 0.00294787    0.0475236 ----
    42   0   0   F    T  2.60D+00 0.00474781 0.00203584 0.02300483 0.00863003    0.0474993 ----
    43   0   0   F    F  3.84D-01 0.00474781 0.00203584 0.00883394 0.00331396    0.0472924 ----
    44   0   0   F    T  2.75D+00 0.00586184 0.00217194 0.03605426 0.01194399    0.0472750 ----
    45   0   0   F    F  4.96D-01 0.00586184 0.00217194 0.01787654 0.00592211    0.0470129 ----
    46   0   0   F    T  3.51D+00 0.00524274 0.00227294 0.05019715 0.01786611    0.0469799 ----
    47   0   0   T    F  4.81D-01 0.00524274 0.00227294 0.02414435 0.00859343    0.0470020 ----
    48   0   0   F    T  3.09D+00 0.00362573 0.00155609 0.02281740 0.00859343    0.0468491 ----
    49   0   0   T    F  4.50D-01 0.00362573 0.00155609 0.01026933 0.00386761    0.0468741 ----
    50   0   0   F    T  1.19D+00 0.00446097 0.00157528 0.01086140 0.00386761    0.0467986 ----
    51   0   0   F    F  1.80D+00 0.00446097 0.00157528 0.01950272 0.00694467    0.0467259 ----
    52   0   0   F    T  2.92D+00 0.00313796 0.00159455 0.02908389 0.01081228    0.0466749 ----
    53   0   0   F    F -4.22D-01 0.00313796 0.00159455 0.01228565 0.00456734    0.0466447 ----
    54   0   0   F    T  5.37D+00 0.00161473 0.00076256 0.01658924 0.00624494    0.0466108 ----
    55   0   0   F    F -3.61D-01 0.00161473 0.00076256 0.00599576 0.00225708    0.0465905 ----
    56   0   0   F    T  1.73D+00 0.00218343 0.00101624 0.01104906 0.00398787    0.0465808 ----
    57   0   0   F    F  2.71D-01 0.00218343 0.00101624 0.00299318 0.00108031    0.0465483 ----
    58   0   0   F    T  2.28D+00 0.00309150 0.00094844 0.01283741 0.00506818    0.0465468 ----
    59   0   0   T    F  4.17D-01 0.00309150 0.00094844 0.00535449 0.00211394    0.0465590 ----
    60   0   0   F    T  4.14D+00 0.00102558 0.00037341 0.00540226 0.00211394    0.0465340 ----
    61   0   0   T    F  3.76D-01 0.00102558 0.00037341 0.00203287 0.00079548    0.0465397 ----
    62   0   0   F    T  2.27D+00 0.00055199 0.00025606 0.00164244 0.00079548    0.0465307 ----
    63   0   0   F    F  8.94D-01 0.00055199 0.00025606 0.00146828 0.00071113    0.0465274 ----
    64   0   0   F    T  2.08D+00 0.00085370 0.00034482 0.00384523 0.00150660    0.0465265 ----
    65   0   0   F    F  6.47D-01 0.00085370 0.00034482 0.00248634 0.00097417    0.0465213 ----
    66   0   0   F    T  2.20D+00 0.00119253 0.00041498 0.00589220 0.00248078    0.0465204 ----
    67   0   0   F    F -3.92D-01 0.00119253 0.00041498 0.00231043 0.00097276    0.0465184 ----
    68   0   0   F    T  1.40D+00 0.00112052 0.00039081 0.00307373 0.00150802    0.0465169 ----
    69   0   0   F    F  1.58D+00 0.00112052 0.00039081 0.00484238 0.00237575    0.0465117 ----
    70   0   0   F    T  3.43D+00 0.00100183 0.00038913 0.00847571 0.00388377    0.0465087 ----
    71   0   0   F    F -1.91D-01 0.00100183 0.00038913 0.00161654 0.00074074    0.0465027 ----
    72   0   0   F    T  2.81D+00 0.00082088 0.00037370 0.00643226 0.00314303    0.0465024 ----
    73   0   0   F    F  1.07D-01 0.00082088 0.00037370 0.00069085 0.00033757    0.0464959 ----
    74   0   0   F    T  2.15D+00 0.00126118 0.00043835 0.00750005 0.00348060    0.0464959 ----
    75   0   0   F    T  1.82D+00 0.00128800 0.00046542 0.00768942 0.00348060    0.0464898 ----
    76   0   0   F    F -3.40D-01 0.00128800 0.00046542 0.00261203 0.00118233    0.0464870 ----
    77   0   0   F    T  3.47D+00 0.00063645 0.00027882 0.00499913 0.00229827    0.0464860 ----
    78   0   0   F    F -3.71D-01 0.00063645 0.00027882 0.00185693 0.00085369    0.0464843 ----
    79   0   0   F    T  2.50D+00 0.00058779 0.00024619 0.00384080 0.00144458    0.0464834 ----
    80   0   0   F    F  1.30D-01 0.00058779 0.00024619 0.00049990 0.00018802    0.0464809 ---+
    81   0   0   F    T  5.30D+00 0.00036567 0.00016454 0.00407665 0.00163260    0.0464809 ----
    82   0   0   F    F -2.23D-01 0.00036567 0.00016454 0.00090831 0.00036376    0.0464793 ----
    83   0   0   F    T  1.47D+00 0.00044779 0.00026858 0.00333867 0.00126884    0.0464792 ----
    84   0   0   F    F  2.38D+00 0.00044779 0.00026858 0.00795058 0.00302157    0.0464765 ----
    85   0   0   F    T  4.35D+00 0.00056952 0.00028203 0.00984434 0.00429041    0.0464738 ----
    86   0   0   T    F  2.72D-01 0.00056952 0.00028203 0.00267704 0.00116672    0.0464826 ----
    87   0   0   F    T  1.34D+00 0.00054179 0.00026092 0.00285743 0.00116672    0.0464724 ----
    88   0   0   F    F  2.34D+00 0.00054179 0.00026092 0.00669017 0.00273167    0.0464701 ----
    89   0   0   F    T  1.66D+00 0.00099019 0.00042630 0.00915361 0.00389839    0.0464678 ----
    90   0   0   F    F  7.46D-01 0.00099019 0.00042630 0.00682678 0.00290743    0.0464614 ----
    91   0   0   F    T  3.98D+00 0.00080370 0.00035811 0.01500815 0.00680582    0.0464600 ----
    92   0   0   F    F -4.33D-01 0.00080370 0.00035811 0.00649936 0.00294730    0.0464581 ----
    93   0   0   F    T  3.73D+00 0.00051161 0.00026864 0.00762756 0.00385852    0.0464557 ----
    94   0   0   F    F -3.10D-01 0.00051161 0.00026864 0.00236229 0.00119500    0.0464534 ----
    95   0   0   F    T  1.64D+00 0.00085767 0.00033227 0.00564931 0.00266352    0.0464529 ----
    96   0   0   F    T  1.91D+00 0.00071131 0.00030517 0.00544659 0.00266352    0.0464501 ----
    97   0   0   F    F -1.71D-01 0.00071131 0.00030517 0.00092954 0.00045457    0.0464480 ----
    98   0   0   F    T  7.23D+00 0.00037432 0.00013382 0.00562494 0.00220895    0.0464479 ----
    99   0   0   F    F -4.52D-01 0.00037432 0.00013382 0.00254123 0.00099796    0.0464476 ----
   100   0   0   F    T  2.34D+00 0.00042421 0.00016919 0.00291961 0.00121100    0.0464469 ----
   101   0   0   F    F -1.28D-01 0.00042421 0.00016919 0.00037407 0.00015516    0.0464460 --++
   102   0   0   F    T  4.74D+00 0.00030820 0.00010405 0.00259824 0.00105584    0.0464460 ----
   103   0   0   T    F  2.64D-01 0.00030820 0.00010405 0.00068547 0.00027855    0.0464474 ---+
   104   0   0   F    T  1.69D+00 0.00021613 0.00008317 0.00069202 0.00027855    0.0464458 ---+
   105   0   0   F    T  1.88D+00 0.00020503 0.00007864 0.00068672 0.00027855    0.0464456 ---+
   106   0   0   F    F  6.76D-01 0.00020503 0.00007864 0.00046435 0.00018835    0.0464453 ---+
   107   0   0   F    T  2.20D+00 0.00013890 0.00007868 0.00135279 0.00046690    0.0464452 ----
   108   0   0   F    F  8.66D-01 0.00013890 0.00007868 0.00117122 0.00040424    0.0464449 ----
   109   0   0   F    T  2.94D+00 0.00025313 0.00010076 0.00253762 0.00087114    0.0464449 ----
   110   0   0   F    F -2.64D-01 0.00025313 0.00010076 0.00066891 0.00022963    0.0464446 ---+
   111   0   0   F    T  3.26D+00 0.00025137 0.00007863 0.00154582 0.00064151    0.0464445 ----
   112   0   0   T    F  4.87D-01 0.00025137 0.00007863 0.00075356 0.00031273    0.0464445 ----
   113   0   0   F    T  1.42D+00 0.00020087 0.00008032 0.00065067 0.00031273    0.0464444 ----
   114   0   0   F    T  3.96D+00 0.00013798 0.00005290 0.00055163 0.00031273    0.0464442 -+--
   115   0   0   F    F  9.07D-01 0.00013798 0.00005290 0.00050010 0.00028352    0.0464439 -+-+
   116   0   0   F    T  1.58D+00 0.00023303 0.00011000 0.00102644 0.00059624    0.0464439 ----
   117   0   0   F    T  2.31D+00 0.00028637 0.00009507 0.00123296 0.00059624    0.0464436 ----
   118   0   0   F    F -2.95D-01 0.00028637 0.00009507 0.00036401 0.00017603    0.0464434 --++
   119   0   0   F    T  1.61D+00 0.00019715 0.00009236 0.00096048 0.00042021    0.0464434 ----
   120   0   0   F    F  4.84D-01 0.00019715 0.00009236 0.00046501 0.00020344    0.0464431 ---+
   121   0   0   F    T  2.87D+00 0.00020106 0.00008127 0.00161886 0.00062365    0.0464430 ----
   122   0   0   F    F  3.96D-01 0.00020106 0.00008127 0.00064108 0.00024697    0.0464427 ---+
   123   0   0   F    T  3.45D+00 0.00021380 0.00008498 0.00216745 0.00087063    0.0464427 ----
   124   0   0   F    F -4.68D-01 0.00021380 0.00008498 0.00101342 0.00040707    0.0464426 ----
   125   0   0   F    T  2.01D+00 0.00021142 0.00007867 0.00096277 0.00046355    0.0464425 ----
   126   0   0   F    T  1.57D+00 0.00024566 0.00008855 0.00083315 0.00046355    0.0464423 ----
   127   0   0   F    T  3.87D+00 0.00010040 0.00006004 0.00084335 0.00046355    0.0464420 ++--
   128   0   0   F    F -4.22D-01 0.00010040 0.00006004 0.00035548 0.00019539    0.0464420 ++++
   129   0   0   F    T  1.68D+00 0.00014955 0.00006037 0.00053417 0.00026816    0.0464419 -+-+
   130   0   0   F    F  2.13D+00 0.00014955 0.00006037 0.00113772 0.00057115    0.0464417 -+--
   131   0   0   F    T  1.87D+00 0.00031214 0.00010982 0.00193040 0.00083931    0.0464416 ----
   132   0   0   F    T  2.46D+00 0.00020053 0.00009395 0.00181777 0.00083931    0.0464413 ----
   133   0   0   F    F -3.13D-01 0.00020053 0.00009395 0.00056922 0.00026282    0.0464411 ---+
   134   0   0   F    T  1.35D+00 0.00027640 0.00010330 0.00139014 0.00057649    0.0464410 ----
   135   0   0   F    F  2.23D+00 0.00027640 0.00010330 0.00309433 0.00128323    0.0464407 ----
   136   0   0   F    T  2.20D+00 0.00031422 0.00014490 0.00438560 0.00185972    0.0464403 ----
   137   0   0   F    T  2.45D+00 0.00031137 0.00013488 0.00471201 0.00185972    0.0464397 ----
   138   0   0   F    F -9.65D-02 0.00031137 0.00013488 0.00045451 0.00017938    0.0464391 ---+
   139   0   0   F    T  2.07D+00 0.00042539 0.00014058 0.00414694 0.00168034    0.0464391 ----
   140   0   0   F    T  1.42D+00 0.00037118 0.00016439 0.00441980 0.00168034    0.0464385 ----
   141   0   0   F    F  4.94D-01 0.00037118 0.00016439 0.00218381 0.00083025    0.0464378 ----
   142   0   0   F    T  3.19D+00 0.00037041 0.00014933 0.00635538 0.00251059    0.0464377 ----
   143   0   0   F    F -1.59D-01 0.00037041 0.00014933 0.00101342 0.00040033    0.0464368 ----
   144   0   0   F    T  2.24D+00 0.00036559 0.00015830 0.00516018 0.00211025    0.0464368 ----
   145   0   0   F    F  8.94D-01 0.00036559 0.00015830 0.00461203 0.00188608    0.0464355 ----
   146   0   0   F    T  2.33D+00 0.00052820 0.00021319 0.00958604 0.00399634    0.0464352 ----
   147   0   0   F    F -9.12D-02 0.00052820 0.00021319 0.00087412 0.00036441    0.0464338 ----
   148   0   0   F    T  4.77D+00 0.00044897 0.00014572 0.00893296 0.00363192    0.0464337 ----
   149   0   0   F    F -2.40D-01 0.00044897 0.00014572 0.00214465 0.00087196    0.0464327 ----
   150   0   0   F    T  1.85D+00 0.00048620 0.00020269 0.00663469 0.00275996    0.0464326 ----
   151   0   0   F    F -1.09D-01 0.00048620 0.00020269 0.00072498 0.00030158    0.0464316 ----
   152   0   0   F    T  2.67D+00 0.00035599 0.00015755 0.00640081 0.00245838    0.0464316 ----
   153   0   0   F    F -4.90D-01 0.00035599 0.00015755 0.00313860 0.00120545    0.0464315 ----
   154   0   0   F    T  1.95D+00 0.00038604 0.00013009 0.00313254 0.00125293    0.0464311 ----
   155   0   0   F    F  2.25D-01 0.00038604 0.00013009 0.00070409 0.00028161    0.0464305 ---+
   156   0   0   F    T  3.20D+00 0.00026199 0.00011003 0.00374226 0.00153454    0.0464305 ----
   157   0   0   F    F -1.05D-01 0.00026199 0.00011003 0.00039428 0.00016168    0.0464299 --++
   158   0   0   F    T  4.57D+00 0.00020191 0.00008550 0.00325970 0.00137287    0.0464299 ----
   159   0   0   T    F  4.00D-01 0.00020191 0.00008550 0.00130398 0.00054919    0.0464302 ----
   160   0   0   F    T  2.23D+00 0.00016530 0.00007557 0.00123876 0.00054919    0.0464297 ----
   161   0   0   F    F  1.07D+00 0.00016530 0.00007557 0.00132923 0.00058930    0.0464294 ----
   162   0   0   F    T  2.74D+00 0.00022989 0.00009682 0.00256276 0.00113849    0.0464293 ----
   163   0   0   T    F  4.70D-01 0.00022989 0.00009682 0.00120398 0.00053486    0.0464294 ----
   164   0   0   F    T  2.21D+00 0.00019255 0.00007208 0.00108317 0.00053486    0.0464292 -+--
   165   0   0   F    T  1.13D+00 0.00023425 0.00009174 0.00107618 0.00053486    0.0464290 ----
   166   0   0   F    T  4.19D+00 0.00023328 0.00009458 0.00117435 0.00053486    0.0464289 ----
   167   0   0   T    F  2.85D-01 0.00023328 0.00009458 0.00033456 0.00015238    0.0464298 --++
   168   0   0   F    T  1.63D+00 0.00018039 0.00006593 0.00038428 0.00015238    0.0464288 -+++
   169   0   0   F    T  1.30D+00 0.00012396 0.00006224 0.00042181 0.00015238    0.0464287 -+++
   170   0   0   F    T  1.76D+00 0.00015060 0.00007302 0.00031270 0.00015238    0.0464287 -+++
   171   0   0   F    T  1.00D+00 0.00023650 0.00008887 0.00030907 0.00015916    0.0464286 --++
   172   0   0   F    T  2.36D+00 0.00015655 0.00006807 0.00037329 0.00015916    0.0464286 -+++
   173   0   0   T    T  1.00D+00 0.00045539 0.00016785 0.00045539 0.00016785    0.0464287 ---+
   174   0   0   T    F  5.00D-01 0.00045539 0.00016785 0.00022770 0.00008392    0.0464296 --++
   175   0   0   T    F  5.00D-01 0.00045539 0.00016785 0.00011385 0.00004196    0.0464289 --++
   176   0   0   T    F  5.00D-01 0.00045539 0.00016785 0.00005692 0.00002098    0.0464287 --++
   177   0   0   T    F  5.00D-01 0.00045539 0.00016785 0.00002846 0.00001049    0.0464286 --++
   178   0   0   T    F  5.00D-01 0.00045539 0.00016785 0.00001423 0.00000525    0.0464286 --++
   179   0   0   T    F  5.00D-01 0.00045539 0.00016785 0.00000712 0.00000262    0.0464286 --++
   180   0   0   T    F  5.00D-01 0.00045539 0.00016785 0.00000356 0.00000131    0.0464286 --++
   181   0   0   T    F  5.00D-01 0.00045539 0.00016785 0.00000178 0.00000066    0.0464286 --++
   182   0   0   T    F  5.00D-01 0.00045539 0.00016785 0.00000089 0.00000033    0.0464286 --++
   183   0   0   T    T  1.00D+00 0.00015799 0.00006850 0.00010447 0.00004701    0.0464286 -+++
   184   0   0   F    T  1.00D+00 0.00014330 0.00005650 0.00014510 0.00005709    0.0464285 -+++
   185   0   0   F    T  1.01D+00 0.00015399 0.00005151 0.00012070 0.00005709    0.0464285 -+++
   186   0   0   T    F  5.00D-01 0.00015399 0.00005151 0.00006035 0.00002855    0.0464286 -+++
   187   0   0   T    F  5.00D-01 0.00015399 0.00005151 0.00003018 0.00001427    0.0464285 -+++
   188   0   0   T    F  5.00D-01 0.00015399 0.00005151 0.00001509 0.00000714    0.0464285 -+++
   189   0   0   T    F  5.00D-01 0.00015399 0.00005151 0.00000754 0.00000357    0.0464285 -+++
   190   0   0   T    F  5.00D-01 0.00015399 0.00005151 0.00000377 0.00000178    0.0464285 -+++
   191   0   0   T    F  5.00D-01 0.00015399 0.00005151 0.00000189 0.00000089    0.0464285 -+++
   192   0   0   T    F  5.00D-01 0.00015399 0.00005151 0.00000094 0.00000045    0.0464285 -+++
   193   0   0   T    T  1.00D+00 0.00015516 0.00005190 0.00014483 0.00005028    0.0464285 -+++
   194   0   0   F    T  1.60D+00 0.00008459 0.00003397 0.00011500 0.00005028    0.0464285 ====
 ****************************
 MOLECULAR MECHANICS FUNCTION
 ****************************
 Atomic parameters:
 Center  VDW
      1 1.9080 0.0860000
      2 1.7210 0.2104000
      3 1.9080 0.1094000
      4 1.4870 0.0157000
      5 1.4870 0.0157000
      6 1.8750 0.1700000
      7 0.6000 0.0157000
      8 0.6000 0.0157000
      9 1.6612 0.2100000
     10 0.0000 0.0000000
 Molecular mechanics terms:
 NBDir 3 1      0      0
 HrmStr1  1- 2  431.53 1.3510
 HrmStr1  1- 3  294.15 1.5090
 HrmStr1  1- 9  946.08 1.2030
 HrmStr1  2-10  566.76 0.9680
 HrmStr1  3- 4  358.05 1.0960
 HrmStr1  3- 5  358.05 1.0960
 HrmStr1  3- 6  380.82 1.4520
 HrmStr1  6- 7  506.01 1.0110
 HrmStr1  6- 8  506.01 1.0110
 HrmBnd1  1- 2-10  56.55 107.23
 HrmBnd1  1- 3- 4  46.41 106.89
 HrmBnd1  1- 3- 5  46.41 106.89
 HrmBnd1  1- 3- 6  59.93 110.61
 HrmBnd1  2- 1- 3  67.92 111.72
 HrmBnd1  2- 1- 9  91.40 123.02
 HrmBnd1  3- 1- 9  62.83 125.24
 HrmBnd1  3- 6- 7  52.60 110.71
 HrmBnd1  3- 6- 8  52.60 110.71
 HrmBnd1  4- 3- 5  44.68 106.22
 HrmBnd1  4- 3- 6  52.45 112.94
 HrmBnd1  5- 3- 6  52.45 112.94
 HrmBnd1  7- 6- 8  47.09 108.63
 AmbTrs  3- 1- 2-10   0 180   0   0  0.0000 14.5000  0.0000  0.0000  2.0
 AmbTrs  9- 1- 2-10   0   0   0   0  0.0000 14.5000  0.0000  0.0000  2.0
 AmbTrs  2- 1- 3- 4   0   0   0   0  0.0000 14.5000  0.0000  0.0000  6.0
 AmbTrs  2- 1- 3- 5   0   0   0   0  0.0000 14.5000  0.0000  0.0000  6.0
 AmbTrs  2- 1- 3- 6   0   0   0   0  0.0000 14.5000  0.0000  0.0000  6.0
 AmbTrs  9- 1- 3- 4   0   0   0   0  0.0000 14.5000  0.0000  0.0000  6.0
 AmbTrs  9- 1- 3- 5   0   0   0   0  0.0000 14.5000  0.0000  0.0000  6.0
 AmbTrs  9- 1- 3- 6   0   0   0   0  0.0000 14.5000  0.0000  0.0000  6.0
 AmbTrs  1- 3- 6- 7   0 180   0   0  0.0000 25.6300  0.0000  0.0000  6.0
 AmbTrs  1- 3- 6- 8   0 180   0   0  0.0000 25.6300  0.0000  0.0000  6.0
 AmbTrs  4- 3- 6- 7   0   0   0   0  0.0000 16.9300  0.0000  0.0000  6.0
 AmbTrs  4- 3- 6- 8   0   0   0   0  0.0000 16.9300  0.0000  0.0000  6.0
 AmbTrs  5- 3- 6- 7   0   0   0   0  0.0000 16.9300  0.0000  0.0000  6.0
 AmbTrs  5- 3- 6- 8   0   0   0   0  0.0000 16.9300  0.0000  0.0000  6.0
 NBPair  2- 1 3 1      0      0 -1.000 -1.000
 NBPair  3- 2 3 1      0      0 -1.000 -1.000
 NBPair 10- 3 3 1      0      0 -0.500 -0.167
 NBPair  9- 2 3 1      0      0 -1.000 -1.000
 NBPair 10- 9 3 1      0      0 -0.500 -0.167
 NBPair  3- 1 3 1      0      0 -1.000 -1.000
 NBPair  4- 2 3 1      0      0 -0.500 -0.167
 NBPair  5- 2 3 1      0      0 -0.500 -0.167
 NBPair  6- 2 3 1      0      0 -0.500 -0.167
 NBPair  9- 3 3 1      0      0 -1.000 -1.000
 NBPair  9- 4 3 1      0      0 -0.500 -0.167
 NBPair  9- 5 3 1      0      0 -0.500 -0.167
 NBPair  9- 6 3 1      0      0 -0.500 -0.167
 NBPair  9- 1 3 1      0      0 -1.000 -1.000
 NBPair 10- 1 3 1      0      0 -1.000 -1.000
 NBPair 10- 2 3 1      0      0 -1.000 -1.000
 NBPair  4- 1 3 1      0      0 -1.000 -1.000
 NBPair  5- 1 3 1      0      0 -1.000 -1.000
 NBPair  6- 1 3 1      0      0 -1.000 -1.000
 NBPair  4- 3 3 1      0      0 -1.000 -1.000
 NBPair  5- 4 3 1      0      0 -1.000 -1.000
 NBPair  6- 4 3 1      0      0 -1.000 -1.000
 NBPair  5- 3 3 1      0      0 -1.000 -1.000
 NBPair  6- 5 3 1      0      0 -1.000 -1.000
 NBPair  6- 3 3 1      0      0 -1.000 -1.000
 NBPair  7- 1 3 1      0      0 -0.500 -0.167
 NBPair  8- 1 3 1      0      0 -0.500 -0.167
 NBPair  7- 4 3 1      0      0 -0.500 -0.167
 NBPair  8- 4 3 1      0      0 -0.500 -0.167
 NBPair  7- 5 3 1      0      0 -0.500 -0.167
 NBPair  8- 5 3 1      0      0 -0.500 -0.167
 NBPair  7- 3 3 1      0      0 -1.000 -1.000
 NBPair  8- 3 3 1      0      0 -1.000 -1.000
 NBPair  7- 6 3 1      0      0 -1.000 -1.000
 NBPair  8- 7 3 1      0      0 -1.000 -1.000
 NBPair  8- 6 3 1      0      0 -1.000 -1.000
 Energy per function type:
 Direct Coulomb + vdW (small)                           0.003918305
 Direct Coulomb (large)                                -0.131932600
 Direct vdW (large)                                   268.451044159
 Non-direct Coulomb + vdW (small)                      -0.012119822
 Non-direct Coulomb (large)                             0.138202556
 Non-direct vdW (large)                              -268.451044159
 Harmonic stretch I                                     0.000130983
 Harmonic bend I                                        0.010437940
 Amber torsion                                          0.037791135
 Energy per function class:
        Coulomb              -0.003785637
    Vanderwaals               0.001854077
     Stretching               0.000130983
        Bending               0.010437940
        Torsion               0.037791135
 Energy=    4.642849729E-02 NIter=   0.
 Dipole moment=       0.528294      -0.166850      -0.349795
 Leave Link  402 at Sun Nov 26 11:20:11 2023, MaxMem=   134217728 cpu:               0.3 elap:               0.3
 (Enter /home/emanuele/chem_software/gaussian//gdv/l716.exe)
 Dipole        = 5.28294386D-01-1.66849794D-01-3.49795031D-01
 -------------------------------------------------------------------
 Center     Atomic                   Forces (Hartrees/Bohr)
 Number     Number              X              Y              Z
 -------------------------------------------------------------------
      1        6           0.000075578   -0.000053279   -0.000084587
      2        8           0.000011861    0.000031584    0.000017543
      3        6          -0.000003428    0.000000942    0.000024796
      4        1           0.000002319   -0.000004017    0.000020795
      5        1           0.000001133   -0.000001820   -0.000015694
      6        7          -0.000000399    0.000035301    0.000020564
      7        1          -0.000014265   -0.000016266   -0.000015611
      8        1          -0.000011256   -0.000017704   -0.000027964
      9        8          -0.000072311    0.000037064    0.000074025
     10        1           0.000010769   -0.000011804   -0.000013867
 -------------------------------------------------------------------
 Cartesian Forces:  Max     0.000084587 RMS     0.000033969
 Z-matrix is all fixed cartesians, so copy forces.
 Leave Link  716 at Sun Nov 26 11:20:12 2023, MaxMem=   134217728 cpu:               0.0 elap:               0.0
 (Enter /home/emanuele/chem_software/gaussian//gdv/l103.exe)

 GradGradGradGradGradGradGradGradGradGradGradGradGradGradGradGradGradGrad
 Berny optimization.
 Search for a local minimum.
 Step number   1 out of a maximum of    2
 All quantities printed in internal units (Hartrees-Bohrs-Radians)
 RMS Force = .33969D-04 SwitMx=.10000D-02 MixMth= 2
 Mixed Optimization -- En-DIIS/RFO-DIIS
 Second derivative matrix not updated -- unit matrix used.
 ITU=  0
 RFO step:  Lambda=-3.46169846D-08 EMin= 1.00000000D+00
 Linear search not attempted -- first point.
 Variable       Old X    -DE/DX   Delta X   Delta X   Delta X     New X
                                 (Linear)    (Quad)   (Total)
    X1       -1.17075   0.00008   0.00000   0.00008   0.00008  -1.17068
    Y1        0.24433  -0.00005   0.00000  -0.00005  -0.00005   0.24428
    Z1        0.36758  -0.00008   0.00000  -0.00008  -0.00008   0.36749
    X2       -2.19522   0.00001   0.00000   0.00001   0.00001  -2.19521
    Y2       -1.27248   0.00003   0.00000   0.00003   0.00003  -1.27244
    Z2       -1.41109   0.00002   0.00000   0.00002   0.00002  -1.41107
    X3        1.35340  -0.00000   0.00000  -0.00000  -0.00000   1.35339
    Y3       -0.87318   0.00000   0.00000   0.00000   0.00000  -0.87318
    Z3        1.18284   0.00002   0.00000   0.00002   0.00002   1.18286
    X4        1.57785   0.00000   0.00000   0.00000   0.00000   1.57785
    Y4       -0.18052  -0.00000   0.00000  -0.00000  -0.00000  -0.18052
    Z4        3.12421   0.00002   0.00000   0.00002   0.00002   3.12423
    X5        1.04257   0.00000   0.00000   0.00000   0.00000   1.04257
    Y5       -2.92169  -0.00000   0.00000  -0.00000  -0.00000  -2.92169
    Z5        1.27428  -0.00002   0.00000  -0.00002  -0.00002   1.27426
    X6        3.36365  -0.00000   0.00000  -0.00000  -0.00000   3.36365
    Y6       -0.01273   0.00004   0.00000   0.00004   0.00004  -0.01269
    Z6       -0.49771   0.00002   0.00000   0.00002   0.00002  -0.49768
    X7        5.16043  -0.00001   0.00000  -0.00001  -0.00001   5.16041
    Y7       -0.61355  -0.00002   0.00000  -0.00002  -0.00002  -0.61357
    Z7       -0.24359  -0.00002   0.00000  -0.00002  -0.00002  -0.24360
    X8        2.95289  -0.00001   0.00000  -0.00001  -0.00001   2.95288
    Y8        1.07683  -0.00002   0.00000  -0.00002  -0.00002   1.07681
    Z8       -2.01362  -0.00003   0.00000  -0.00003  -0.00003  -2.01365
    X9       -2.53229  -0.00007   0.00000  -0.00007  -0.00007  -2.53236
    Y9        1.14188   0.00004   0.00000   0.00004   0.00004   1.14192
    Z9        1.94989   0.00007   0.00000   0.00007   0.00007   1.94996
   X10       -3.35039   0.00001   0.00000   0.00001   0.00001  -3.35038
   Y10       -0.22395  -0.00001   0.00000  -0.00001  -0.00001  -0.22397
   Z10       -2.36282  -0.00001   0.00000  -0.00001  -0.00001  -2.36284
         Item               Value     Threshold  Converged?
 Maximum Force            0.000085     0.000450     YES
 RMS     Force            0.000034     0.000300     YES
 Maximum Displacement     0.000085     0.001800     YES
 RMS     Displacement     0.000034     0.001200     YES
 Predicted change in Energy=-1.730849D-08
 Optimization completed.
    -- Stationary point found.
 Largest change from initial coordinates is atom    8       0.217 Angstoms.
 GradGradGradGradGradGradGradGradGradGradGradGradGradGradGradGradGradGrad

 Leave Link  103 at Sun Nov 26 11:20:12 2023, MaxMem=   134217728 cpu:               0.0 elap:               0.0
 (Enter /home/emanuele/chem_software/gaussian//gdv/l202.exe)
                          Input orientation:                          
 ---------------------------------------------------------------------
 Center     Atomic      Atomic             Coordinates (Angstroms)
 Number     Number       Type             X           Y           Z
 ---------------------------------------------------------------------
      1          6    20001002       -0.619536    0.129294    0.194513
      2          8    20001022       -1.161659   -0.673366   -0.746716
      3          6    20001001        0.716187   -0.462065    0.625931
      4          1    20001034        0.834961   -0.095525    1.653259
      5          1    20001034        0.551705   -1.546091    0.674319
      6          7    20001020        1.779966   -0.006735   -0.263374
      7          1    20001029        2.730779   -0.324676   -0.128901
      8          1    20001029        1.562603    0.569832   -1.065561
      9          8    20001025       -1.340029    0.604256    1.031835
     10          1    20001031       -1.772952   -0.118511   -1.250353
 ---------------------------------------------------------------------
                    Distance matrix (angstroms):
                    1          2          3          4          5
     1  C    0.000000
     2  O    1.350582   0.000000
     3  C    1.523149   2.335619   0.000000
     4  H    2.072207   3.174944   1.097206   0.000000
     5  H    2.099746   2.390943   1.097501   1.772766   0.000000
     6  N    2.446584   3.054697   1.459389   2.138785   2.181172
     7  H    3.396365   3.956559   2.155744   2.612036   2.624001
     8  H    2.558045   3.011447   2.154618   2.892084   2.919971
     9  O    1.202418   2.197130   2.351558   2.367792   2.886256
    10  H    1.865319   0.967053   3.135966   3.902909   3.338619
                    6          7          8          9         10
     6  N    0.000000
     7  H    1.011541   0.000000
     8  H    1.011524   1.744166   0.000000
     9  O    3.432965   4.333787   3.581275   0.000000
    10  H    3.689153   4.645832   3.410850   2.432735   0.000000
 Symmetry turned off by external request.
 Stoichiometry    C2H5NO2
 Framework group  C1[X(C2H5NO2)]
 Deg. of freedom    24
 Full point group                 C1      NOp   1
 Rotational constants (GHZ):           9.4901550           3.8878333           3.1088203
 Leave Link  202 at Sun Nov 26 11:20:12 2023, MaxMem=   134217728 cpu:               0.0 elap:               0.0
 (Enter /home/emanuele/chem_software/gaussian//gdv/l9999.exe)
 Unable to Open any file for archive entry.
 1\1\GINC-EMANUELE-XPS-13-9343\FOpt\AMBER\ZDO\C2H5N1O2\EMANUELE\26-Nov-
 2023\0\\#p Amber=(SoftFirst,Print) geom=nocrowd nosymm opt=(maxcycle=3
 00)\\Title\\0,1\C,-0.6195357071,0.1292936993,0.1945128879\O,-1.1616592
 608,-0.673365535,-0.7467161355\C,0.7161869441,-0.4620651174,0.62593099
 79\H,0.8349606605,-0.0955250243,1.6532587825\H,0.55170547,-1.546091291
 2,0.6743189727\N,1.7799660767,-0.0067354056,-0.2633742224\H,2.73077945
 28,-0.3246764727,-0.1289013484\H,1.5626034176,0.5698324893,-1.06556130
 35\O,-1.3400291236,0.6042559587,1.0318354862\H,-1.7729519301,-0.118511
 301,-1.2503531172\\Version=ES64L-GDVRevJ.14\HF=0.0464285\RMSD=0.000e+0
 0\RMSF=3.397e-05\Dipole=0.5282944,-0.1668498,-0.349795\PG=C01 [X(C2H5N
 1O2)]\\@
 The archive entry for this job was punched.


 TERENCE, THIS IS STUPID STUFF:
 YOU EAT YOUR VICTUALS FAST ENOUGH;
 THERE CAN'T BE MUCH AMISS, 'TIS CLEAR
 TO SEE THE RATE YOU DRINK YOUR BEER.
 BUT OH, GOOD LORD, THE VERSE YOU MAKE,
 IT GIVES A CHAP THE BELLY-ACHE.
 THE COW, THE OLD COW, SHE IS DEAD;
 IT SLEEPS WELL, THE HORNED HEAD:
 WE POOR LADS, 'TIS OUR TURN NOW
 TO HEAR SUCH TUNES AS KILLED THE COW.
 PRETTY FRIENDSHIP 'TIS TO RHYME
 YOUR FRIENDS TO DEATH BEFORE THEIR TIME.
 MOPING, MELANCHOLY MAD:
 COME PIPE A TUNE TO DANCE TO, LAD.

     -- A. E. HOUSMAN
 Job cpu time:       0 days  0 hours  0 minutes  0.8 seconds.
 Elapsed time:       0 days  0 hours  0 minutes  0.8 seconds.
 File lengths (MBytes):  RWF=      6 Int=      0 D2E=      0 Chk=      1 Scr=      1
 Normal termination of Gaussian DV at Sun Nov 26 11:20:12 2023.
