 Entering Gaussian System, Link 0=/home/emanuele/chem_software/gaussian//g09/g09
 Input=0_zmat_mm_10.gjf
 Output=0_zmat_mm_10.log
 Initial command:
 /home/emanuele/chem_software/gaussian//gdv/l1.exe "/home/emanuele/chem_software/gaussian/scratch/Gau-6246.inp" -scrdir="/home/emanuele/chem_software/gaussian/scratch/"
 Entering Link 1 = /home/emanuele/chem_software/gaussian//gdv/l1.exe PID=      6248.
  
 Copyright (c) 1988-2020, Gaussian, Inc.  All Rights Reserved.
  
 This is the private, development version of
 the Gaussian(R) DV system of programs. It is based on
 the Gaussian(R) 16 system (copyright 2016, Gaussian, Inc.),
 the Gaussian(R) 09 system (copyright 2009, Gaussian, Inc.),
 the Gaussian(R) 03 system (copyright 2003, Gaussian, Inc.),
 the Gaussian(R) 98 system (copyright 1998, Gaussian, Inc.),
 the Gaussian(R) 94 system (copyright 1995, Gaussian, Inc.),
 the Gaussian 92(TM) system (copyright 1992, Gaussian, Inc.),
 the Gaussian 90(TM) system (copyright 1990, Gaussian, Inc.),
 the Gaussian 88(TM) system (copyright 1988, Gaussian, Inc.),
 the Gaussian 86(TM) system (copyright 1986, Carnegie Mellon
 University), and the Gaussian 82(TM) system (copyright 1983,
 Carnegie Mellon University). Gaussian is a federally registered
 trademark of Gaussian, Inc.
  
 This software contains proprietary and confidential information,
 including trade secrets, belonging to Gaussian, Inc.
  
 This software is provided under written license and may be
 used, copied, transmitted, or stored only in accord with that
 written license.
  
 The following legend is applicable only to US Government
 contracts under FAR:
  
                    RESTRICTED RIGHTS LEGEND
  
 Use, reproduction and disclosure by the US Government is
 subject to restrictions as set forth in subparagraphs (a)
 and (c) of the Commercial Computer Software - Restricted
 Rights clause in FAR 52.227-19.
  
 Gaussian, Inc.
 340 Quinnipiac St., Bldg. 40, Wallingford CT 06492
  
  
 ---------------------------------------------------------------
 Warning -- This program may not be used in any manner that
 competes with the business of Gaussian, Inc. or will provide
 assistance to any competitor of Gaussian, Inc.  The licensee
 of this program is prohibited from giving any competitor of
 Gaussian, Inc. access to this program.  By using this program,
 the user acknowledges that Gaussian, Inc. is engaged in the
 business of creating and licensing software in the field of
 computational chemistry and represents and warrants to the
 licensee that it is not a competitor of Gaussian, Inc. and that
 it will not use this program in any manner prohibited above.
 ---------------------------------------------------------------
  

 Cite this work as:
 Gaussian Development Version, Revision J.14,
 M. J. Frisch, G. W. Trucks, H. B. Schlegel, G. E. Scuseria, 
 M. A. Robb, J. R. Cheeseman, G. Scalmani, V. Barone, 
 G. A. Petersson, H. Nakatsuji, X. Li, A. V. Marenich, M. Caricato, 
 J. Bloino, B. G. Janesko, J. Zheng, R. Gomperts, B. Mennucci, 
 H. P. Hratchian, J. V. Ortiz, A. F. Izmaylov, J. L. Sonnenberg, 
 D. Williams-Young, F. Ding, F. Lipparini, F. Egidi, J. Goings, 
 B. Peng, A. Petrone, T. Henderson, D. Ranasinghe, V. G. Zakrzewski, 
 J. Gao, N. Rega, G. Zheng, W. Liang, M. Hada, M. Ehara, K. Toyota, 
 R. Fukuda, J. Hasegawa, M. Ishida, T. Nakajima, Y. Honda, O. Kitao, 
 H. Nakai, T. Vreven, K. Throssell, J. A. Montgomery, Jr., 
 J. E. Peralta, F. Ogliaro, M. J. Bearpark, J. J. Heyd, 
 E. N. Brothers, K. N. Kudin, V. N. Staroverov, T. A. Keith, 
 R. Kobayashi, J. Normand, K. Raghavachari, A. P. Rendell, 
 J. C. Burant, S. S. Iyengar, J. Tomasi, M. Cossi, J. M. Millam, 
 M. Klene, C. Adamo, R. Cammi, J. W. Ochterski, R. L. Martin, 
 K. Morokuma, O. Farkas, J. B. Foresman, and D. J. Fox, 
 Gaussian, Inc., Wallingford CT, 2020.
 
 ******************************************
 Gaussian DV:  ES64L-GDVRevJ.14 29-Dec-2020
                26-Nov-2023 
 ******************************************
 %mem=1GB
 %nprocshared=1
 Will use up to    1 processors via shared memory.
 %chk=0_zmat_mm_10.chk
 -----------------------------------------------------------------
 #p Amber=(SoftFirst,Print) geom=nocrowd nosymm opt=(maxcycle=300)
 -----------------------------------------------------------------
 1/6=300,10=10,18=4000020,19=15,37=210000000,38=1,56=2,64=203/1,3;
 2/9=110,12=1,15=1,40=1/2;
 3/5=30,11=9,25=1,30=1,41=10030000,43=2,71=1/1;
 4/20=11,22=1001,24=3,119=11/2;
 7/30=1,44=-1/16;
 1/6=300,10=10,18=4000020,19=15,64=203/3(2);
 2/9=110,12=1,15=1/2;
 99//99;
 2/9=110,12=1,15=1/2;
 3/5=30,11=9,25=1,30=1,41=10030000,43=2,71=1/1;
 4/16=2,20=11,22=1001,24=3,119=11/2;
 7/30=1,44=-1/16;
 1/6=300,10=10,18=4000020,19=15,64=203/3(-4);
 2/9=110,12=1,15=1/2;
 99/9=10/99;
 Leave Link    1 at Sun Nov 26 11:20:09 2023, MaxMem=   134217728 cpu:               0.0 elap:               0.0
 (Enter /home/emanuele/chem_software/gaussian//gdv/l101.exe)
 -----
 Title
 -----
 Symbolic Z-matrix:
 Charge =  0 Multiplicity = 1
 C-C-+0.299289        -0.6077    0.16752   0.17258 
 O-OH--0.289770       -1.4813   -0.70042  -0.44175 
 C-CT--0.035454        0.71297  -0.53717   0.41086 
 H-HC-+0.090426        1.01212  -0.90624   1.42066 
 H-HC-+0.095387        0.44622  -1.43039  -0.21144 
 N-N3--0.336253        1.75267   0.22389  -0.328 
 H-H-+0.142619         2.29088   0.72046   0.39332 
 H-H-+0.128282         2.48425  -0.45303  -0.5309 
 O-O2--0.308037       -0.96133   1.28048   0.47265 
 H-HO-+0.213510       -2.36676  -0.28868  -0.63304 
 
 ITRead=  3  3  3  3  3  3  3  3  3  3
 MicOpt=  0  0  0  0  0  0  0  0  0  0
 NAtoms=     10 NQM=        0 NQMF=       0 NMMI=      0 NMMIF=      0
                NMic=      10 NMicF=      0.
                    Isotopes and Nuclear Properties:
 (Nuclear quadrupole moments (NQMom) in fm**2, nuclear magnetic moments (NMagM)
  in nuclear magnetons)

  Atom         1           2           3           4           5           6           7           8           9          10
 IAtWgt=          12          16          12           1           1          14           1           1          16           1
 AtmWgt=  12.0000000  15.9949146  12.0000000   1.0078250   1.0078250  14.0030740   1.0078250   1.0078250  15.9949146   1.0078250
 NucSpn=           0           0           0           1           1           2           1           1           0           1
 AtZEff=  -0.0000000  -0.0000000  -0.0000000  -0.0000000  -0.0000000  -0.0000000  -0.0000000  -0.0000000  -0.0000000  -0.0000000
 NQMom=    0.0000000   0.0000000   0.0000000   0.0000000   0.0000000   2.0440000   0.0000000   0.0000000   0.0000000   0.0000000
 NMagM=    0.0000000   0.0000000   0.0000000   2.7928460   2.7928460   0.4037610   2.7928460   2.7928460   0.0000000   2.7928460
 AtZNuc=   6.0000000   8.0000000   6.0000000   1.0000000   1.0000000   7.0000000   1.0000000   1.0000000   8.0000000   1.0000000
 Generating MM parameters.
 I=    1 IAn=  6 Valence= 5.
          JB=  1 J=    2 IAn=  8 IBT=12 Dist= 1.38D+00
          JB=  2 J=    3 IAn=  6 IBT= 1 Dist= 1.52D+00
          JB=  3 J=    9 IAn=  8 IBT= 2 Dist= 1.21D+00
 I=    2 IAn=  8 Valence= 3.
          JB=  1 J=    1 IAn=  6 IBT=12 Dist= 1.38D+00
          JB=  2 J=   10 IAn=  1 IBT= 1 Dist= 9.95D-01
 Read MM parameter file:
 Include all MM classes

 MM sanity checks:
 All charges sum to:               -0.00000100
 Charges of atoms sum to:          -0.00000100
 WARNING -- The following centers have non-zero partial charges, but zero Vanderwaals
 parameters.  These centers can collapse onto other centers with non-zero charge.
   Center  Layer   Charge
     10 H    R    0.213510
 MMInit generated parameter data with length LenPar=        2069.
 MM Charge=             -0.0000 electrons
 MM Dipole moment (Debye):
    X=              0.9752    Y=             -2.0796    Z=              0.4367  Tot=              2.3380
 MM Quadrupole moment (Debye-Ang):
   XX=              4.7401   YY=             -1.3369   ZZ=              0.8259
   XY=              0.1094   XZ=              2.4117   YZ=             -1.0192
 MM Traceless Quadrupole moment (Debye-Ang):
   XX=              3.3304   YY=             -2.7466   ZZ=             -0.5838
   XY=              0.1094   XZ=              2.4117   YZ=             -1.0192
 MM Octapole moment (Debye-Ang**2):
  XXX=              1.3362  YYY=             -4.1029  ZZZ=              0.9467  XYY=              4.8479
  XXY=             -1.9117  XXZ=             -1.2423  XZZ=              0.9669  YZZ=             -1.1940
  YYZ=             -0.5045  XYZ=              1.5733
 MM Hexadecapole moment (Debye-Ang**3):
 XXXX=             51.9348 YYYY=             -1.9011 ZZZZ=              1.8511 XXXY=              1.6594
 XXXZ=              8.8560 YYYX=              1.8381 YYYZ=             -1.6904 ZZZX=              1.8001
 ZZZY=             -1.2392 XXYY=             -0.3217 XXZZ=              3.3981 YYZZ=              0.1957
 XXYZ=              1.0642 YYXZ=              1.3895 ZZXY=             -0.4933
 Leave Link  101 at Sun Nov 26 11:20:09 2023, MaxMem=   134217728 cpu:               0.2 elap:               0.2
 (Enter /home/emanuele/chem_software/gaussian//gdv/l103.exe)

 GradGradGradGradGradGradGradGradGradGradGradGradGradGradGradGradGradGrad
 Berny optimization.
 Initialization pass.
 No Z-matrix variables, so optimization will use Cartesian coordinates.
 Trust Radius=1.00D-01 FncErr=1.00D-07 GrdErr=1.00D-07 EigMax=2.50D+02 EigMin=1.00D-04
 Number of steps in this run=      2 maximum allowed number of steps=      2.
 GradGradGradGradGradGradGradGradGradGradGradGradGradGradGradGradGradGrad

 Leave Link  103 at Sun Nov 26 11:20:09 2023, MaxMem=   134217728 cpu:               0.0 elap:               0.0
 (Enter /home/emanuele/chem_software/gaussian//gdv/l202.exe)
                          Input orientation:                          
 ---------------------------------------------------------------------
 Center     Atomic      Atomic             Coordinates (Angstroms)
 Number     Number       Type             X           Y           Z
 ---------------------------------------------------------------------
      1          6    20001002       -0.607703    0.167522    0.172582
      2          8    20001022       -1.481304   -0.700420   -0.441748
      3          6    20001001        0.712973   -0.537172    0.410858
      4          1    20001034        1.012125   -0.906237    1.420658
      5          1    20001034        0.446216   -1.430389   -0.211436
      6          7    20001020        1.752674    0.223887   -0.327998
      7          1    20001029        2.290880    0.720455    0.393322
      8          1    20001029        2.484253   -0.453027   -0.530896
      9          8    20001025       -0.961328    1.280475    0.472645
     10          1    20001031       -2.366760   -0.288682   -0.633035
 ---------------------------------------------------------------------
                    Distance matrix (angstroms):
                    1          2          3          4          5
     1  C    0.000000
     2  O    1.376192   0.000000
     3  C    1.515769   2.359754   0.000000
     4  H    2.309653   3.118991   1.115974   0.000000
     5  H    1.952315   2.073941   1.120824   1.805192   0.000000
     6  N    2.413532   3.365397   1.485294   2.209840   2.111172
     7  H    2.959095   4.116503   2.017851   2.310143   2.897352
     8  H    3.231123   3.974266   2.007838   2.486186   2.282737
     9  O    1.205717   2.242863   2.472032   3.094342   3.130165
    10  H    1.987818   0.995063   3.261321   4.001986   3.064975
                    6          7          8          9         10
     6  N    0.000000
     7  H    1.027885   0.000000
     8  H    1.017147   1.506198   0.000000
     9  O    3.020466   3.301026   3.985493   0.000000
    10  H    4.162392   4.874975   4.854871   2.379080   0.000000
 Symmetry turned off by external request.
 Stoichiometry    C2H5NO2
 Framework group  C1[X(C2H5NO2)]
 Deg. of freedom    24
 Full point group                 C1      NOp   1
 Rotational constants (GHZ):           9.1724107           3.8727466           3.0420961
 Leave Link  202 at Sun Nov 26 11:20:09 2023, MaxMem=   134217728 cpu:               0.0 elap:               0.0
 (Enter /home/emanuele/chem_software/gaussian//gdv/l301.exe)
 Standard basis: Dummy (5D, 7F)
    10 basis functions,    10 primitive gaussians,    10 cartesian basis functions
     7 alpha electrons        7 beta electrons
       nuclear repulsion energy        22.5132139346 Hartrees.
 IExCor=       0 DFT=F Ex=HF Corr=None N6=None ScaHFX=  1.000000
 ScaDFX=  1.000000  1.000000  1.000000  1.000000  1.000000  0.000000
 ScaDFX=  0.000000  0.000000  0.000000  0.000000  0.000000  0.000000
 IRadAn=      5 IRanWt=     -1 IRanGd=            0 ICorTp=0 IEmpDi=  4
 NAtoms=   10 NActive=   10 NUniq=   10 SFac= 1.00D+00 NAtFMM=   60 NAOKFM=F Big=F
 Integral buffers will be    131072 words long.
 Raffenetti 1 integral format.
 Two-electron integral symmetry is turned off.
 Leave Link  301 at Sun Nov 26 11:20:09 2023, MaxMem=   134217728 cpu:               0.0 elap:               0.0
 (Enter /home/emanuele/chem_software/gaussian//gdv/l402.exe)
 AMBER calculation of energy and first derivatives.
 NRF= 0 NRA=   0 NVA=  10 HaveQM=F NVQ=       0
 Convergence limit is  0.750E-04 MaxStp= 10000 StMxLn= 3.00D-04 StpMin= 1.00D-06.
 Convergence criteria             0.00011250 0.00007500 0.00045000 0.00030000
  Step  NS  ND Rises OKQ   Scale  Max. Force  RMS Force Max. Disp.  RMS Disp.     Energy   Flag
     1   0   0   F    T  1.00D+00 0.04540507 0.01909454 0.04540507 0.01909454    0.1019651 ----
     2   0   0   F    F  5.88D-01 0.04540507 0.01909454 0.02668237 0.01122094    0.0945563 ----
     3   0   0   F    T  2.37D+00 0.02385232 0.01105241 0.08336654 0.03031548    0.0934035 ----
     4   0   0   F    F  4.79D-01 0.02385232 0.01105241 0.03994318 0.01452497    0.0876503 ----
     5   0   0   F    T  2.26D+00 0.03039409 0.01199192 0.12181519 0.04484045    0.0869784 ----
     6   0   0   F    F -4.33D-01 0.03039409 0.01199192 0.05275520 0.01941931    0.0858097 ----
     7   0   0   F    T  2.31D+00 0.02539933 0.00749410 0.05553461 0.02542114    0.0842329 ----
     8   0   0   T    F  4.73D-01 0.02539933 0.00749410 0.02624717 0.01201472    0.0844538 ----
     9   0   0   F    T  1.52D+00 0.01176308 0.00539255 0.02816212 0.01201472    0.0833137 ----
    10   0   0   F    F  1.19D+00 0.01176308 0.00539255 0.03365060 0.01435626    0.0822883 ----
    11   0   0   F    T  3.54D+00 0.01183954 0.00462720 0.05305218 0.02637098    0.0818539 ----
    12   0   0   F    F -3.40D-01 0.01183954 0.00462720 0.01806343 0.00897890    0.0813042 ----
    13   0   0   F    T  2.16D+00 0.01223305 0.00440259 0.03454133 0.01739208    0.0811073 ----
    14   0   0   F    F  1.20D-01 0.01223305 0.00440259 0.00413958 0.00208434    0.0804088 ----
    15   0   0   F    T  1.25D+00 0.01677736 0.00589412 0.04137363 0.01947642    0.0804007 ----
    16   0   0   F    F  2.78D-01 0.01677736 0.00589412 0.01151155 0.00541900    0.0796056 ----
    17   0   0   F    T  1.82D+00 0.01617593 0.00542044 0.05361734 0.02489542    0.0795657 ----
    18   0   0   F    F  4.51D-01 0.01617593 0.00542044 0.02416994 0.01122251    0.0785392 ----
    19   0   0   F    T  3.32D+00 0.00930215 0.00445965 0.07856147 0.03611793    0.0784350 ----
    20   0   0   F    F  1.20D+00 0.00930215 0.00445965 0.09451794 0.04345377    0.0769305 ----
    21   0   0   F    F -1.66D-01 0.00930215 0.00445965 0.01571744 0.00722595    0.0764071 ----
    22   0   0   F    T  1.36D+00 0.02075307 0.00965010 0.16845253 0.07234575    0.0763833 ----
    23   0   0   F    F -2.99D-01 0.02075307 0.00965010 0.05038393 0.02163852    0.0752501 ----
    24   0   0   F    T  2.21D+00 0.01837819 0.00948776 0.13143448 0.05070723    0.0748527 ----
    25   0   0   F    F  3.77D-02 0.01837819 0.00948776 0.00495044 0.00190987    0.0717095 ----
    26   0   0   F    T  2.46D+00 0.02073935 0.00979975 0.13338942 0.05261710    0.0717052 ----
    27   0   0   F    F -1.14D-01 0.02073935 0.00979975 0.01516866 0.00598347    0.0687201 ----
    28   0   0   F    T  1.58D+00 0.03558632 0.01089787 0.10930633 0.04663363    0.0686744 ----
    29   0   0   F    F  5.10D-02 0.03558632 0.01089787 0.00557835 0.00237991    0.0656521 ----
    30   0   0   F    T  1.63D+00 0.02810909 0.01053748 0.12115078 0.04901354    0.0656447 ----
    31   0   0   F    F -9.20D-02 0.02810909 0.01053748 0.01114337 0.00450824    0.0630495 ----
    32   0   0   F    T  3.22D+00 0.01647052 0.00834062 0.12846893 0.04450531    0.0630186 ----
    33   0   0   F    F  2.76D-01 0.01647052 0.00834062 0.03547778 0.01229052    0.0590042 ----
    34   0   0   F    T  1.70D+00 0.04050901 0.01263995 0.16423242 0.05679582    0.0588149 ----
    35   0   0   F    F -2.25D-01 0.04050901 0.01263995 0.03700502 0.01279730    0.0559517 ----
    36   0   0   F    T  1.79D+00 0.02751541 0.00973961 0.12587057 0.04399853    0.0556936 ----
    37   0   0   F    F -3.01D-02 0.02751541 0.00973961 0.00378522 0.00132314    0.0531968 ----
    38   0   0   F    T  4.34D+00 0.01216078 0.00578728 0.11647602 0.04267539    0.0531944 ----
    39   0   0   F    F -3.64D-01 0.01216078 0.00578728 0.04237790 0.01552674    0.0522613 ----
    40   0   0   F    T  2.28D+00 0.01534518 0.00595887 0.07140225 0.02714865    0.0518037 ----
    41   0   0   F    F -3.01D-01 0.01534518 0.00595887 0.02148006 0.00816717    0.0511113 ----
    42   0   0   F    T  1.75D+00 0.02085360 0.00531095 0.04764838 0.01898147    0.0509538 ----
    43   0   0   F    F -3.35D-01 0.02085360 0.00531095 0.01594903 0.00635354    0.0505853 ----
    44   0   0   F    T  2.50D+00 0.00731379 0.00321480 0.02928786 0.01262793    0.0504592 ----
    45   0   0   F    F  1.26D-01 0.00731379 0.00321480 0.00368664 0.00158955    0.0500263 ----
    46   0   0   F    T  2.36D+00 0.00856033 0.00323775 0.03109877 0.01421748    0.0500208 ----
    47   0   0   F    F -1.37D-02 0.00856033 0.00323775 0.00042692 0.00019518    0.0496542 --++
    48   0   0   F    T  3.05D+00 0.00868517 0.00259183 0.03248622 0.01402231    0.0496541 ----
    49   0   0   T    F  3.56D-01 0.00868517 0.00259183 0.01156367 0.00499133    0.0499020 ----
    50   0   0   F    T  1.30D+00 0.00495706 0.00215115 0.01154597 0.00499133    0.0495447 ----
    51   0   0   F    F  1.65D+00 0.00495706 0.00215115 0.01905861 0.00823905    0.0493994 ----
    52   0   0   F    T  3.00D+00 0.00418466 0.00213303 0.03187652 0.01323038    0.0493097 ----
    53   0   0   F    F -3.82D-01 0.00418466 0.00213303 0.01216414 0.00504874    0.0492317 ----
    54   0   0   F    T  2.69D+00 0.00422379 0.00160232 0.01855519 0.00818164    0.0491829 ----
    55   0   0   F    F  8.98D-02 0.00422379 0.00160232 0.00166716 0.00073511    0.0490703 ----
    56   0   0   F    T  1.63D+00 0.00597867 0.00208401 0.02120974 0.00891675    0.0490695 ----
    57   0   0   F    F -1.04D-01 0.00597867 0.00208401 0.00221363 0.00093063    0.0489762 ----
    58   0   0   F    T  1.69D+00 0.00456830 0.00185569 0.01971670 0.00798612    0.0489749 ----
    59   0   0   F    F  1.10D-01 0.00456830 0.00185569 0.00217167 0.00087962    0.0488789 ----
    60   0   0   F    T  4.10D+00 0.00253509 0.00114040 0.02480328 0.00886574    0.0488779 ----
    61   0   0   F    F -2.30D-02 0.00253509 0.00114040 0.00056970 0.00020363    0.0488001 ---+
    62   0   0   F    T  2.01D+00 0.00277602 0.00154903 0.02403173 0.00866211    0.0488000 ----
    63   0   0   F    F  3.39D-02 0.00277602 0.00154903 0.00081541 0.00029391    0.0487252 ---+
    64   0   0   F    T  3.17D+00 0.00405909 0.00118183 0.02459369 0.00895602    0.0487251 ----
    65   0   0   T    F  3.21D-01 0.00405909 0.00118183 0.00789846 0.00287630    0.0487994 ----
    66   0   0   F    T  1.79D+00 0.00189569 0.00082668 0.00774964 0.00287630    0.0487038 ----
    67   0   0   F    F  6.92D-01 0.00189569 0.00082668 0.00536530 0.00199134    0.0486779 ----
    68   0   0   F    T  1.59D+00 0.00292111 0.00110261 0.01246026 0.00486764    0.0486727 ----
    69   0   0   F    F  2.31D+00 0.00292111 0.00110261 0.02883392 0.01126406    0.0486234 ----
    70   0   0   F    T  4.84D+00 0.00267682 0.00112387 0.03849173 0.01613170    0.0485768 ----
    71   0   0   T    F  4.46D-01 0.00267682 0.00112387 0.01717674 0.00719869    0.0485993 ----
    72   0   0   F    T  1.02D+00 0.00614505 0.00161745 0.01667986 0.00719869    0.0485359 ----
    73   0   0   F    F  1.34D+00 0.00614505 0.00161745 0.02229949 0.00962401    0.0484730 ----
    74   0   0   F    T  2.15D+00 0.00390875 0.00170262 0.04265566 0.01682270    0.0484423 ----
    75   0   0   F    F  4.80D-01 0.00390875 0.00170262 0.02049351 0.00808231    0.0483183 ----
    76   0   0   F    T  2.62D+00 0.00508555 0.00186630 0.06535743 0.02490501    0.0483038 ----
    77   0   0   F    F -1.62D-01 0.00508555 0.00186630 0.01057817 0.00403090    0.0481935 ----
    78   0   0   F    T  2.59D+00 0.00350745 0.00168996 0.05402805 0.02087410    0.0481893 ----
    79   0   0   F    F  3.30D-01 0.00350745 0.00168996 0.01780911 0.00688067    0.0480513 ----
    80   0   0   F    T  1.40D+00 0.00852615 0.00264350 0.07442586 0.02775477    0.0480424 ----
    81   0   0   F    F -2.44D-01 0.00852615 0.00264350 0.01818651 0.00678208    0.0479414 ----
    82   0   0   F    T  4.28D+00 0.00363627 0.00149439 0.04583588 0.02097269    0.0479285 ----
    83   0   0   F    F -4.37D-01 0.00363627 0.00149439 0.02004281 0.00917080    0.0478952 ----
    84   0   0   F    T  2.56D+00 0.00327346 0.00140911 0.02357881 0.01180189    0.0478487 ----
    85   0   0   F    F  4.79D-01 0.00327346 0.00140911 0.01129480 0.00565338    0.0477485 ----
    86   0   0   F    T  1.57D+00 0.00686942 0.00212800 0.03541584 0.01745527    0.0477369 ----
    87   0   0   F    F -1.93D-01 0.00686942 0.00212800 0.00685185 0.00337705    0.0476553 ----
    88   0   0   F    T  2.21D+00 0.00376578 0.00159663 0.02905814 0.01407823    0.0476502 ----
    89   0   0   F    F -1.25D-01 0.00376578 0.00159663 0.00363803 0.00176257    0.0475777 ----
    90   0   0   F    T  2.10D+00 0.00344405 0.00152768 0.02857023 0.01231566    0.0475762 ----
    91   0   0   F    F  1.22D+00 0.00344405 0.00152768 0.03486961 0.01503111    0.0474633 ----
    92   0   0   F    F -8.81D-03 0.00344405 0.00152768 0.00030714 0.00013240    0.0474158 --++
    93   0   0   F    T  1.81D+00 0.00558383 0.00240614 0.06729921 0.02721437    0.0474158 ----
    94   0   0   F    F -1.31D-01 0.00558383 0.00240614 0.00882857 0.00357009    0.0472768 ----
    95   0   0   F    T  1.57D+00 0.00749667 0.00249883 0.05339105 0.02364428    0.0472732 ----
    96   0   0   F    F -1.39D-01 0.00749667 0.00249883 0.00744696 0.00329789    0.0471512 ----
    97   0   0   F    T  4.31D+00 0.00432582 0.00148667 0.04780201 0.02034639    0.0471480 ----
    98   0   0   F    F -3.37D-01 0.00432582 0.00148667 0.01613029 0.00686568    0.0470779 ----
    99   0   0   F    T  1.62D+00 0.00685022 0.00190966 0.03106629 0.01348071    0.0470547 ----
   100   0   0   F    F -1.77D-01 0.00685022 0.00190966 0.00551387 0.00239266    0.0469850 ----
   101   0   0   F    T  2.00D+00 0.00475853 0.00151038 0.02472939 0.01108805    0.0469816 ----
   102   0   0   F    F -3.53D-01 0.00475853 0.00151038 0.00872668 0.00391283    0.0469505 ----
   103   0   0   F    T  3.71D+00 0.00182038 0.00084861 0.01605107 0.00717522    0.0469373 ----
   104   0   0   F    F -4.92D-01 0.00182038 0.00084861 0.00789299 0.00352836    0.0469360 ----
   105   0   0   F    T  1.82D+00 0.00203483 0.00082551 0.00758917 0.00364686    0.0469170 ----
   106   0   0   F    F -2.66D-01 0.00203483 0.00082551 0.00202048 0.00097091    0.0469051 ----
   107   0   0   F    T  1.56D+00 0.00165617 0.00072584 0.00613360 0.00267595    0.0469033 ----
   108   0   0   F    F -5.20D-02 0.00165617 0.00072584 0.00031903 0.00013919    0.0468917 --++
   109   0   0   F    T  3.68D+00 0.00103825 0.00041307 0.00549746 0.00253677    0.0468916 ----
   110   0   0   F    F -3.96D-01 0.00103825 0.00041307 0.00217898 0.00100548    0.0468884 ----
   111   0   0   F    T  1.30D+00 0.00134876 0.00051210 0.00285523 0.00153129    0.0468859 ----
   112   0   0   F    T  2.01D+00 0.00083206 0.00036947 0.00287998 0.00153129    0.0468811 ----
   113   0   0   F    F -2.65D-01 0.00083206 0.00036947 0.00076338 0.00040589    0.0468786 ----
   114   0   0   F    T  3.68D+00 0.00048445 0.00022596 0.00239047 0.00112540    0.0468783 ----
   115   0   0   T    F  3.54D-01 0.00048445 0.00022596 0.00084734 0.00039891    0.0468806 ----
   116   0   0   F    T  1.29D+00 0.00047761 0.00019810 0.00076579 0.00039891    0.0468773 ----
   117   0   0   F    T  1.65D+00 0.00039549 0.00016776 0.00101503 0.00039891    0.0468763 ----
   118   0   0   F    F  4.36D-01 0.00039549 0.00016776 0.00044254 0.00017392    0.0468753 --++
   119   0   0   F    T  2.00D+00 0.00030348 0.00014248 0.00150834 0.00057283    0.0468752 ----
   120   0   0   F    T  1.42D+00 0.00048299 0.00017146 0.00142025 0.00057283    0.0468746 ----
   121   0   0   F    T  1.83D+00 0.00030154 0.00013535 0.00131723 0.00057283    0.0468741 ----
   122   0   0   F    F  2.90D-01 0.00030154 0.00013535 0.00038248 0.00016633    0.0468736 --++
   123   0   0   F    T  3.46D+00 0.00035655 0.00013031 0.00165339 0.00073917    0.0468736 ----
   124   0   0   F    F -4.86D-01 0.00035655 0.00013031 0.00080360 0.00035926    0.0468735 ----
   125   0   0   F    T  1.41D+00 0.00042842 0.00013375 0.00089292 0.00037991    0.0468731 ----
   126   0   0   F    T  1.78D+00 0.00025365 0.00011175 0.00089354 0.00037991    0.0468727 ----
   127   0   0   F    T  4.92D+00 0.00014322 0.00006261 0.00071895 0.00037991    0.0468723 -+--
   128   0   0   T    T  1.00D+00 0.00072174 0.00022798 0.00072174 0.00022798    0.0468725 ---+
   129   0   0   T    F  5.00D-01 0.00072174 0.00022798 0.00036087 0.00011399    0.0468737 --++
   130   0   0   T    F  5.00D-01 0.00072174 0.00022798 0.00018044 0.00005700    0.0468727 --++
   131   0   0   T    F  5.00D-01 0.00072174 0.00022798 0.00009022 0.00002850    0.0468724 --++
   132   0   0   T    F  5.00D-01 0.00072174 0.00022798 0.00004511 0.00001425    0.0468723 --++
   133   0   0   T    F  5.00D-01 0.00072174 0.00022798 0.00002255 0.00000712    0.0468723 --++
   134   0   0   T    F  5.00D-01 0.00072174 0.00022798 0.00001128 0.00000356    0.0468723 --++
   135   0   0   T    F  5.00D-01 0.00072174 0.00022798 0.00000564 0.00000178    0.0468723 --++
   136   0   0   T    F  5.00D-01 0.00072174 0.00022798 0.00000282 0.00000089    0.0468723 --++
   137   0   0   T    F  5.00D-01 0.00072174 0.00022798 0.00000141 0.00000045    0.0468723 --++
   138   0   0   T    F  5.00D-01 0.00072174 0.00022798 0.00000070 0.00000022    0.0468723 --++
   139   0   0   T    T  1.00D+00 0.00014362 0.00006280 0.00009643 0.00005212    0.0468723 -+++
   140   0   0   F    T  1.00D+00 0.00013621 0.00005580 0.00013687 0.00005519    0.0468722 -+++
   141   0   0   F    T  1.00D+00 0.00013992 0.00004783 0.00011772 0.00006186    0.0468722 -+++
   142   0   0   F    F  3.10D+00 0.00013992 0.00004783 0.00036466 0.00019161    0.0468721 -+++
   143   0   0   F    T  1.40D+00 0.00019594 0.00007356 0.00054740 0.00025347    0.0468720 -+-+
   144   0   0   F    F  5.52D-01 0.00019594 0.00007356 0.00030199 0.00013983    0.0468719 -+++
   145   0   0   F    T  2.87D+00 0.00015043 0.00006559 0.00090034 0.00039330    0.0468718 -+--
   146   0   0   F    T  1.31D+00 0.00024373 0.00008924 0.00087612 0.00039330    0.0468717 ----
   147   0   0   F    T  3.37D+00 0.00023579 0.00007655 0.00079588 0.00039330    0.0468717 ----
   148   0   0   F    F -4.58D-01 0.00023579 0.00007655 0.00036440 0.00018007    0.0468716 --++
   149   0   0   F    T  3.40D+00 0.00010533 0.00005025 0.00052416 0.00021323    0.0468715 ++-+
   150   0   0   F    T  1.00D+00 0.00042413 0.00012745 0.00112306 0.00044215    0.0468715 ----
   151   0   0   T    T  1.00D+00 0.00070624 0.00024216 0.00070624 0.00024216    0.0468717 ---+
   152   0   0   T    T  1.00D+00 0.00086469 0.00026965 0.00102151 0.00032038    0.0468720 ----
   153   0   0   T    F  5.00D-01 0.00086469 0.00026965 0.00051075 0.00016019    0.0468753 ---+
   154   0   0   T    F  5.00D-01 0.00086469 0.00026965 0.00025538 0.00008010    0.0468727 --++
   155   0   0   T    F  5.00D-01 0.00086469 0.00026965 0.00012769 0.00004005    0.0468719 --++
   156   0   0   T    F  5.00D-01 0.00086469 0.00026965 0.00006384 0.00002002    0.0468717 --++
   157   0   0   T    F  5.00D-01 0.00086469 0.00026965 0.00003192 0.00001001    0.0468716 --++
   158   0   0   T    F  5.00D-01 0.00086469 0.00026965 0.00001596 0.00000501    0.0468715 --++
   159   0   0   T    F  5.00D-01 0.00086469 0.00026965 0.00000798 0.00000250    0.0468715 --++
   160   0   0   T    F  5.00D-01 0.00086469 0.00026965 0.00000399 0.00000125    0.0468715 --++
   161   0   0   T    F  5.00D-01 0.00086469 0.00026965 0.00000200 0.00000063    0.0468715 --++
   162   0   0   T    F  5.00D-01 0.00086469 0.00026965 0.00000100 0.00000031    0.0468715 --++
   163   0   0   T    T  1.00D+00 0.00042599 0.00012798 0.00010540 0.00004718    0.0468715 --++
   164   0   0   F    T  1.00D+00 0.00039201 0.00011801 0.00040660 0.00012244    0.0468714 --++
   165   0   0   F    T  1.08D+00 0.00031834 0.00010370 0.00030912 0.00012244    0.0468714 --++
   166   0   0   T    F  5.00D-01 0.00031834 0.00010370 0.00015456 0.00006122    0.0468717 --++
   167   0   0   T    F  5.00D-01 0.00031834 0.00010370 0.00007728 0.00003061    0.0468715 --++
   168   0   0   T    F  5.00D-01 0.00031834 0.00010370 0.00003864 0.00001530    0.0468714 --++
   169   0   0   T    F  5.00D-01 0.00031834 0.00010370 0.00001932 0.00000765    0.0468714 --++
   170   0   0   T    F  5.00D-01 0.00031834 0.00010370 0.00000966 0.00000383    0.0468714 --++
   171   0   0   T    F  5.00D-01 0.00031834 0.00010370 0.00000483 0.00000191    0.0468714 --++
   172   0   0   T    F  5.00D-01 0.00031834 0.00010370 0.00000242 0.00000096    0.0468714 --++
   173   0   0   T    F  5.00D-01 0.00031834 0.00010370 0.00000121 0.00000048    0.0468714 --++
   174   0   0   T    F  5.00D-01 0.00031834 0.00010370 0.00000060 0.00000024    0.0468714 --++
   175   0   0   T    T  1.00D+00 0.00031922 0.00010393 0.00027669 0.00009652    0.0468714 --++
   176   0   0   F    T  1.63D+00 0.00016715 0.00006225 0.00022001 0.00009652    0.0468713 -+++
   177   0   0   T    T  1.00D+00 0.00044824 0.00013255 0.00044824 0.00013255    0.0468713 --++
   178   0   0   T    T  1.00D+00 0.00065046 0.00019794 0.00071637 0.00021665    0.0468716 ---+
   179   0   0   T    F  5.00D-01 0.00065046 0.00019794 0.00035819 0.00010833    0.0468728 --++
   180   0   0   T    F  5.00D-01 0.00065046 0.00019794 0.00017909 0.00005416    0.0468717 --++
   181   0   0   T    F  5.00D-01 0.00065046 0.00019794 0.00008955 0.00002708    0.0468714 --++
   182   0   0   T    F  5.00D-01 0.00065046 0.00019794 0.00004477 0.00001354    0.0468713 --++
   183   0   0   T    F  5.00D-01 0.00065046 0.00019794 0.00002239 0.00000677    0.0468713 --++
   184   0   0   T    F  5.00D-01 0.00065046 0.00019794 0.00001119 0.00000339    0.0468713 --++
   185   0   0   T    F  5.00D-01 0.00065046 0.00019794 0.00000560 0.00000169    0.0468713 --++
   186   0   0   T    F  5.00D-01 0.00065046 0.00019794 0.00000280 0.00000085    0.0468713 --++
   187   0   0   T    F  5.00D-01 0.00065046 0.00019794 0.00000140 0.00000042    0.0468713 --++
   188   0   0   T    F  5.00D-01 0.00065046 0.00019794 0.00000070 0.00000021    0.0468713 --++
   189   0   0   T    T  1.00D+00 0.00016845 0.00006254 0.00013435 0.00004734    0.0468713 -+++
   190   0   0   F    T  1.21D+00 0.00011023 0.00003893 0.00013539 0.00004734    0.0468712 ====
 ****************************
 MOLECULAR MECHANICS FUNCTION
 ****************************
 Atomic parameters:
 Center  VDW
      1 1.9080 0.0860000
      2 1.7210 0.2104000
      3 1.9080 0.1094000
      4 1.4870 0.0157000
      5 1.4870 0.0157000
      6 1.8750 0.1700000
      7 0.6000 0.0157000
      8 0.6000 0.0157000
      9 1.6612 0.2100000
     10 0.0000 0.0000000
 Molecular mechanics terms:
 NBDir 3 1      0      0
 HrmStr1  1- 2  431.53 1.3510
 HrmStr1  1- 3  294.15 1.5090
 HrmStr1  1- 9  946.08 1.2030
 HrmStr1  2-10  566.76 0.9680
 HrmStr1  3- 4  358.05 1.0960
 HrmStr1  3- 5  358.05 1.0960
 HrmStr1  3- 6  380.82 1.4520
 HrmStr1  6- 7  506.01 1.0110
 HrmStr1  6- 8  506.01 1.0110
 HrmBnd1  1- 2-10  56.55 107.23
 HrmBnd1  1- 3- 4  46.41 106.89
 HrmBnd1  1- 3- 5  46.41 106.89
 HrmBnd1  1- 3- 6  59.93 110.61
 HrmBnd1  2- 1- 3  67.92 111.72
 HrmBnd1  2- 1- 9  91.40 123.02
 HrmBnd1  3- 1- 9  62.83 125.24
 HrmBnd1  3- 6- 7  52.60 110.71
 HrmBnd1  3- 6- 8  52.60 110.71
 HrmBnd1  4- 3- 5  44.68 106.22
 HrmBnd1  4- 3- 6  52.45 112.94
 HrmBnd1  5- 3- 6  52.45 112.94
 HrmBnd1  7- 6- 8  47.09 108.63
 AmbTrs  3- 1- 2-10   0 180   0   0  0.0000 14.5000  0.0000  0.0000  2.0
 AmbTrs  9- 1- 2-10   0   0   0   0  0.0000 14.5000  0.0000  0.0000  2.0
 AmbTrs  2- 1- 3- 4   0   0   0   0  0.0000 14.5000  0.0000  0.0000  6.0
 AmbTrs  2- 1- 3- 5   0   0   0   0  0.0000 14.5000  0.0000  0.0000  6.0
 AmbTrs  2- 1- 3- 6   0   0   0   0  0.0000 14.5000  0.0000  0.0000  6.0
 AmbTrs  9- 1- 3- 4   0   0   0   0  0.0000 14.5000  0.0000  0.0000  6.0
 AmbTrs  9- 1- 3- 5   0   0   0   0  0.0000 14.5000  0.0000  0.0000  6.0
 AmbTrs  9- 1- 3- 6   0   0   0   0  0.0000 14.5000  0.0000  0.0000  6.0
 AmbTrs  1- 3- 6- 7   0 180   0   0  0.0000 25.6300  0.0000  0.0000  6.0
 AmbTrs  1- 3- 6- 8   0 180   0   0  0.0000 25.6300  0.0000  0.0000  6.0
 AmbTrs  4- 3- 6- 7   0   0   0   0  0.0000 16.9300  0.0000  0.0000  6.0
 AmbTrs  4- 3- 6- 8   0   0   0   0  0.0000 16.9300  0.0000  0.0000  6.0
 AmbTrs  5- 3- 6- 7   0   0   0   0  0.0000 16.9300  0.0000  0.0000  6.0
 AmbTrs  5- 3- 6- 8   0   0   0   0  0.0000 16.9300  0.0000  0.0000  6.0
 NBPair  2- 1 3 1      0      0 -1.000 -1.000
 NBPair  3- 2 3 1      0      0 -1.000 -1.000
 NBPair 10- 3 3 1      0      0 -0.500 -0.167
 NBPair  9- 2 3 1      0      0 -1.000 -1.000
 NBPair 10- 9 3 1      0      0 -0.500 -0.167
 NBPair  3- 1 3 1      0      0 -1.000 -1.000
 NBPair  4- 2 3 1      0      0 -0.500 -0.167
 NBPair  5- 2 3 1      0      0 -0.500 -0.167
 NBPair  6- 2 3 1      0      0 -0.500 -0.167
 NBPair  9- 3 3 1      0      0 -1.000 -1.000
 NBPair  9- 4 3 1      0      0 -0.500 -0.167
 NBPair  9- 5 3 1      0      0 -0.500 -0.167
 NBPair  9- 6 3 1      0      0 -0.500 -0.167
 NBPair  9- 1 3 1      0      0 -1.000 -1.000
 NBPair 10- 1 3 1      0      0 -1.000 -1.000
 NBPair 10- 2 3 1      0      0 -1.000 -1.000
 NBPair  4- 1 3 1      0      0 -1.000 -1.000
 NBPair  5- 1 3 1      0      0 -1.000 -1.000
 NBPair  6- 1 3 1      0      0 -1.000 -1.000
 NBPair  4- 3 3 1      0      0 -1.000 -1.000
 NBPair  5- 4 3 1      0      0 -1.000 -1.000
 NBPair  6- 4 3 1      0      0 -1.000 -1.000
 NBPair  5- 3 3 1      0      0 -1.000 -1.000
 NBPair  6- 5 3 1      0      0 -1.000 -1.000
 NBPair  6- 3 3 1      0      0 -1.000 -1.000
 NBPair  7- 1 3 1      0      0 -0.500 -0.167
 NBPair  8- 1 3 1      0      0 -0.500 -0.167
 NBPair  7- 4 3 1      0      0 -0.500 -0.167
 NBPair  8- 4 3 1      0      0 -0.500 -0.167
 NBPair  7- 5 3 1      0      0 -0.500 -0.167
 NBPair  8- 5 3 1      0      0 -0.500 -0.167
 NBPair  7- 3 3 1      0      0 -1.000 -1.000
 NBPair  8- 3 3 1      0      0 -1.000 -1.000
 NBPair  7- 6 3 1      0      0 -1.000 -1.000
 NBPair  8- 7 3 1      0      0 -1.000 -1.000
 NBPair  8- 6 3 1      0      0 -1.000 -1.000
 Energy per function type:
 Direct Coulomb + vdW (small)                           0.003562113
 Direct Coulomb (large)                                -0.130139219
 Direct vdW (large)                                   268.850917429
 Non-direct Coulomb + vdW (small)                      -0.012827775
 Non-direct Coulomb (large)                             0.138023647
 Non-direct vdW (large)                              -268.850917429
 Harmonic stretch I                                     0.000137307
 Harmonic bend I                                        0.009927564
 Amber torsion                                          0.038187604
 Energy per function class:
        Coulomb              -0.003030374
    Vanderwaals               0.001649139
     Stretching               0.000137307
        Bending               0.009927564
        Torsion               0.038187604
 Energy=    4.687124026E-02 NIter=   0.
 Dipole moment=       0.026497      -0.773533      -0.041492
 Leave Link  402 at Sun Nov 26 11:20:10 2023, MaxMem=   134217728 cpu:               0.3 elap:               0.3
 (Enter /home/emanuele/chem_software/gaussian//gdv/l716.exe)
 Dipole        = 2.64965382D-02-7.73532773D-01-4.14921343D-02
 -------------------------------------------------------------------
 Center     Atomic                   Forces (Hartrees/Bohr)
 Number     Number              X              Y              Z
 -------------------------------------------------------------------
      1        6          -0.000025815    0.000110231    0.000023674
      2        8           0.000073771    0.000039264   -0.000031911
      3        6           0.000018136   -0.000026641   -0.000014852
      4        1           0.000001431    0.000017649   -0.000005361
      5        1           0.000013876   -0.000042899    0.000039365
      6        7           0.000001798   -0.000029872   -0.000033759
      7        1          -0.000037374   -0.000014851    0.000016620
      8        1          -0.000003489    0.000027559    0.000006127
      9        8          -0.000021640   -0.000097853   -0.000041188
     10        1          -0.000020693    0.000017412    0.000041286
 -------------------------------------------------------------------
 Cartesian Forces:  Max     0.000110231 RMS     0.000038935
 Z-matrix is all fixed cartesians, so copy forces.
 Leave Link  716 at Sun Nov 26 11:20:10 2023, MaxMem=   134217728 cpu:               0.0 elap:               0.0
 (Enter /home/emanuele/chem_software/gaussian//gdv/l103.exe)

 GradGradGradGradGradGradGradGradGradGradGradGradGradGradGradGradGradGrad
 Berny optimization.
 Search for a local minimum.
 Step number   1 out of a maximum of    2
 All quantities printed in internal units (Hartrees-Bohrs-Radians)
 RMS Force = .38935D-04 SwitMx=.10000D-02 MixMth= 2
 Mixed Optimization -- En-DIIS/RFO-DIIS
 Second derivative matrix not updated -- unit matrix used.
 ITU=  0
 RFO step:  Lambda=-4.54778691D-08 EMin= 1.00000000D+00
 Linear search not attempted -- first point.
 Variable       Old X    -DE/DX   Delta X   Delta X   Delta X     New X
                                 (Linear)    (Quad)   (Total)
    X1       -1.22554  -0.00003   0.00000  -0.00003  -0.00003  -1.22556
    Y1       -0.10431   0.00011   0.00000   0.00011   0.00011  -0.10420
    Z1        0.80070   0.00002   0.00000   0.00002   0.00002   0.80072
    X2       -2.20158   0.00007   0.00000   0.00007   0.00007  -2.20150
    Y2       -0.22435   0.00004   0.00000   0.00004   0.00004  -0.22431
    Z2       -1.55486  -0.00003   0.00000  -0.00003  -0.00003  -1.55489
    X3        1.33301   0.00002   0.00000   0.00002   0.00002   1.33303
    Y3       -1.42025  -0.00003   0.00000  -0.00003  -0.00003  -1.42028
    Z3        0.81441  -0.00001   0.00000  -0.00001  -0.00001   0.81439
    X4        1.69621   0.00000   0.00000   0.00000   0.00000   1.69621
    Y4       -1.70239   0.00002   0.00000   0.00002   0.00002  -1.70238
    Z4        2.83479  -0.00001   0.00000  -0.00001  -0.00001   2.83479
    X5        0.93299   0.00001   0.00000   0.00001   0.00001   0.93301
    Y5       -3.29049  -0.00004   0.00000  -0.00004  -0.00004  -3.29053
    Z5        0.01565   0.00004   0.00000   0.00004   0.00004   0.01569
    X6        3.25116   0.00000   0.00000   0.00000   0.00000   3.25116
    Y6        0.04691  -0.00003   0.00000  -0.00003  -0.00003   0.04688
    Z6       -0.52361  -0.00003   0.00000  -0.00003  -0.00003  -0.52365
    X7        2.82379  -0.00004   0.00000  -0.00004  -0.00004   2.82375
    Y7        1.79934  -0.00001   0.00000  -0.00001  -0.00001   1.79933
    Z7       -1.15908   0.00002   0.00000   0.00002   0.00002  -1.15906
    X8        5.07935  -0.00000   0.00000  -0.00000  -0.00000   5.07934
    Y8       -0.50856   0.00003   0.00000   0.00003   0.00003  -0.50853
    Z8       -0.49486   0.00001   0.00000   0.00001   0.00001  -0.49486
    X9       -1.47772  -0.00002   0.00000  -0.00002  -0.00002  -1.47774
    Y9        1.80843  -0.00010   0.00000  -0.00010  -0.00010   1.80833
    Z9        2.00152  -0.00004   0.00000  -0.00004  -0.00004   2.00148
   X10       -4.00954  -0.00002   0.00000  -0.00002  -0.00002  -4.00956
   Y10       -0.03939   0.00002   0.00000   0.00002   0.00002  -0.03938
   Z10       -1.36469   0.00004   0.00000   0.00004   0.00004  -1.36465
         Item               Value     Threshold  Converged?
 Maximum Force            0.000110     0.000450     YES
 RMS     Force            0.000039     0.000300     YES
 Maximum Displacement     0.000110     0.001800     YES
 RMS     Displacement     0.000039     0.001200     YES
 Predicted change in Energy=-2.273893D-08
 Optimization completed.
    -- Stationary point found.
 Largest change from initial coordinates is atom    7       0.374 Angstoms.
 GradGradGradGradGradGradGradGradGradGradGradGradGradGradGradGradGradGrad

 Leave Link  103 at Sun Nov 26 11:20:10 2023, MaxMem=   134217728 cpu:               0.0 elap:               0.0
 (Enter /home/emanuele/chem_software/gaussian//gdv/l202.exe)
                          Input orientation:                          
 ---------------------------------------------------------------------
 Center     Atomic      Atomic             Coordinates (Angstroms)
 Number     Number       Type             X           Y           Z
 ---------------------------------------------------------------------
      1          6    20001002       -0.648527   -0.055197    0.423710
      2          8    20001022       -1.165025   -0.118719   -0.822795
      3          6    20001001        0.705398   -0.751566    0.430967
      4          1    20001034        0.897594   -0.900868    1.500108
      5          1    20001034        0.493719   -1.741250    0.008282
      6          7    20001020        1.720439    0.024826   -0.277084
      7          1    20001029        1.494284    0.952172   -0.613358
      8          1    20001029        2.687875   -0.269118   -0.261871
      9          8    20001025       -0.781976    0.956979    1.059159
     10          1    20001031       -2.121755   -0.020847   -0.722165
 ---------------------------------------------------------------------
                    Distance matrix (angstroms):
                    1          2          3          4          5
     1  C    0.000000
     2  O    1.350770   0.000000
     3  C    1.522530   2.338995   0.000000
     4  H    2.065015   3.203441   1.096492   0.000000
     5  H    2.078481   2.464697   1.096788   1.759233   0.000000
     6  N    2.471744   2.940120   1.460968   2.166194   2.169170
     7  H    2.584945   2.874473   2.148413   2.873419   2.939743
     8  H    3.412824   3.896421   2.154761   2.590133   2.656027
     9  O    1.202541   2.201273   2.350752   2.543028   3.164203
    10  H    1.866711   0.966974   3.139500   3.850897   3.214661
                    6          7          8          9         10
     6  N    0.000000
     7  H    1.012026   0.000000
     8  H    1.011220   1.743488   0.000000
     9  O    2.986058   2.824659   3.910026   0.000000
    10  H    3.868157   3.746244   4.837980   2.433982   0.000000
 Symmetry turned off by external request.
 Stoichiometry    C2H5NO2
 Framework group  C1[X(C2H5NO2)]
 Deg. of freedom    24
 Full point group                 C1      NOp   1
 Rotational constants (GHZ):           8.5793412           4.2169580           3.4990168
 Leave Link  202 at Sun Nov 26 11:20:10 2023, MaxMem=   134217728 cpu:               0.0 elap:               0.0
 (Enter /home/emanuele/chem_software/gaussian//gdv/l9999.exe)
 Unable to Open any file for archive entry.
 1\1\GINC-EMANUELE-XPS-13-9343\FOpt\AMBER\ZDO\C2H5N1O2\EMANUELE\26-Nov-
 2023\0\\#p Amber=(SoftFirst,Print) geom=nocrowd nosymm opt=(maxcycle=3
 00)\\Title\\0,1\C,-0.6485271968,-0.0551968402,0.4237096363\O,-1.165024
 8247,-0.1187186013,-0.8227954206\C,0.7053982837,-0.7515660745,0.430966
 5907\H,0.8975938671,-0.9008684936,1.500108336\H,0.4937190722,-1.741249
 9756,0.0082823552\N,1.7204391593,0.024825572,-0.2770843537\H,1.4942839
 439,0.9521718937,-0.6133578203\H,2.6878752099,-0.2691177358,-0.2618712
 177\O,-0.781976348,0.9569788374,1.0591591154\H,-2.1217551666,-0.020846
 5821,-0.7221652212\\Version=ES64L-GDVRevJ.14\HF=0.0468712\RMSD=0.000e+
 00\RMSF=3.893e-05\Dipole=0.0264965,-0.7735328,-0.0414921\PG=C01 [X(C2H
 5N1O2)]\\@
 The archive entry for this job was punched.


 ERROR IS THE FORCE THAT WELDS MEN TOGETHER....
 TRUTH IS COMMUNICATED TO MEN ONLY BY DEEDS OF TRUTH.
           TOLSTOI,MY RELIGION
 Job cpu time:       0 days  0 hours  0 minutes  0.8 seconds.
 Elapsed time:       0 days  0 hours  0 minutes  0.8 seconds.
 File lengths (MBytes):  RWF=      6 Int=      0 D2E=      0 Chk=      1 Scr=      1
 Normal termination of Gaussian DV at Sun Nov 26 11:20:10 2023.
