 Entering Gaussian System, Link 0=/home/emanuele/chem_software/gaussian//g09/g09
 Input=1_mm_80.gjf
 Output=1_mm_80.log
 Initial command:
 /home/emanuele/chem_software/gaussian//gdv/l1.exe "/home/emanuele/chem_software/gaussian/scratch/Gau-13843.inp" -scrdir="/home/emanuele/chem_software/gaussian/scratch/"
 Entering Link 1 = /home/emanuele/chem_software/gaussian//gdv/l1.exe PID=     13845.
  
 Copyright (c) 1988-2020, Gaussian, Inc.  All Rights Reserved.
  
 This is the private, development version of
 the Gaussian(R) DV system of programs. It is based on
 the Gaussian(R) 16 system (copyright 2016, Gaussian, Inc.),
 the Gaussian(R) 09 system (copyright 2009, Gaussian, Inc.),
 the Gaussian(R) 03 system (copyright 2003, Gaussian, Inc.),
 the Gaussian(R) 98 system (copyright 1998, Gaussian, Inc.),
 the Gaussian(R) 94 system (copyright 1995, Gaussian, Inc.),
 the Gaussian 92(TM) system (copyright 1992, Gaussian, Inc.),
 the Gaussian 90(TM) system (copyright 1990, Gaussian, Inc.),
 the Gaussian 88(TM) system (copyright 1988, Gaussian, Inc.),
 the Gaussian 86(TM) system (copyright 1986, Carnegie Mellon
 University), and the Gaussian 82(TM) system (copyright 1983,
 Carnegie Mellon University). Gaussian is a federally registered
 trademark of Gaussian, Inc.
  
 This software contains proprietary and confidential information,
 including trade secrets, belonging to Gaussian, Inc.
  
 This software is provided under written license and may be
 used, copied, transmitted, or stored only in accord with that
 written license.
  
 The following legend is applicable only to US Government
 contracts under FAR:
  
                    RESTRICTED RIGHTS LEGEND
  
 Use, reproduction and disclosure by the US Government is
 subject to restrictions as set forth in subparagraphs (a)
 and (c) of the Commercial Computer Software - Restricted
 Rights clause in FAR 52.227-19.
  
 Gaussian, Inc.
 340 Quinnipiac St., Bldg. 40, Wallingford CT 06492
  
  
 ---------------------------------------------------------------
 Warning -- This program may not be used in any manner that
 competes with the business of Gaussian, Inc. or will provide
 assistance to any competitor of Gaussian, Inc.  The licensee
 of this program is prohibited from giving any competitor of
 Gaussian, Inc. access to this program.  By using this program,
 the user acknowledges that Gaussian, Inc. is engaged in the
 business of creating and licensing software in the field of
 computational chemistry and represents and warrants to the
 licensee that it is not a competitor of Gaussian, Inc. and that
 it will not use this program in any manner prohibited above.
 ---------------------------------------------------------------
  

 Cite this work as:
 Gaussian Development Version, Revision J.14,
 M. J. Frisch, G. W. Trucks, H. B. Schlegel, G. E. Scuseria, 
 M. A. Robb, J. R. Cheeseman, G. Scalmani, V. Barone, 
 G. A. Petersson, H. Nakatsuji, X. Li, A. V. Marenich, M. Caricato, 
 J. Bloino, B. G. Janesko, J. Zheng, R. Gomperts, B. Mennucci, 
 H. P. Hratchian, J. V. Ortiz, A. F. Izmaylov, J. L. Sonnenberg, 
 D. Williams-Young, F. Ding, F. Lipparini, F. Egidi, J. Goings, 
 B. Peng, A. Petrone, T. Henderson, D. Ranasinghe, V. G. Zakrzewski, 
 J. Gao, N. Rega, G. Zheng, W. Liang, M. Hada, M. Ehara, K. Toyota, 
 R. Fukuda, J. Hasegawa, M. Ishida, T. Nakajima, Y. Honda, O. Kitao, 
 H. Nakai, T. Vreven, K. Throssell, J. A. Montgomery, Jr., 
 J. E. Peralta, F. Ogliaro, M. J. Bearpark, J. J. Heyd, 
 E. N. Brothers, K. N. Kudin, V. N. Staroverov, T. A. Keith, 
 R. Kobayashi, J. Normand, K. Raghavachari, A. P. Rendell, 
 J. C. Burant, S. S. Iyengar, J. Tomasi, M. Cossi, J. M. Millam, 
 M. Klene, C. Adamo, R. Cammi, J. W. Ochterski, R. L. Martin, 
 K. Morokuma, O. Farkas, J. B. Foresman, and D. J. Fox, 
 Gaussian, Inc., Wallingford CT, 2020.
 
 ******************************************
 Gaussian DV:  ES64L-GDVRevJ.14 29-Dec-2020
                29-Nov-2023 
 ******************************************
 %mem=1GB
 %nprocshared=1
 Will use up to    1 processors via shared memory.
 %chk=1_mm_80.chk
 -----------------------------------------------------------------
 #p Amber=(SoftFirst,Print) geom=nocrowd nosymm opt=(maxcycle=300)
 -----------------------------------------------------------------
 1/6=300,10=10,18=4000020,19=15,37=210000000,38=1,56=2,64=203/1,3;
 2/9=110,12=1,15=1,40=1/2;
 3/5=30,11=9,25=1,30=1,41=10030000,43=2,71=1/1;
 4/20=11,22=1001,24=3,119=11/2;
 7/30=1,44=-1/16;
 1/6=300,10=10,18=4000020,19=15,64=203/3(2);
 2/9=110,12=1,15=1/2;
 99//99;
 2/9=110,12=1,15=1/2;
 3/5=30,11=9,25=1,30=1,41=10030000,43=2,71=1/1;
 4/16=2,20=11,22=1001,24=3,119=11/2;
 7/30=1,44=-1/16;
 1/6=300,10=10,18=4000020,19=15,64=203/3(-4);
 2/9=110,12=1,15=1/2;
 99/9=10/99;
 Leave Link    1 at Wed Nov 29 12:05:29 2023, MaxMem=   134217728 cpu:               0.0 elap:               0.0
 (Enter /home/emanuele/chem_software/gaussian//gdv/l101.exe)
 -----
 Title
 -----
 Symbolic Z-matrix:
 Charge =  0 Multiplicity = 1
 C-C-+0.299289        -0.64019  -0.22659   0.32191 
 O-OH--0.289770       -0.70305  -0.11506  -1.05109 
 C-CT--0.035454        0.79478  -0.19503   0.80331 
 H-HC-+0.090426        1.12289   0.52672   1.59246 
 H-HC-+0.095387        0.71783  -1.19474   1.31473 
 N-N3--0.336253        1.8396   -0.35345  -0.23088 
 H-H-+0.142619         1.32586  -0.48132  -1.11327 
 H-H-+0.128282         2.11615   0.59648  -0.47724 
 O-O2--0.308037       -1.65636  -0.3347    0.96195 
 H-HO-+0.213510       -1.6355   -0.1459   -1.39693 
 
 ITRead=  3  3  3  3  3  3  3  3  3  3
 MicOpt=  0  0  0  0  0  0  0  0  0  0
 NAtoms=     10 NQM=        0 NQMF=       0 NMMI=      0 NMMIF=      0
                NMic=      10 NMicF=      0.
                    Isotopes and Nuclear Properties:
 (Nuclear quadrupole moments (NQMom) in fm**2, nuclear magnetic moments (NMagM)
  in nuclear magnetons)

  Atom         1           2           3           4           5           6           7           8           9          10
 IAtWgt=          12          16          12           1           1          14           1           1          16           1
 AtmWgt=  12.0000000  15.9949146  12.0000000   1.0078250   1.0078250  14.0030740   1.0078250   1.0078250  15.9949146   1.0078250
 NucSpn=           0           0           0           1           1           2           1           1           0           1
 AtZEff=  -0.0000000  -0.0000000  -0.0000000  -0.0000000  -0.0000000  -0.0000000  -0.0000000  -0.0000000  -0.0000000  -0.0000000
 NQMom=    0.0000000   0.0000000   0.0000000   0.0000000   0.0000000   2.0440000   0.0000000   0.0000000   0.0000000   0.0000000
 NMagM=    0.0000000   0.0000000   0.0000000   2.7928460   2.7928460   0.4037610   2.7928460   2.7928460   0.0000000   2.7928460
 AtZNuc=   6.0000000   8.0000000   6.0000000   1.0000000   1.0000000   7.0000000   1.0000000   1.0000000   8.0000000   1.0000000
 Generating MM parameters.
 I=    1 IAn=  6 Valence= 5.
          JB=  1 J=    2 IAn=  8 IBT=12 Dist= 1.38D+00
          JB=  2 J=    3 IAn=  6 IBT= 1 Dist= 1.51D+00
          JB=  3 J=    9 IAn=  8 IBT= 2 Dist= 1.21D+00
 I=    2 IAn=  8 Valence= 3.
          JB=  1 J=    1 IAn=  6 IBT=12 Dist= 1.38D+00
          JB=  2 J=   10 IAn=  1 IBT= 1 Dist= 9.95D-01
 Read MM parameter file:
 Include all MM classes

 MM sanity checks:
 All charges sum to:               -0.00000100
 Charges of atoms sum to:          -0.00000100
 WARNING -- The following centers have non-zero partial charges, but zero Vanderwaals
 parameters.  These centers can collapse onto other centers with non-zero charge.
   Center  Layer   Charge
     10 H    R    0.213510
 MMInit generated parameter data with length LenPar=        2069.
 MM Charge=             -0.0000 electrons
 MM Dipole moment (Debye):
    X=              0.7539    Y=              0.5033    Z=             -0.4567  Tot=              1.0150
 MM Quadrupole moment (Debye-Ang):
   XX=             -2.2409   YY=              0.8556   ZZ=              1.9302
   XY=              0.8015   XZ=              3.5286   YZ=              0.1434
 MM Traceless Quadrupole moment (Debye-Ang):
   XX=             -2.4225   YY=              0.6740   ZZ=              1.7485
   XY=              0.8015   XZ=              3.5286   YZ=              0.1434
 MM Octapole moment (Debye-Ang**2):
  XXX=              0.4235  YYY=             -0.5532  ZZZ=             -0.7337  XYY=              1.1073
  XXY=              3.9295  XXZ=             -7.1234  XZZ=              2.9626  YZZ=             -0.3296
  YYZ=              0.6650  XYZ=             -1.1587
 MM Hexadecapole moment (Debye-Ang**3):
 XXXX=             -7.1769 YYYY=              1.0417 ZZZZ=              6.1257 XXXY=              4.8402
 XXXZ=             10.9959 YYYX=             -0.2594 YYYZ=             -0.8688 ZZZX=              6.8751
 ZZZY=              0.7569 XXYY=              0.6875 XXZZ=              4.4548 YYZZ=              1.5442
 XXYZ=              1.2590 YYXZ=              0.7437 ZZXY=             -0.7037
 Leave Link  101 at Wed Nov 29 12:05:29 2023, MaxMem=   134217728 cpu:               0.2 elap:               0.3
 (Enter /home/emanuele/chem_software/gaussian//gdv/l103.exe)

 GradGradGradGradGradGradGradGradGradGradGradGradGradGradGradGradGradGrad
 Berny optimization.
 Initialization pass.
 No Z-matrix variables, so optimization will use Cartesian coordinates.
 Trust Radius=1.00D-01 FncErr=1.00D-07 GrdErr=1.00D-07 EigMax=2.50D+02 EigMin=1.00D-04
 Number of steps in this run=      2 maximum allowed number of steps=      2.
 GradGradGradGradGradGradGradGradGradGradGradGradGradGradGradGradGradGrad

 Leave Link  103 at Wed Nov 29 12:05:29 2023, MaxMem=   134217728 cpu:               0.0 elap:               0.0
 (Enter /home/emanuele/chem_software/gaussian//gdv/l202.exe)
                          Input orientation:                          
 ---------------------------------------------------------------------
 Center     Atomic      Atomic             Coordinates (Angstroms)
 Number     Number       Type             X           Y           Z
 ---------------------------------------------------------------------
      1          6    20001002       -0.640185   -0.226590    0.321913
      2          8    20001022       -0.703048   -0.115060   -1.051089
      3          6    20001001        0.794783   -0.195032    0.803307
      4          1    20001034        1.122891    0.526724    1.592461
      5          1    20001034        0.717834   -1.194739    1.314728
      6          7    20001020        1.839597   -0.353449   -0.230884
      7          1    20001029        1.325862   -0.481320   -1.113266
      8          1    20001029        2.116148    0.596475   -0.477237
      9          8    20001025       -1.656360   -0.334701    0.961948
     10          1    20001031       -1.635497   -0.145897   -1.396929
 ---------------------------------------------------------------------
                    Distance matrix (angstroms):
                    1          2          3          4          5
     1  C    0.000000
     2  O    1.378958   0.000000
     3  C    1.513892   2.385095   0.000000
     4  H    2.300046   3.276324   1.118638   0.000000
     5  H    1.940930   2.963394   1.125561   1.790151   0.000000
     6  N    2.543815   2.682277   1.478609   2.147780   2.086873
     7  H    2.447441   2.062641   2.009293   2.894531   2.602656
     8  H    2.985540   2.963689   2.003068   2.296753   2.893936
     9  O    1.205796   2.238161   2.460239   2.977219   2.549689
    10  H    1.987857   0.994996   3.278676   4.122812   3.740497
                    6          7          8          9         10
     6  N    0.000000
     7  H    1.029015   0.000000
     8  H    1.019571   1.480110   0.000000
     9  O    3.693902   3.636160   4.143689   0.000000
    10  H    3.671378   2.993764   3.933420   2.366513   0.000000
 Symmetry turned off by external request.
 Stoichiometry    C2H5NO2
 Framework group  C1[X(C2H5NO2)]
 Deg. of freedom    24
 Full point group                 C1      NOp   1
 Rotational constants (GHZ):          10.0774241           4.0035530           2.9551293
 Leave Link  202 at Wed Nov 29 12:05:29 2023, MaxMem=   134217728 cpu:               0.0 elap:               0.0
 (Enter /home/emanuele/chem_software/gaussian//gdv/l301.exe)
 Standard basis: Dummy (5D, 7F)
    10 basis functions,    10 primitive gaussians,    10 cartesian basis functions
     7 alpha electrons        7 beta electrons
       nuclear repulsion energy        22.8735497950 Hartrees.
 IExCor=       0 DFT=F Ex=HF Corr=None N6=None ScaHFX=  1.000000
 ScaDFX=  1.000000  1.000000  1.000000  1.000000  1.000000  0.000000
 ScaDFX=  0.000000  0.000000  0.000000  0.000000  0.000000  0.000000
 IRadAn=      5 IRanWt=     -1 IRanGd=            0 ICorTp=0 IEmpDi=  4
 NAtoms=   10 NActive=   10 NUniq=   10 SFac= 1.00D+00 NAtFMM=   60 NAOKFM=F Big=F
 Integral buffers will be    131072 words long.
 Raffenetti 1 integral format.
 Two-electron integral symmetry is turned off.
 Leave Link  301 at Wed Nov 29 12:05:29 2023, MaxMem=   134217728 cpu:               0.0 elap:               0.0
 (Enter /home/emanuele/chem_software/gaussian//gdv/l402.exe)
 AMBER calculation of energy and first derivatives.
 NRF= 0 NRA=   0 NVA=  10 HaveQM=F NVQ=       0
 Convergence limit is  0.750E-04 MaxStp= 10000 StMxLn= 3.00D-04 StpMin= 1.00D-06.
 Convergence criteria             0.00011250 0.00007500 0.00045000 0.00030000
  Step  NS  ND Rises OKQ   Scale  Max. Force  RMS Force Max. Disp.  RMS Disp.     Energy   Flag
     1   0   0   F    T  1.00D+00 0.04874481 0.02010823 0.04874481 0.02010823    0.0782343 ----
     2   0   0   F    F  4.12D-01 0.04874481 0.02010823 0.02007706 0.00828220    0.0704291 ----
     3   0   0   F    T  2.76D+00 0.01610737 0.00933978 0.05730433 0.02839043    0.0697073 ----
     4   0   0   F    F  7.68D-01 0.01610737 0.00933978 0.04403830 0.02181801    0.0645114 ----
     5   0   0   F    T  2.88D+00 0.03128945 0.01067290 0.11401529 0.05020845    0.0632950 ----
     6   0   0   F    F -4.87D-01 0.03128945 0.01067290 0.05552895 0.02445305    0.0630707 ----
     7   0   0   F    T  3.56D+00 0.01279477 0.00566144 0.06298414 0.02575539    0.0607634 ----
     8   0   0   T    F  3.20D-01 0.01279477 0.00566144 0.02017265 0.00824897    0.0626737 ----
     9   0   0   F    T  1.10D+00 0.01265672 0.00496160 0.02141318 0.00824897    0.0602158 ----
    10   0   0   F    F  1.65D+00 0.01265672 0.00496160 0.03535059 0.01361807    0.0595541 ----
    11   0   0   F    T  2.02D+00 0.01427940 0.00552025 0.05366725 0.02186704    0.0591354 ----
    12   0   0   F    F  5.69D-01 0.01427940 0.00552025 0.03054031 0.01244383    0.0578594 ----
    13   0   0   F    T  3.56D+00 0.00952305 0.00492050 0.06718489 0.03431087    0.0576617 ----
    14   0   0   F    F -2.19D-01 0.00952305 0.00492050 0.01471147 0.00751305    0.0567403 ----
    15   0   0   F    T  1.89D+00 0.01306581 0.00573230 0.05370704 0.02679782    0.0566639 ----
    16   0   0   F    F  2.09D+00 0.01306581 0.00573230 0.11215701 0.05596219    0.0551287 ----
    17   0   0   F    F -8.99D-02 0.01306581 0.00573230 0.01008655 0.00503282    0.0539711 ----
    18   0   0   F    T  1.80D+00 0.02774458 0.00972708 0.17022085 0.07772719    0.0539596 ----
    19   0   0   F    F -2.84D-01 0.02774458 0.00972708 0.04826300 0.02203812    0.0523636 ----
    20   0   0   F    T  1.54D+00 0.02820001 0.00992405 0.12843245 0.05568907    0.0519890 ----
    21   0   0   F    F  7.62D-02 0.02820001 0.00992405 0.00978342 0.00424215    0.0494887 ----
    22   0   0   F    T  3.97D+00 0.01928655 0.00767907 0.13867909 0.05993122    0.0494759 ----
    23   0   0   F    F -3.06D-01 0.01928655 0.00767907 0.04238968 0.01831902    0.0475287 ----
    24   0   0   F    T  2.06D+00 0.02378267 0.00830437 0.10791920 0.04161220    0.0471065 ----
    25   0   0   F    F -4.73D-01 0.02378267 0.00830437 0.05109488 0.01970150    0.0469245 ----
    26   0   0   F    T  1.94D+00 0.01929438 0.00574988 0.06225575 0.02191070    0.0459699 ----
    27   0   0   F    F -1.07D-01 0.01929438 0.00574988 0.00668202 0.00235171    0.0451106 ----
    28   0   0   F    T  2.02D+00 0.01348562 0.00512265 0.05496238 0.01955898    0.0450976 ----
    29   0   0   F    F  9.32D-01 0.01348562 0.00512265 0.05120686 0.01822254    0.0439383 ----
    30   0   0   F    T  1.87D+00 0.01911705 0.00720099 0.09647362 0.03778152    0.0435996 ----
    31   0   0   F    F -8.16D-02 0.01911705 0.00720099 0.00787642 0.00308460    0.0422537 ----
    32   0   0   F    T  2.12D+00 0.01508930 0.00620864 0.08841598 0.03469692    0.0422426 ----
    33   0   0   T    F  4.89D-01 0.01508930 0.00620864 0.04324845 0.01697191    0.0422980 ----
    34   0   0   F    T  2.33D+00 0.01115551 0.00394507 0.05185867 0.01697191    0.0416433 ----
    35   0   0   F    F  6.34D-01 0.01115551 0.00394507 0.03289188 0.01076460    0.0409055 ----
    36   0   0   F    T  2.09D+00 0.01124566 0.00500601 0.07913299 0.02773651    0.0407802 ----
    37   0   0   F    F -2.44D-01 0.01124566 0.00500601 0.01927022 0.00675431    0.0402393 ----
    38   0   0   F    T  3.05D+00 0.00798582 0.00341169 0.05517206 0.02098220    0.0401721 ----
    39   0   0   T    F  3.85D-01 0.00798582 0.00341169 0.02123457 0.00807561    0.0404785 ----
    40   0   0   F    T  1.21D+00 0.00813201 0.00317810 0.02084457 0.00807561    0.0399680 ----
    41   0   0   F    F  2.61D+00 0.00813201 0.00317810 0.05445931 0.02109863    0.0396564 ----
    42   0   0   F    F -1.17D-02 0.00813201 0.00317810 0.00063517 0.00024608    0.0393269 ---+
    43   0   0   F    T  2.47D+00 0.01177353 0.00390695 0.07127153 0.02892816    0.0393269 ----
    44   0   0   F    F -1.85D-01 0.01177353 0.00390695 0.01318568 0.00535189    0.0388791 ----
    45   0   0   F    T  6.41D+00 0.00520493 0.00213193 0.05210146 0.02357627    0.0388532 ----
    46   0   0   T    F  1.97D-01 0.00520493 0.00213193 0.01028540 0.00465421    0.0401302 ----
    47   0   0   F    T  1.06D+00 0.00596957 0.00215337 0.01181632 0.00465421    0.0387671 ----
    48   0   0   F    F  1.31D+00 0.00596957 0.00215337 0.01551033 0.00610921    0.0386509 ----
    49   0   0   F    T  2.89D+00 0.00438922 0.00180939 0.02939830 0.01076342    0.0385954 ----
    50   0   0   F    F -3.13D-01 0.00438922 0.00180939 0.00919142 0.00336520    0.0385181 ----
    51   0   0   F    T  3.07D+00 0.00341351 0.00132748 0.02199884 0.00739822    0.0384982 ----
    52   0   0   F    F  1.34D-01 0.00341351 0.00132748 0.00295362 0.00099330    0.0384082 ----
    53   0   0   F    T  1.20D+00 0.00611501 0.00218911 0.02648235 0.00839152    0.0384069 ----
    54   0   0   F    F  2.02D-01 0.00611501 0.00218911 0.00534795 0.00169462    0.0383033 ----
    55   0   0   F    T  1.78D+00 0.00586851 0.00196578 0.03137103 0.01008614    0.0383001 ----
    56   0   0   F    F  5.00D-02 0.00586851 0.00196578 0.00156902 0.00050446    0.0381936 ----
    57   0   0   F    T  5.53D+00 0.00238148 0.00111099 0.03301263 0.01059060    0.0381934 ----
    58   0   0   T    F  3.33D-01 0.00238148 0.00111099 0.01099900 0.00352853    0.0382904 ----
    59   0   0   F    T  1.17D+00 0.00368549 0.00130605 0.01227790 0.00352853    0.0381595 ----
    60   0   0   F    F  4.01D-01 0.00368549 0.00130605 0.00492871 0.00141646    0.0381205 ----
    61   0   0   F    T  1.38D+00 0.00300488 0.00136712 0.01730202 0.00494498    0.0381170 ----
    62   0   0   F    F  1.81D+00 0.00300488 0.00136712 0.03139007 0.00897140    0.0380536 ----
    63   0   0   F    F -1.18D-02 0.00300488 0.00136712 0.00037107 0.00010605    0.0380092 --++
    64   0   0   F    T  3.30D+00 0.00332011 0.00150123 0.04618434 0.01381034    0.0380092 ----
    65   0   0   T    F  3.17D-01 0.00332011 0.00150123 0.01462249 0.00437251    0.0381293 ----
    66   0   0   F    T  1.89D+00 0.00292129 0.00100931 0.01574087 0.00437251    0.0379741 ----
    67   0   0   F    F -2.79D-01 0.00292129 0.00100931 0.00438738 0.00121873    0.0379564 ----
    68   0   0   F    T  1.74D+00 0.00172067 0.00084042 0.01084778 0.00315378    0.0379532 ----
    69   0   0   F    F  1.70D+00 0.00172067 0.00084042 0.01843220 0.00535880    0.0379231 ----
    70   0   0   F    T  1.42D+00 0.00362178 0.00151097 0.02787013 0.00851258    0.0379033 ----
    71   0   0   F    F  4.31D-01 0.00362178 0.00151097 0.01201638 0.00367025    0.0378408 ----
    72   0   0   F    T  1.08D+00 0.00604426 0.00204474 0.04114295 0.01218283    0.0378347 ----
    73   0   0   F    F  6.79D-01 0.00604426 0.00204474 0.02795040 0.00827639    0.0377387 ----
    74   0   0   F    T  3.85D+00 0.00294947 0.00132627 0.06809768 0.02045922    0.0377195 ----
    75   0   0   F    F -1.29D-01 0.00294947 0.00132627 0.00875504 0.00263036    0.0376326 ----
    76   0   0   F    T  1.14D+00 0.00483650 0.00228902 0.05752047 0.01782886    0.0376306 ----
    77   0   0   F    F  1.50D+00 0.00483650 0.00228902 0.08653958 0.02682354    0.0374900 ----
    78   0   0   F    F -4.49D-02 0.00483650 0.00228902 0.00388801 0.00120511    0.0374163 ----
    79   0   0   F    T  1.25D+00 0.00748889 0.00340896 0.14267772 0.04344728    0.0374162 ----
    80   0   0   F    F -8.81D-02 0.00748889 0.00340896 0.01257651 0.00382972    0.0371996 ----
    81   0   0   F    T  3.88D+00 0.00567563 0.00248694 0.11916045 0.03961757    0.0371972 ----
    82   0   0   F    F -8.53D-02 0.00567563 0.00248694 0.01016575 0.00337983    0.0368747 ----
    83   0   0   F    T  1.53D+00 0.00929715 0.00385987 0.10168435 0.03623774    0.0368720 ----
    84   0   0   F    F  1.89D+00 0.00929715 0.00385987 0.19188708 0.06838372    0.0363711 ----
    85   0   0   F    F -3.21D-01 0.00929715 0.00385987 0.06158529 0.02194744    0.0362023 ----
    86   0   0   F    F -2.92D-02 0.00929715 0.00385987 0.00179719 0.00064047    0.0361543 ----
    87   0   0   F    T  1.31D+00 0.01539323 0.00586410 0.24333546 0.08331448    0.0361543 ----
    88   0   0   T    F  4.84D-01 0.01539323 0.00586410 0.11787572 0.04035892    0.0363997 ----
    89   0   0   F    T  1.18D+01 0.00612617 0.00317819 0.07449849 0.04035892    0.0357906 ----
    90   0   0   T    F  1.29D-01 0.00612617 0.00317819 0.00959507 0.00519805    0.0460497 ----
    91   0   0   F    T  1.69D+00 0.00551809 0.00239584 0.01327010 0.00519805    0.0355598 ----
    92   0   0   F    F -1.93D-01 0.00551809 0.00239584 0.00256242 0.00100373    0.0354492 ----
    93   0   0   F    T  1.43D+00 0.00584182 0.00199901 0.00956048 0.00419432    0.0354425 ----
    94   0   0   F    F  8.21D-02 0.00584182 0.00199901 0.00078531 0.00034453    0.0353501 ----
    95   0   0   F    T  2.24D+00 0.00286336 0.00140647 0.01255054 0.00453884    0.0353496 ----
    96   0   0   F    F  8.72D-01 0.00286336 0.00140647 0.01094196 0.00395711    0.0352516 ----
    97   0   0   F    T  1.94D+00 0.00473986 0.00196705 0.02120419 0.00849595    0.0352243 ----
    98   0   0   F    F  2.27D-01 0.00473986 0.00196705 0.00481033 0.00192737    0.0350921 ----
    99   0   0   F    T  6.54D+00 0.00278151 0.00103880 0.02052085 0.01042332    0.0350875 ----
   100   0   0   T    F  1.70D-01 0.00278151 0.00103880 0.00348947 0.00177243    0.0354987 ----
   101   0   0   F    T  1.06D+00 0.00228615 0.00095948 0.00347256 0.00177243    0.0350695 ----
   102   0   0   F    F  2.64D+00 0.00228615 0.00095948 0.00917617 0.00468362    0.0350442 ----
   103   0   0   F    T  2.74D+00 0.00353710 0.00107757 0.01322540 0.00645605    0.0350160 ----
   104   0   0   F    F -1.53D-01 0.00353710 0.00107757 0.00202781 0.00098989    0.0349769 ----
   105   0   0   F    T  4.35D+00 0.00155390 0.00071459 0.01427423 0.00546617    0.0349756 ----
   106   0   0   F    F  2.29D-01 0.00155390 0.00071459 0.00326700 0.00125106    0.0349361 ----
   107   0   0   F    T  1.26D+00 0.00390902 0.00144155 0.01708776 0.00671723    0.0349347 ----
   108   0   0   F    F -4.01D-02 0.00390902 0.00144155 0.00068521 0.00026936    0.0348971 ---+
   109   0   0   F    T  3.09D+00 0.00161918 0.00085179 0.01368024 0.00644787    0.0348970 ----
   110   0   0   F    F -7.89D-02 0.00161918 0.00085179 0.00107938 0.00050874    0.0348662 ----
   111   0   0   F    T  1.75D+00 0.00271920 0.00105823 0.01152123 0.00593913    0.0348660 ----
   112   0   0   F    F  1.05D+00 0.00271920 0.00105823 0.01207989 0.00622712    0.0348215 ----
   113   0   0   F    T  3.79D+00 0.00192882 0.00101458 0.02378411 0.01216625    0.0348057 ----
   114   0   0   F    F -4.43D-01 0.00192882 0.00101458 0.01052548 0.00538408    0.0347938 ----
   115   0   0   F    T  2.29D+00 0.00263825 0.00095431 0.01336443 0.00678217    0.0347730 ----
   116   0   0   F    F -4.29D-01 0.00263825 0.00095431 0.00572801 0.00290684    0.0347652 ----
   117   0   0   F    T  1.45D+00 0.00300481 0.00087711 0.00752953 0.00387532    0.0347552 ----
   118   0   0   F    F  1.52D+00 0.00300481 0.00087711 0.01144061 0.00588829    0.0347283 ----
   119   0   0   F    T  2.53D+00 0.00226857 0.00102979 0.01744767 0.00976361    0.0347129 ----
   120   0   0   F    F  6.12D-02 0.00226857 0.00102979 0.00106805 0.00059768    0.0346705 ----
   121   0   0   F    T  2.11D+00 0.00296887 0.00114370 0.02084438 0.01036128    0.0346703 ----
   122   0   0   F    F  8.50D-01 0.00296887 0.00114370 0.01771592 0.00880620    0.0346097 ----
   123   0   0   F    T  2.20D+00 0.00400886 0.00150625 0.03618889 0.01916748    0.0345934 ----
   124   0   0   F    F -4.64D-01 0.00400886 0.00150625 0.01679464 0.00889530    0.0345836 ----
   125   0   0   F    T  2.32D+00 0.00279660 0.00107104 0.02315527 0.01027218    0.0345533 ----
   126   0   0   F    F -1.81D-01 0.00279660 0.00107104 0.00418235 0.00185538    0.0345220 ----
   127   0   0   F    T  1.85D+00 0.00191268 0.00108230 0.01715624 0.00841680    0.0345204 ----
   128   0   0   F    F  2.29D+00 0.00191268 0.00108230 0.03927267 0.01926706    0.0344657 ----
   129   0   0   F    F -1.25D-02 0.00191268 0.00108230 0.00049019 0.00024049    0.0344154 ---+
   130   0   0   F    T  6.50D+00 0.00225421 0.00106334 0.05758737 0.02744337    0.0344154 ----
   131   0   0   T    F  3.32D-01 0.00225421 0.00106334 0.01914178 0.00912205    0.0345231 ----
   132   0   0   F    T  1.07D+00 0.00351090 0.00149199 0.02004244 0.00912205    0.0343789 ----
   133   0   0   F    F  1.40D+00 0.00351090 0.00149199 0.02796146 0.01272628    0.0343239 ----
   134   0   0   F    T  1.81D+00 0.00410936 0.00167585 0.04795542 0.02184833    0.0342973 ----
   135   0   0   F    F  5.84D-01 0.00410936 0.00167585 0.02802322 0.01276729    0.0341859 ----
   136   0   0   F    F -1.82D-02 0.00410936 0.00167585 0.00050959 0.00023217    0.0341666 ---+
   137   0   0   F    T  2.23D+00 0.00481578 0.00184696 0.07428490 0.03438346    0.0341666 ----
   138   0   0   F    F -2.98D-01 0.00481578 0.00184696 0.02215130 0.01025293    0.0341005 ----
   139   0   0   F    T  1.16D+01 0.00345930 0.00111457 0.04912789 0.02413052    0.0340849 ----
   140   0   0   T    F  1.44D-01 0.00345930 0.00111457 0.00707946 0.00347727    0.0351599 ----
   141   0   0   F    T  1.83D+00 0.00229558 0.00098177 0.00891282 0.00347727    0.0340537 ----
   142   0   0   F    F  7.59D-01 0.00229558 0.00098177 0.00676055 0.00263758    0.0340162 ----
   143   0   0   F    T  1.15D+00 0.00488330 0.00159910 0.01435745 0.00611485    0.0340078 ----
   144   0   0   F    F  3.92D-01 0.00488330 0.00159910 0.00562902 0.00239741    0.0339505 ----
   145   0   0   F    T  3.20D+00 0.00267774 0.00105512 0.02200826 0.00851226    0.0339454 ----
   146   0   0   T    F  4.15D-01 0.00267774 0.00105512 0.00913302 0.00353243    0.0339672 ----
   147   0   0   F    T  3.66D+00 0.00137573 0.00058096 0.00930521 0.00353243    0.0339233 ----
   148   0   0   F    T  2.73D+00 0.00153485 0.00062539 0.01091369 0.00353243    0.0339051 ----
   149   0   0   F    F  5.38D-01 0.00153485 0.00062539 0.00586751 0.00189913    0.0338840 ----
   150   0   0   F    T  3.04D+00 0.00236578 0.00072050 0.01733929 0.00543157    0.0338810 ----
   151   0   0   F    F -3.50D-01 0.00236578 0.00072050 0.00607261 0.00190226    0.0338701 ----
   152   0   0   F    T  3.26D+00 0.00125470 0.00051879 0.01107231 0.00352931    0.0338657 ----
   153   0   0   F    F -1.76D-01 0.00125470 0.00051879 0.00195306 0.00062254    0.0338553 ----
   154   0   0   F    T  1.75D+00 0.00190184 0.00061655 0.00783839 0.00290677    0.0338548 ----
   155   0   0   F    F -4.14D-02 0.00190184 0.00061655 0.00032453 0.00012035    0.0338452 --++
   156   0   0   F    T  1.40D+00 0.00148251 0.00065642 0.00778708 0.00278642    0.0338452 ----
   157   0   0   F    F  2.41D-01 0.00148251 0.00065642 0.00187694 0.00067162    0.0338344 ----
   158   0   0   F    T  3.82D+00 0.00121268 0.00042444 0.00916652 0.00345804    0.0338340 ----
   159   0   0   F    F  6.74D-01 0.00121268 0.00042444 0.00617428 0.00232922    0.0338196 ----
   160   0   0   F    T  2.48D+00 0.00182167 0.00066167 0.01560700 0.00578726    0.0338168 ----
   161   0   0   F    F -1.85D-01 0.00182167 0.00066167 0.00287962 0.00106780    0.0338041 ----
   162   0   0   F    T  2.00D+00 0.00138886 0.00066224 0.01398772 0.00471946    0.0338034 ----
   163   0   0   F    F -1.76D-01 0.00138886 0.00066224 0.00246649 0.00083220    0.0337932 ----
   164   0   0   F    T  1.51D+00 0.00168811 0.00067310 0.01111522 0.00388727    0.0337927 ----
   165   0   0   F    F  2.55D-01 0.00168811 0.00067310 0.00283097 0.00099006    0.0337802 ----
   166   0   0   F    T  2.30D+00 0.00148469 0.00059058 0.01414671 0.00487733    0.0337796 ----
   167   0   0   F    T  8.20D+00 0.00061142 0.00029511 0.01212383 0.00487733    0.0337678 ----
   168   0   0   T    F  3.03D-01 0.00061142 0.00029511 0.00367217 0.00147728    0.0337815 ----
   169   0   0   F    T  1.91D+00 0.00076491 0.00032120 0.00344286 0.00147728    0.0337645 ----
   170   0   0   F    T  2.22D+00 0.00090751 0.00027578 0.00375750 0.00147728    0.0337617 ----
   171   0   0   T    F  4.68D-01 0.00090751 0.00027578 0.00175828 0.00069128    0.0337621 ----
   172   0   0   F    T  1.91D+00 0.00053712 0.00019999 0.00198780 0.00069128    0.0337606 ----
   173   0   0   F    F  1.03D+00 0.00053712 0.00019999 0.00205334 0.00071408    0.0337589 ----
   174   0   0   F    T  2.57D+00 0.00058841 0.00022793 0.00405168 0.00140536    0.0337583 ----
   175   0   0   F    F -1.04D-01 0.00058841 0.00022793 0.00042078 0.00014595    0.0337565 --++
   176   0   0   F    T  3.77D+00 0.00049148 0.00016608 0.00381960 0.00125940    0.0337565 ----
   177   0   0   T    F  2.56D-01 0.00049148 0.00016608 0.00097781 0.00032240    0.0337594 ----
   178   0   0   F    T  1.34D+00 0.00036031 0.00012937 0.00082660 0.00032240    0.0337561 ----
   179   0   0   F    F  2.31D+00 0.00036031 0.00012937 0.00191284 0.00074607    0.0337555 ----
   180   0   0   F    T  2.02D+00 0.00050900 0.00018533 0.00264158 0.00106848    0.0337550 ----
   181   0   0   F    T  3.45D+00 0.00049258 0.00014293 0.00261708 0.00106848    0.0337538 ----
   182   0   0   F    F -3.83D-01 0.00049258 0.00014293 0.00100162 0.00040893    0.0337534 ----
   183   0   0   F    T  1.45D+00 0.00053539 0.00016089 0.00157862 0.00065954    0.0337531 ----
   184   0   0   F    T  1.44D+00 0.00037736 0.00015991 0.00182536 0.00065954    0.0337526 ----
   185   0   0   F    F  1.81D+00 0.00037736 0.00015991 0.00330113 0.00119277    0.0337517 ----
   186   0   0   F    T  2.02D+00 0.00050779 0.00022949 0.00509745 0.00185231    0.0337511 ----
   187   0   0   F    F  7.90D-02 0.00050779 0.00022949 0.00040246 0.00014625    0.0337494 --++
   188   0   0   F    T  2.23D+00 0.00063054 0.00021873 0.00540947 0.00199856    0.0337494 ----
   189   0   0   T    F  4.48D-01 0.00063054 0.00021873 0.00242348 0.00089537    0.0337497 ----
   190   0   0   F    T  1.94D+00 0.00039142 0.00015251 0.00232342 0.00089537    0.0337487 ----
   191   0   0   F    F  4.09D-01 0.00039142 0.00015251 0.00095057 0.00036632    0.0337478 ----
   192   0   0   F    T  2.47D+00 0.00048642 0.00015690 0.00310947 0.00126169    0.0337477 ----
   193   0   0   F    F -1.76D-01 0.00048642 0.00015690 0.00054835 0.00022249    0.0337470 ---+
   194   0   0   F    T  1.69D+00 0.00046036 0.00016906 0.00267839 0.00103919    0.0337469 ----
   195   0   0   F    T  1.00D+00 0.00059360 0.00021568 0.00300981 0.00104982    0.0337463 ----
   196   0   0   F    F  3.59D+00 0.00059360 0.00021568 0.01081806 0.00377334    0.0337451 ----
   197   0   0   F    T  3.63D+00 0.00070945 0.00026719 0.01413028 0.00482317    0.0337432 ----
   198   0   0   T    F  3.83D-01 0.00070945 0.00026719 0.00541286 0.00184760    0.0337455 ----
   199   0   0   F    T  1.49D+00 0.00087479 0.00025153 0.00506352 0.00184760    0.0337417 ----
   200   0   0   F    F -1.93D-01 0.00087479 0.00025153 0.00097953 0.00035741    0.0337406 ----
   201   0   0   F    T  3.23D+00 0.00041226 0.00014735 0.00379053 0.00149019    0.0337406 ----
   202   0   0   F    F  2.62D-01 0.00041226 0.00014735 0.00099391 0.00039074    0.0337393 ----
   203   0   0   F    T  1.40D+00 0.00056318 0.00024915 0.00481252 0.00188093    0.0337392 ----
   204   0   0   F    T  2.12D+00 0.00060192 0.00020621 0.00449172 0.00188093    0.0337379 ----
   205   0   0   F    F -3.20D-01 0.00060192 0.00020621 0.00143885 0.00060252    0.0337371 ----
   206   0   0   F    T  1.53D+00 0.00048288 0.00019068 0.00308650 0.00127840    0.0337369 ----
   207   0   0   F    F  2.68D+00 0.00048288 0.00019068 0.00828590 0.00343195    0.0337355 ----
   208   0   0   F    T  3.05D+00 0.00095235 0.00026913 0.01156225 0.00471035    0.0337339 ----
   209   0   0   T    F  3.66D-01 0.00095235 0.00026913 0.00422951 0.00172306    0.0337362 ----
   210   0   0   F    T  1.59D+00 0.00065327 0.00022050 0.00393714 0.00172306    0.0337327 ----
   211   0   0   F    T  4.72D+00 0.00035357 0.00013276 0.00361296 0.00172306    0.0337314 ----
   212   0   0   T    F  4.85D-01 0.00035357 0.00013276 0.00175187 0.00083549    0.0337315 ----
   213   0   0   F    T  1.88D+00 0.00038505 0.00013917 0.00187291 0.00083549    0.0337308 ----
   214   0   0   F    F -1.82D-01 0.00038505 0.00013917 0.00034044 0.00015187    0.0337304 --++
   215   0   0   F    T  1.73D+00 0.00049526 0.00012998 0.00142677 0.00068362    0.0337304 ----
   216   0   0   F    F -2.55D-01 0.00049526 0.00012998 0.00036378 0.00017430    0.0337301 --++
   217   0   0   F    T  2.55D+00 0.00018429 0.00008761 0.00101056 0.00050932    0.0337300 ----
   218   0   0   F    T  2.02D+00 0.00016155 0.00009638 0.00096613 0.00050932    0.0337297 ----
   219   0   0   F    F  4.01D-01 0.00016155 0.00009638 0.00038779 0.00020443    0.0337293 --++
   220   0   0   F    T  1.49D+00 0.00036334 0.00012619 0.00147558 0.00071376    0.0337293 ----
   221   0   0   F    T  1.32D+00 0.00026222 0.00012357 0.00145822 0.00071376    0.0337290 ----
   222   0   0   F    F  3.04D-01 0.00026222 0.00012357 0.00044363 0.00021714    0.0337287 --++
   223   0   0   F    T  4.93D+00 0.00020974 0.00011184 0.00196011 0.00093090    0.0337287 ----
   224   0   0   T    F  2.41D-01 0.00020974 0.00011184 0.00047252 0.00022441    0.0337307 ---+
   225   0   0   F    T  1.30D+00 0.00030331 0.00009627 0.00044836 0.00022441    0.0337285 --++
   226   0   0   F    T  2.43D+00 0.00023402 0.00006872 0.00071284 0.00022441    0.0337283 -+-+
   227   0   0   F    T  1.35D+00 0.00023253 0.00007748 0.00053783 0.00022441    0.0337282 ---+
   228   0   0   F    T  1.73D+00 0.00029357 0.00009726 0.00062388 0.00022441    0.0337281 ---+
   229   0   0   F    T  1.69D+00 0.00023903 0.00007572 0.00052411 0.00022441    0.0337279 ---+
   230   0   0   F    T  1.52D+00 0.00035224 0.00010787 0.00067636 0.00022441    0.0337279 ---+
   231   0   0   F    T  2.62D+00 0.00015757 0.00005956 0.00044489 0.00022441    0.0337277 -+++
   232   0   0   F    T  1.40D+00 0.00022263 0.00008069 0.00049073 0.00022441    0.0337277 ---+
   233   0   0   F    T  2.11D+00 0.00024623 0.00007490 0.00051896 0.00022441    0.0337276 -+-+
   234   0   0   F    T  1.46D+00 0.00018195 0.00007021 0.00053311 0.00022441    0.0337274 -+-+
   235   0   0   T    T  1.00D+00 0.00028009 0.00011068 0.00028009 0.00011068    0.0337274 --++
   236   0   0   F    T  2.30D+00 0.00013383 0.00005550 0.00019894 0.00011068    0.0337274 -+++
   237   0   0   T    T  1.00D+00 0.00035421 0.00010922 0.00035421 0.00010922    0.0337275 --++
   238   0   0   T    T  1.00D+00 0.00043081 0.00013651 0.00043103 0.00013670    0.0337275 --++
   239   0   0   T    T  1.00D+00 0.00069827 0.00023927 0.00065366 0.00022596    0.0337278 ---+
   240   0   0   T    T  1.00D+00 0.00152422 0.00042311 0.00149780 0.00041445    0.0337287 ----
   241   0   0   T    T  1.00D+00 0.00275572 0.00078785 0.00277448 0.00079301    0.0337322 ----
   242   0   0   T    F  5.00D-01 0.00275572 0.00078785 0.00138724 0.00039650    0.0337458 ----
   243   0   0   T    F  5.00D-01 0.00275572 0.00078785 0.00069362 0.00019825    0.0337321 ---+
   244   0   0   T    F  5.00D-01 0.00275572 0.00078785 0.00034681 0.00009913    0.0337286 --++
   245   0   0   T    F  5.00D-01 0.00275572 0.00078785 0.00017341 0.00004956    0.0337277 --++
   246   0   0   T    F  5.00D-01 0.00275572 0.00078785 0.00008670 0.00002478    0.0337275 --++
   247   0   0   T    F  5.00D-01 0.00275572 0.00078785 0.00004335 0.00001239    0.0337274 --++
   248   0   0   T    F  5.00D-01 0.00275572 0.00078785 0.00002168 0.00000620    0.0337274 --++
   249   0   0   T    F  5.00D-01 0.00275572 0.00078785 0.00001084 0.00000310    0.0337274 --++
   250   0   0   T    F  5.00D-01 0.00275572 0.00078785 0.00000542 0.00000155    0.0337274 --++
   251   0   0   T    F  5.00D-01 0.00275572 0.00078785 0.00000271 0.00000077    0.0337274 --++
   252   0   0   T    F  5.00D-01 0.00275572 0.00078785 0.00000135 0.00000039    0.0337274 --++
   253   0   0   T    F  5.00D-01 0.00275572 0.00078785 0.00000068 0.00000019    0.0337274 --++
   254   0   0   T    T  1.00D+00 0.00013305 0.00005557 0.00015356 0.00005481    0.0337274 -+++
   255   0   0   F    T  2.30D+00 0.00005320 0.00002314 0.00012755 0.00005481    0.0337274 ====
 ****************************
 MOLECULAR MECHANICS FUNCTION
 ****************************
 Atomic parameters:
 Center  VDW
      1 1.9080 0.0860000
      2 1.7210 0.2104000
      3 1.9080 0.1094000
      4 1.4870 0.0157000
      5 1.4870 0.0157000
      6 1.8750 0.1700000
      7 0.6000 0.0157000
      8 0.6000 0.0157000
      9 1.6612 0.2100000
     10 0.0000 0.0000000
 Molecular mechanics terms:
 NBDir 3 1      0      0
 HrmStr1  1- 2  431.53 1.3510
 HrmStr1  1- 3  294.15 1.5090
 HrmStr1  1- 9  946.08 1.2030
 HrmStr1  2-10  566.76 0.9680
 HrmStr1  3- 4  358.05 1.0960
 HrmStr1  3- 5  358.05 1.0960
 HrmStr1  3- 6  380.82 1.4520
 HrmStr1  6- 7  506.01 1.0110
 HrmStr1  6- 8  506.01 1.0110
 HrmBnd1  1- 2-10  56.55 107.23
 HrmBnd1  1- 3- 4  46.41 106.89
 HrmBnd1  1- 3- 5  46.41 106.89
 HrmBnd1  1- 3- 6  59.93 110.61
 HrmBnd1  2- 1- 3  67.92 111.72
 HrmBnd1  2- 1- 9  91.40 123.02
 HrmBnd1  3- 1- 9  62.83 125.24
 HrmBnd1  3- 6- 7  52.60 110.71
 HrmBnd1  3- 6- 8  52.60 110.71
 HrmBnd1  4- 3- 5  44.68 106.22
 HrmBnd1  4- 3- 6  52.45 112.94
 HrmBnd1  5- 3- 6  52.45 112.94
 HrmBnd1  7- 6- 8  47.09 108.63
 AmbTrs  3- 1- 2-10   0 180   0   0  0.0000 14.5000  0.0000  0.0000  2.0
 AmbTrs  9- 1- 2-10   0   0   0   0  0.0000  0.0000  0.0000  0.0000  2.0
 AmbTrs  2- 1- 3- 4   0   0   0   0  0.0000 14.5000  0.0000  0.0000  6.0
 AmbTrs  2- 1- 3- 5   0   0   0   0  0.0000 14.5000  0.0000  0.0000  6.0
 AmbTrs  2- 1- 3- 6   0   0   0   0  0.0000 14.5000  0.0000  0.0000  6.0
 AmbTrs  9- 1- 3- 4   0   0   0   0  0.0000 14.5000  0.0000  0.0000  6.0
 AmbTrs  9- 1- 3- 5   0   0   0   0  0.0000 14.5000  0.0000  0.0000  6.0
 AmbTrs  9- 1- 3- 6   0   0   0   0  0.0000 14.5000  0.0000  0.0000  6.0
 AmbTrs  1- 3- 6- 7   0 180   0   0  0.0000 25.6300  0.0000  0.0000  6.0
 AmbTrs  1- 3- 6- 8   0 180   0   0  0.0000 25.6300  0.0000  0.0000  6.0
 AmbTrs  4- 3- 6- 7   0   0   0   0  0.0000 16.9300  0.0000  0.0000  6.0
 AmbTrs  4- 3- 6- 8   0   0   0   0  0.0000 16.9300  0.0000  0.0000  6.0
 AmbTrs  5- 3- 6- 7   0   0   0   0  0.0000 16.9300  0.0000  0.0000  6.0
 AmbTrs  5- 3- 6- 8   0   0   0   0  0.0000 16.9300  0.0000  0.0000  6.0
 NBPair  2- 1 3 1      0      0 -1.000 -1.000
 NBPair  3- 2 3 1      0      0 -1.000 -1.000
 NBPair 10- 3 3 1      0      0 -0.500 -0.167
 NBPair  9- 2 3 1      0      0 -1.000 -1.000
 NBPair 10- 9 3 1      0      0 -0.500 -0.167
 NBPair  3- 1 3 1      0      0 -1.000 -1.000
 NBPair  4- 2 3 1      0      0 -0.500 -0.167
 NBPair  5- 2 3 1      0      0 -0.500 -0.167
 NBPair  6- 2 3 1      0      0 -0.500 -0.167
 NBPair  9- 3 3 1      0      0 -1.000 -1.000
 NBPair  9- 4 3 1      0      0 -0.500 -0.167
 NBPair  9- 5 3 1      0      0 -0.500 -0.167
 NBPair  9- 6 3 1      0      0 -0.500 -0.167
 NBPair  9- 1 3 1      0      0 -1.000 -1.000
 NBPair 10- 1 3 1      0      0 -1.000 -1.000
 NBPair 10- 2 3 1      0      0 -1.000 -1.000
 NBPair  4- 1 3 1      0      0 -1.000 -1.000
 NBPair  5- 1 3 1      0      0 -1.000 -1.000
 NBPair  6- 1 3 1      0      0 -1.000 -1.000
 NBPair  4- 3 3 1      0      0 -1.000 -1.000
 NBPair  5- 4 3 1      0      0 -1.000 -1.000
 NBPair  6- 4 3 1      0      0 -1.000 -1.000
 NBPair  5- 3 3 1      0      0 -1.000 -1.000
 NBPair  6- 5 3 1      0      0 -1.000 -1.000
 NBPair  6- 3 3 1      0      0 -1.000 -1.000
 NBPair  7- 1 3 1      0      0 -0.500 -0.167
 NBPair  8- 1 3 1      0      0 -0.500 -0.167
 NBPair  7- 4 3 1      0      0 -0.500 -0.167
 NBPair  8- 4 3 1      0      0 -0.500 -0.167
 NBPair  7- 5 3 1      0      0 -0.500 -0.167
 NBPair  8- 5 3 1      0      0 -0.500 -0.167
 NBPair  7- 3 3 1      0      0 -1.000 -1.000
 NBPair  8- 3 3 1      0      0 -1.000 -1.000
 NBPair  7- 6 3 1      0      0 -1.000 -1.000
 NBPair  8- 7 3 1      0      0 -1.000 -1.000
 NBPair  8- 6 3 1      0      0 -1.000 -1.000
 Energy per function type:
 Direct Coulomb + vdW (small)                           0.001969752
 Direct Coulomb (large)                                -0.132416519
 Direct vdW (large)                                   270.418650768
 Non-direct Coulomb + vdW (small)                      -0.011335596
 Non-direct Coulomb (large)                             0.138459983
 Non-direct vdW (large)                              -270.418650768
 Harmonic stretch I                                     0.000073182
 Harmonic bend I                                        0.008443193
 Amber torsion                                          0.028533357
 Energy per function class:
        Coulomb              -0.004197520
    Vanderwaals               0.000875139
     Stretching               0.000073182
        Bending               0.008443193
        Torsion               0.028533357
 Energy=    3.372735072E-02 NIter=   0.
 Dipole moment=       0.324743       0.449871       0.079474
 Leave Link  402 at Wed Nov 29 12:05:30 2023, MaxMem=   134217728 cpu:               0.4 elap:               0.4
 (Enter /home/emanuele/chem_software/gaussian//gdv/l716.exe)
 Dipole        = 3.24742625D-01 4.49870640D-01 7.94743398D-02
 -------------------------------------------------------------------
 Center     Atomic                   Forces (Hartrees/Bohr)
 Number     Number              X              Y              Z
 -------------------------------------------------------------------
      1        6           0.000002779   -0.000039996   -0.000031660
      2        8           0.000004031    0.000011985    0.000022942
      3        6           0.000024343    0.000015635   -0.000007727
      4        1           0.000004441    0.000028159    0.000004201
      5        1           0.000012043   -0.000007659   -0.000010320
      6        7           0.000003792    0.000039531   -0.000035118
      7        1           0.000009076   -0.000046591    0.000005936
      8        1          -0.000005020   -0.000010002    0.000053202
      9        8          -0.000009403    0.000008786   -0.000014556
     10        1          -0.000046080    0.000000152    0.000013099
 -------------------------------------------------------------------
 Cartesian Forces:  Max     0.000053202 RMS     0.000023137
 Z-matrix is all fixed cartesians, so copy forces.
 Leave Link  716 at Wed Nov 29 12:05:30 2023, MaxMem=   134217728 cpu:               0.0 elap:               0.0
 (Enter /home/emanuele/chem_software/gaussian//gdv/l103.exe)

 GradGradGradGradGradGradGradGradGradGradGradGradGradGradGradGradGradGrad
 Berny optimization.
 Search for a local minimum.
 Step number   1 out of a maximum of    2
 All quantities printed in internal units (Hartrees-Bohrs-Radians)
 RMS Force = .23137D-04 SwitMx=.10000D-02 MixMth= 2
 Mixed Optimization -- En-DIIS/RFO-DIIS
 Second derivative matrix not updated -- unit matrix used.
 ITU=  0
 RFO step:  Lambda=-1.60601279D-08 EMin= 1.00000000D+00
 Linear search not attempted -- first point.
 Variable       Old X    -DE/DX   Delta X   Delta X   Delta X     New X
                                 (Linear)    (Quad)   (Total)
    X1       -1.17906   0.00000   0.00000   0.00000   0.00000  -1.17906
    Y1       -0.76165  -0.00004   0.00000  -0.00004  -0.00004  -0.76169
    Z1        0.28848  -0.00003   0.00000  -0.00003  -0.00003   0.28845
    X2       -2.16768   0.00000   0.00000   0.00000   0.00000  -2.16767
    Y2        1.01703   0.00001   0.00000   0.00001   0.00001   1.01705
    Z2       -1.24612   0.00002   0.00000   0.00002   0.00002  -1.24610
    X3        1.40732   0.00002   0.00000   0.00002   0.00002   1.40734
    Y3       -0.04582   0.00002   0.00000   0.00002   0.00002  -0.04581
    Z3        1.30185  -0.00001   0.00000  -0.00001  -0.00001   1.30185
    X4        1.22611   0.00000   0.00000   0.00000   0.00000   1.22611
    Y4        1.96047   0.00003   0.00000   0.00003   0.00003   1.96050
    Z4        1.78969   0.00000   0.00000   0.00000   0.00000   1.78970
    X5        1.49146   0.00001   0.00000   0.00001   0.00001   1.49148
    Y5       -1.06866  -0.00001   0.00000  -0.00001  -0.00001  -1.06866
    Z5        3.10219  -0.00001   0.00000  -0.00001  -0.00001   3.10218
    X6        3.38122   0.00000   0.00000   0.00000   0.00000   3.38122
    Y6       -0.69760   0.00004   0.00000   0.00004   0.00004  -0.69756
    Z6       -0.50916  -0.00004   0.00000  -0.00004  -0.00004  -0.50919
    X7        2.91745   0.00001   0.00000   0.00001   0.00001   2.91745
    Y7       -1.43039  -0.00005   0.00000  -0.00005  -0.00005  -1.43043
    Z7       -2.21321   0.00001   0.00000   0.00001   0.00001  -2.21320
    X8        5.21104  -0.00001   0.00000  -0.00001  -0.00001   5.21104
    Y8       -0.28911  -0.00001   0.00000  -0.00001  -0.00001  -0.28912
    Z8       -0.13812   0.00005   0.00000   0.00005   0.00005  -0.13807
    X9       -2.29700  -0.00001   0.00000  -0.00001  -0.00001  -2.29701
    Y9       -2.67912   0.00001   0.00000   0.00001   0.00001  -2.67911
    Z9        0.77206  -0.00001   0.00000  -0.00001  -0.00001   0.77205
   X10       -3.78872  -0.00005   0.00000  -0.00005  -0.00005  -3.78877
   Y10        0.35978   0.00000   0.00000   0.00000   0.00000   0.35978
   Z10       -1.77771   0.00001   0.00000   0.00001   0.00001  -1.77770
         Item               Value     Threshold  Converged?
 Maximum Force            0.000053     0.000450     YES
 RMS     Force            0.000023     0.000300     YES
 Maximum Displacement     0.000053     0.001800     YES
 RMS     Displacement     0.000023     0.001200     YES
 Predicted change in Energy=-8.030064D-09
 Optimization completed.
    -- Stationary point found.
 Largest change from initial coordinates is atom    9       0.677 Angstoms.
 GradGradGradGradGradGradGradGradGradGradGradGradGradGradGradGradGradGrad

 Leave Link  103 at Wed Nov 29 12:05:30 2023, MaxMem=   134217728 cpu:               0.0 elap:               0.0
 (Enter /home/emanuele/chem_software/gaussian//gdv/l202.exe)
                          Input orientation:                          
 ---------------------------------------------------------------------
 Center     Atomic      Atomic             Coordinates (Angstroms)
 Number     Number       Type             X           Y           Z
 ---------------------------------------------------------------------
      1          6    20001002       -0.623933   -0.403050    0.152659
      2          8    20001022       -1.147086    0.538191   -0.659420
      3          6    20001001        0.744720   -0.024248    0.688912
      4          1    20001034        0.648828    1.037437    0.947066
      5          1    20001034        0.789249   -0.565508    1.641608
      6          7    20001020        1.789264   -0.369153   -0.269433
      7          1    20001029        1.543846   -0.756928   -1.171180
      8          1    20001029        2.757565   -0.152993   -0.073092
      9          8    20001025       -1.215521   -1.417727    0.408557
     10          1    20001031       -2.004906    0.190390   -0.940725
 ---------------------------------------------------------------------
                    Distance matrix (angstroms):
                    1          2          3          4          5
     1  C    0.000000
     2  O    1.348739   0.000000
     3  C    1.517982   2.390244   0.000000
     4  H    2.079905   2.460761   1.096819   0.000000
     5  H    2.059234   3.203478   1.096620   1.752581   0.000000
     6  N    2.450068   3.097986   1.458923   2.181504   2.165795
     7  H    2.564575   3.029909   2.152989   2.916808   2.918533
     8  H    3.398239   4.008469   2.156101   2.627664   2.642846
     9  O    1.202093   2.229545   2.421348   3.129475   2.503156
    10  H    1.858695   0.967447   3.203472   3.365048   3.879063
                    6          7          8          9         10
     6  N    0.000000
     7  H    1.011803   0.000000
     8  H    1.011377   1.744606   0.000000
     9  O    3.253907   3.247511   4.197255   0.000000
    10  H    3.893514   3.680239   4.853024   2.242706   0.000000
 Symmetry turned off by external request.
 Stoichiometry    C2H5NO2
 Framework group  C1[X(C2H5NO2)]
 Deg. of freedom    24
 Full point group                 C1      NOp   1
 Rotational constants (GHZ):           8.9759633           3.8952864           3.1880292
 Leave Link  202 at Wed Nov 29 12:05:30 2023, MaxMem=   134217728 cpu:               0.0 elap:               0.0
 (Enter /home/emanuele/chem_software/gaussian//gdv/l9999.exe)
 Unable to Open any file for archive entry.
 1\1\GINC-EMANUELE-XPS-13-9343\FOpt\AMBER\ZDO\C2H5N1O2\EMANUELE\29-Nov-
 2023\0\\#p Amber=(SoftFirst,Print) geom=nocrowd nosymm opt=(maxcycle=3
 00)\\Title\\0,1\C,-0.6239334898,-0.4030504395,0.1526593475\O,-1.147086
 1668,0.5381912309,-0.6594195451\C,0.7447200937,-0.024247645,0.68891158
 99\H,0.6488275804,1.0374369358,0.9470655816\H,0.7892487514,-0.56550795
 41,1.6416081284\N,1.7892642396,-0.3691532257,-0.2694334543\H,1.5438456
 46,-0.7569282026,-1.1711798053\H,2.7575654522,-0.1529928732,-0.0730919
 046\O,-1.2155206485,-1.4177266224,0.4085571835\H,-2.0049064583,0.19038
 97958,-0.9407251215\\Version=ES64L-GDVRevJ.14\HF=0.0337274\RMSD=0.000e
 +00\RMSF=2.314e-05\Dipole=0.3247426,0.4498706,0.0794743\PG=C01 [X(C2H5
 N1O2)]\\@
 The archive entry for this job was punched.


 PICNIC:  A SNACK IN THE GRASS.
 Job cpu time:       0 days  0 hours  0 minutes  0.9 seconds.
 Elapsed time:       0 days  0 hours  0 minutes  0.9 seconds.
 File lengths (MBytes):  RWF=      6 Int=      0 D2E=      0 Chk=      1 Scr=      1
 Normal termination of Gaussian DV at Wed Nov 29 12:05:30 2023.
