 Entering Gaussian System, Link 0=/home/emanuele/chem_software/gaussian//g09/g09
 Input=1_mm_30.gjf
 Output=1_mm_30.log
 Initial command:
 /home/emanuele/chem_software/gaussian//gdv/l1.exe "/home/emanuele/chem_software/gaussian/scratch/Gau-13828.inp" -scrdir="/home/emanuele/chem_software/gaussian/scratch/"
 Entering Link 1 = /home/emanuele/chem_software/gaussian//gdv/l1.exe PID=     13830.
  
 Copyright (c) 1988-2020, Gaussian, Inc.  All Rights Reserved.
  
 This is the private, development version of
 the Gaussian(R) DV system of programs. It is based on
 the Gaussian(R) 16 system (copyright 2016, Gaussian, Inc.),
 the Gaussian(R) 09 system (copyright 2009, Gaussian, Inc.),
 the Gaussian(R) 03 system (copyright 2003, Gaussian, Inc.),
 the Gaussian(R) 98 system (copyright 1998, Gaussian, Inc.),
 the Gaussian(R) 94 system (copyright 1995, Gaussian, Inc.),
 the Gaussian 92(TM) system (copyright 1992, Gaussian, Inc.),
 the Gaussian 90(TM) system (copyright 1990, Gaussian, Inc.),
 the Gaussian 88(TM) system (copyright 1988, Gaussian, Inc.),
 the Gaussian 86(TM) system (copyright 1986, Carnegie Mellon
 University), and the Gaussian 82(TM) system (copyright 1983,
 Carnegie Mellon University). Gaussian is a federally registered
 trademark of Gaussian, Inc.
  
 This software contains proprietary and confidential information,
 including trade secrets, belonging to Gaussian, Inc.
  
 This software is provided under written license and may be
 used, copied, transmitted, or stored only in accord with that
 written license.
  
 The following legend is applicable only to US Government
 contracts under FAR:
  
                    RESTRICTED RIGHTS LEGEND
  
 Use, reproduction and disclosure by the US Government is
 subject to restrictions as set forth in subparagraphs (a)
 and (c) of the Commercial Computer Software - Restricted
 Rights clause in FAR 52.227-19.
  
 Gaussian, Inc.
 340 Quinnipiac St., Bldg. 40, Wallingford CT 06492
  
  
 ---------------------------------------------------------------
 Warning -- This program may not be used in any manner that
 competes with the business of Gaussian, Inc. or will provide
 assistance to any competitor of Gaussian, Inc.  The licensee
 of this program is prohibited from giving any competitor of
 Gaussian, Inc. access to this program.  By using this program,
 the user acknowledges that Gaussian, Inc. is engaged in the
 business of creating and licensing software in the field of
 computational chemistry and represents and warrants to the
 licensee that it is not a competitor of Gaussian, Inc. and that
 it will not use this program in any manner prohibited above.
 ---------------------------------------------------------------
  

 Cite this work as:
 Gaussian Development Version, Revision J.14,
 M. J. Frisch, G. W. Trucks, H. B. Schlegel, G. E. Scuseria, 
 M. A. Robb, J. R. Cheeseman, G. Scalmani, V. Barone, 
 G. A. Petersson, H. Nakatsuji, X. Li, A. V. Marenich, M. Caricato, 
 J. Bloino, B. G. Janesko, J. Zheng, R. Gomperts, B. Mennucci, 
 H. P. Hratchian, J. V. Ortiz, A. F. Izmaylov, J. L. Sonnenberg, 
 D. Williams-Young, F. Ding, F. Lipparini, F. Egidi, J. Goings, 
 B. Peng, A. Petrone, T. Henderson, D. Ranasinghe, V. G. Zakrzewski, 
 J. Gao, N. Rega, G. Zheng, W. Liang, M. Hada, M. Ehara, K. Toyota, 
 R. Fukuda, J. Hasegawa, M. Ishida, T. Nakajima, Y. Honda, O. Kitao, 
 H. Nakai, T. Vreven, K. Throssell, J. A. Montgomery, Jr., 
 J. E. Peralta, F. Ogliaro, M. J. Bearpark, J. J. Heyd, 
 E. N. Brothers, K. N. Kudin, V. N. Staroverov, T. A. Keith, 
 R. Kobayashi, J. Normand, K. Raghavachari, A. P. Rendell, 
 J. C. Burant, S. S. Iyengar, J. Tomasi, M. Cossi, J. M. Millam, 
 M. Klene, C. Adamo, R. Cammi, J. W. Ochterski, R. L. Martin, 
 K. Morokuma, O. Farkas, J. B. Foresman, and D. J. Fox, 
 Gaussian, Inc., Wallingford CT, 2020.
 
 ******************************************
 Gaussian DV:  ES64L-GDVRevJ.14 29-Dec-2020
                29-Nov-2023 
 ******************************************
 %mem=1GB
 %nprocshared=1
 Will use up to    1 processors via shared memory.
 %chk=1_mm_30.chk
 -----------------------------------------------------------------
 #p Amber=(SoftFirst,Print) geom=nocrowd nosymm opt=(maxcycle=300)
 -----------------------------------------------------------------
 1/6=300,10=10,18=4000020,19=15,37=210000000,38=1,56=2,64=203/1,3;
 2/9=110,12=1,15=1,40=1/2;
 3/5=30,11=9,25=1,30=1,41=10030000,43=2,71=1/1;
 4/20=11,22=1001,24=3,119=11/2;
 7/30=1,44=-1/16;
 1/6=300,10=10,18=4000020,19=15,64=203/3(2);
 2/9=110,12=1,15=1/2;
 99//99;
 2/9=110,12=1,15=1/2;
 3/5=30,11=9,25=1,30=1,41=10030000,43=2,71=1/1;
 4/16=2,20=11,22=1001,24=3,119=11/2;
 7/30=1,44=-1/16;
 1/6=300,10=10,18=4000020,19=15,64=203/3(-4);
 2/9=110,12=1,15=1/2;
 99/9=10/99;
 Leave Link    1 at Wed Nov 29 12:05:24 2023, MaxMem=   134217728 cpu:               0.0 elap:               0.0
 (Enter /home/emanuele/chem_software/gaussian//gdv/l101.exe)
 -----
 Title
 -----
 Symbolic Z-matrix:
 Charge =  0 Multiplicity = 1
 C-C-+0.299289        -0.64255   0.09135   0.31432 
 O-OH--0.289770       -1.07087  -0.52524  -0.84168 
 C-CT--0.035454        0.73811  -0.429     0.68256 
 H-HC-+0.090426        1.10551  -0.48821   1.73604 
 H-HC-+0.095387        0.54719  -1.46768   0.32441 
 N-N3--0.336253        1.66856   0.32936  -0.18862 
 H-H-+0.142619         2.60844   0.00779   0.06214 
 H-H-+0.128282         1.63505  -0.1298   -1.095 
 O-O2--0.308037       -1.35425   0.87813   0.88472 
 H-HO-+0.213510       -1.95316  -0.1903   -1.15395 
 
 ITRead=  3  3  3  3  3  3  3  3  3  3
 MicOpt=  0  0  0  0  0  0  0  0  0  0
 NAtoms=     10 NQM=        0 NQMF=       0 NMMI=      0 NMMIF=      0
                NMic=      10 NMicF=      0.
                    Isotopes and Nuclear Properties:
 (Nuclear quadrupole moments (NQMom) in fm**2, nuclear magnetic moments (NMagM)
  in nuclear magnetons)

  Atom         1           2           3           4           5           6           7           8           9          10
 IAtWgt=          12          16          12           1           1          14           1           1          16           1
 AtmWgt=  12.0000000  15.9949146  12.0000000   1.0078250   1.0078250  14.0030740   1.0078250   1.0078250  15.9949146   1.0078250
 NucSpn=           0           0           0           1           1           2           1           1           0           1
 AtZEff=  -0.0000000  -0.0000000  -0.0000000  -0.0000000  -0.0000000  -0.0000000  -0.0000000  -0.0000000  -0.0000000  -0.0000000
 NQMom=    0.0000000   0.0000000   0.0000000   0.0000000   0.0000000   2.0440000   0.0000000   0.0000000   0.0000000   0.0000000
 NMagM=    0.0000000   0.0000000   0.0000000   2.7928460   2.7928460   0.4037610   2.7928460   2.7928460   0.0000000   2.7928460
 AtZNuc=   6.0000000   8.0000000   6.0000000   1.0000000   1.0000000   7.0000000   1.0000000   1.0000000   8.0000000   1.0000000
 Generating MM parameters.
 I=    1 IAn=  6 Valence= 5.
          JB=  1 J=    2 IAn=  8 IBT=12 Dist= 1.38D+00
          JB=  2 J=    3 IAn=  6 IBT= 1 Dist= 1.52D+00
          JB=  3 J=    9 IAn=  8 IBT= 2 Dist= 1.20D+00
 I=    2 IAn=  8 Valence= 3.
          JB=  1 J=    1 IAn=  6 IBT=12 Dist= 1.38D+00
          JB=  2 J=   10 IAn=  1 IBT= 1 Dist= 9.94D-01
 Read MM parameter file:
 Include all MM classes

 MM sanity checks:
 All charges sum to:               -0.00000100
 Charges of atoms sum to:          -0.00000100
 WARNING -- The following centers have non-zero partial charges, but zero Vanderwaals
 parameters.  These centers can collapse onto other centers with non-zero charge.
   Center  Layer   Charge
     10 H    R    0.213510
 MMInit generated parameter data with length LenPar=        2069.
 MM Charge=             -0.0000 electrons
 MM Dipole moment (Debye):
    X=              1.2720    Y=             -2.0501    Z=             -0.4102  Tot=              2.4473
 MM Quadrupole moment (Debye-Ang):
   XX=              2.5830   YY=             -0.5814   ZZ=              1.3254
   XY=             -0.2794   XZ=              2.8846   YZ=             -1.8465
 MM Traceless Quadrupole moment (Debye-Ang):
   XX=              1.4740   YY=             -1.6904   ZZ=              0.2164
   XY=             -0.2794   XZ=              2.8846   YZ=             -1.8465
 MM Octapole moment (Debye-Ang**2):
  XXX=              5.3029  YYY=             -2.3508  ZZZ=             -0.2899  XYY=              2.2321
  XXY=             -4.3139  XXZ=             -5.1485  XZZ=              2.3997  YZZ=             -1.5366
  YYZ=             -0.2251  XYZ=              1.5712
 MM Hexadecapole moment (Debye-Ang**3):
 XXXX=             32.5995 YYYY=              1.1417 ZZZZ=              5.0246 XXXY=              0.6551
 XXXZ=             10.7281 YYYX=              0.2169 YYYZ=             -1.5837 ZZZX=              4.7247
 ZZZY=             -2.0323 XXYY=             -2.4409 XXZZ=              5.4177 YYZZ=             -0.7069
 XXYZ=             -1.9099 YYXZ=              1.4968 ZZXY=              0.4134
 Leave Link  101 at Wed Nov 29 12:05:24 2023, MaxMem=   134217728 cpu:               0.3 elap:               0.3
 (Enter /home/emanuele/chem_software/gaussian//gdv/l103.exe)

 GradGradGradGradGradGradGradGradGradGradGradGradGradGradGradGradGradGrad
 Berny optimization.
 Initialization pass.
 No Z-matrix variables, so optimization will use Cartesian coordinates.
 Trust Radius=1.00D-01 FncErr=1.00D-07 GrdErr=1.00D-07 EigMax=2.50D+02 EigMin=1.00D-04
 Number of steps in this run=      2 maximum allowed number of steps=      2.
 GradGradGradGradGradGradGradGradGradGradGradGradGradGradGradGradGradGrad

 Leave Link  103 at Wed Nov 29 12:05:24 2023, MaxMem=   134217728 cpu:               0.0 elap:               0.0
 (Enter /home/emanuele/chem_software/gaussian//gdv/l202.exe)
                          Input orientation:                          
 ---------------------------------------------------------------------
 Center     Atomic      Atomic             Coordinates (Angstroms)
 Number     Number       Type             X           Y           Z
 ---------------------------------------------------------------------
      1          6    20001002       -0.642549    0.091353    0.314321
      2          8    20001022       -1.070870   -0.525237   -0.841677
      3          6    20001001        0.738105   -0.428996    0.682564
      4          1    20001034        1.105509   -0.488214    1.736042
      5          1    20001034        0.547187   -1.467678    0.324409
      6          7    20001020        1.668563    0.329359   -0.188619
      7          1    20001029        2.608440    0.007787    0.062141
      8          1    20001029        1.635050   -0.129798   -1.095004
      9          8    20001025       -1.354246    0.878132    0.884722
     10          1    20001031       -1.953163   -0.190296   -1.153948
 ---------------------------------------------------------------------
                    Distance matrix (angstroms):
                    1          2          3          4          5
     1  C    0.000000
     2  O    1.378395   0.000000
     3  C    1.520714   2.367480   0.000000
     4  H    2.326563   3.373816   1.117277   0.000000
     5  H    1.961161   2.205915   1.115161   1.806594   0.000000
     6  N    2.377148   2.943011   1.483177   2.165589   2.179455
     7  H    3.261826   3.826006   2.018380   2.303641   2.548440
     8  H    2.687482   2.746370   2.013400   2.902361   2.233406
     9  O    1.204529   2.242811   2.475355   2.939735   3.071192
    10  H    1.988177   0.994052   3.266906   4.218563   3.173168
                    6          7          8          9         10
     6  N    0.000000
     7  H    1.024528   0.000000
     8  H    1.016603   1.518355   0.000000
     9  O    3.254318   4.139688   3.724396   0.000000
    10  H    3.784019   4.725075   3.589207   2.378322   0.000000
 Symmetry turned off by external request.
 Stoichiometry    C2H5NO2
 Framework group  C1[X(C2H5NO2)]
 Deg. of freedom    24
 Full point group                 C1      NOp   1
 Rotational constants (GHZ):           8.7674481           4.0140274           3.2291703
 Leave Link  202 at Wed Nov 29 12:05:24 2023, MaxMem=   134217728 cpu:               0.0 elap:               0.0
 (Enter /home/emanuele/chem_software/gaussian//gdv/l301.exe)
 Standard basis: Dummy (5D, 7F)
    10 basis functions,    10 primitive gaussians,    10 cartesian basis functions
     7 alpha electrons        7 beta electrons
       nuclear repulsion energy        22.6602308699 Hartrees.
 IExCor=       0 DFT=F Ex=HF Corr=None N6=None ScaHFX=  1.000000
 ScaDFX=  1.000000  1.000000  1.000000  1.000000  1.000000  0.000000
 ScaDFX=  0.000000  0.000000  0.000000  0.000000  0.000000  0.000000
 IRadAn=      5 IRanWt=     -1 IRanGd=            0 ICorTp=0 IEmpDi=  4
 NAtoms=   10 NActive=   10 NUniq=   10 SFac= 1.00D+00 NAtFMM=   60 NAOKFM=F Big=F
 Integral buffers will be    131072 words long.
 Raffenetti 1 integral format.
 Two-electron integral symmetry is turned off.
 Leave Link  301 at Wed Nov 29 12:05:24 2023, MaxMem=   134217728 cpu:               0.0 elap:               0.0
 (Enter /home/emanuele/chem_software/gaussian//gdv/l402.exe)
 AMBER calculation of energy and first derivatives.
 NRF= 0 NRA=   0 NVA=  10 HaveQM=F NVQ=       0
 Convergence limit is  0.750E-04 MaxStp= 10000 StMxLn= 3.00D-04 StpMin= 1.00D-06.
 Convergence criteria             0.00011250 0.00007500 0.00045000 0.00030000
  Step  NS  ND Rises OKQ   Scale  Max. Force  RMS Force Max. Disp.  RMS Disp.     Energy   Flag
     1   0   0   F    T  1.00D+00 0.04564902 0.01764408 0.04564902 0.01764408    0.0759028 ----
     2   0   0   F    F  8.56D-01 0.04564902 0.01764408 0.03906940 0.01510096    0.0691218 ----
     3   0   0   F    T  2.14D+00 0.02609423 0.01247672 0.08175978 0.03274504    0.0673116 ----
     4   0   0   F    F  3.75D-01 0.02609423 0.01247672 0.03069177 0.01229215    0.0609516 ----
     5   0   0   F    T  1.32D+00 0.04780639 0.01714968 0.11971005 0.04503719    0.0604416 ----
     6   0   0   F    F -1.17D-01 0.04780639 0.01714968 0.01403777 0.00528127    0.0553979 ----
     7   0   0   F    T  2.98D+00 0.02256118 0.00901819 0.10742591 0.03975591    0.0553075 ----
     8   0   0   T    F  4.84D-01 0.02256118 0.00901819 0.05197848 0.01923607    0.0555690 ----
     9   0   0   F    T  1.95D+00 0.01301093 0.00668225 0.05417857 0.01923607    0.0535450 ----
    10   0   0   F    F  2.33D+00 0.01301093 0.00668225 0.12621076 0.04481105    0.0513182 ----
    11   0   0   F    F -2.14D-02 0.01301093 0.00668225 0.00269526 0.00095695    0.0491947 ----
    12   0   0   F    T  3.70D+00 0.01929514 0.00834295 0.14339881 0.06309017    0.0491937 ----
    13   0   0   T    F  4.17D-01 0.01929514 0.00834295 0.05974295 0.02628469    0.0508252 ----
    14   0   0   F    T  1.50D+00 0.01765046 0.00808755 0.06593675 0.02628469    0.0475807 ----
    15   0   0   F    F  1.99D-01 0.01765046 0.00808755 0.01313730 0.00523699    0.0458686 ----
    16   0   0   F    T  1.56D+00 0.01902774 0.00834027 0.08576546 0.03152167    0.0458201 ----
    17   0   0   F    F  1.45D-01 0.01902774 0.00834027 0.01244966 0.00457566    0.0439534 ----
    18   0   0   F    T  4.61D+00 0.01091522 0.00490941 0.11615868 0.03609734    0.0439220 ----
    19   0   0   F    F -3.31D-01 0.01091522 0.00490941 0.03846436 0.01195314    0.0430816 ----
    20   0   0   F    T  2.22D+00 0.00992311 0.00528824 0.08481023 0.02414420    0.0428338 ----
    21   0   0   F    F  8.57D-01 0.00992311 0.00528824 0.07266220 0.02068584    0.0414372 ----
    22   0   0   F    F -2.34D-02 0.00992311 0.00528824 0.00169905 0.00048369    0.0410491 ----
    23   0   0   F    T  1.32D+00 0.02339014 0.00901304 0.15990872 0.04434634    0.0410489 ----
    24   0   0   F    F -1.74D-01 0.02339014 0.00901304 0.02778107 0.00770433    0.0397371 ----
    25   0   0   F    T  2.96D+00 0.02006817 0.00649176 0.12661614 0.03664201    0.0396713 ----
    26   0   0   F    F -4.28D-01 0.02006817 0.00649176 0.05413959 0.01566770    0.0391746 ----
    27   0   0   F    T  2.60D+00 0.00910841 0.00464424 0.07492727 0.02097431    0.0386174 ----
    28   0   0   F    F -1.55D-01 0.00910841 0.00464424 0.01163442 0.00325681    0.0379235 ----
    29   0   0   F    T  1.27D+00 0.01583063 0.00579086 0.06266128 0.01771750    0.0378986 ----
    30   0   0   F    F  2.19D-01 0.01583063 0.00579086 0.01371734 0.00387859    0.0371399 ----
    31   0   0   F    T  1.55D+00 0.01285603 0.00571729 0.07139623 0.02159609    0.0371144 ----
    32   0   0   F    F  5.45D-01 0.01285603 0.00571729 0.03894303 0.01177957    0.0361015 ----
    33   0   0   F    F -1.02D-02 0.01285603 0.00571729 0.00039842 0.00012052    0.0359628 --++
    34   0   0   F    T  2.78D+00 0.01081209 0.00504168 0.10642801 0.03325515    0.0359628 ----
    35   0   0   F    F -3.00D-01 0.01081209 0.00504168 0.03193685 0.00997919    0.0353526 ----
    36   0   0   F    T  1.93D+00 0.01191912 0.00487994 0.06502826 0.02327596    0.0352067 ----
    37   0   0   F    F -4.27D-01 0.01191912 0.00487994 0.02778249 0.00994436    0.0350346 ----
    38   0   0   F    T  1.75D+00 0.00788295 0.00374558 0.02850004 0.01333161    0.0348101 ----
    39   0   0   F    F  1.57D-01 0.00788295 0.00374558 0.00446045 0.00208649    0.0343971 ----
    40   0   0   F    T  4.32D+00 0.00650868 0.00222062 0.03115084 0.01541809    0.0343896 ----
    41   0   0   T    F  3.58D-01 0.00650868 0.00222062 0.01115256 0.00551996    0.0346412 ----
    42   0   0   F    T  1.73D+00 0.00364686 0.00187550 0.01149546 0.00551996    0.0342752 ----
    43   0   0   F    F -1.96D-01 0.00364686 0.00187550 0.00225616 0.00108337    0.0342062 ----
    44   0   0   F    T  1.37D+00 0.00409359 0.00173700 0.01056067 0.00443658    0.0342019 ----
    45   0   0   F    F  1.52D-01 0.00409359 0.00173700 0.00160937 0.00067610    0.0341319 ----
    46   0   0   F    T  4.35D+00 0.00169847 0.00085868 0.01380777 0.00511269    0.0341307 ----
    47   0   0   F    F -4.37D-01 0.00169847 0.00085868 0.00603433 0.00223437    0.0341200 ----
    48   0   0   F    T  1.30D+00 0.00325610 0.00110059 0.00796232 0.00287832    0.0341036 ----
    49   0   0   F    F  4.44D-02 0.00325610 0.00110059 0.00035336 0.00012774    0.0340790 --++
    50   0   0   F    T  1.55D+00 0.00291804 0.00096104 0.00798205 0.00300606    0.0340790 ----
    51   0   0   F    F  2.31D-01 0.00291804 0.00096104 0.00184561 0.00069506    0.0340535 ----
    52   0   0   F    T  3.64D+00 0.00160289 0.00062092 0.00713873 0.00370112    0.0340526 ----
    53   0   0   F    F -3.35D-01 0.00160289 0.00062092 0.00239231 0.00124031    0.0340421 ----
    54   0   0   F    T  1.33D+00 0.00202436 0.00079638 0.00526910 0.00246081    0.0340386 ----
    55   0   0   F    T  2.03D+00 0.00123233 0.00059292 0.00443276 0.00246081    0.0340262 ----
    56   0   0   F    F -3.74D-01 0.00123233 0.00059292 0.00165859 0.00092075    0.0340219 ----
    57   0   0   F    T  3.74D+00 0.00067241 0.00030263 0.00357021 0.00154006    0.0340196 ----
    58   0   0   F    F -2.18D-01 0.00067241 0.00030263 0.00077734 0.00033531    0.0340159 ----
    59   0   0   F    T  1.14D+00 0.00122004 0.00045905 0.00311495 0.00120474    0.0340156 ----
    60   0   0   F    F  2.89D-01 0.00122004 0.00045905 0.00090094 0.00034845    0.0340112 ----
    61   0   0   F    T  1.55D+00 0.00089006 0.00042457 0.00414365 0.00155319    0.0340109 ----
    62   0   0   F    F  4.47D-01 0.00089006 0.00042457 0.00185166 0.00069407    0.0340054 ----
    63   0   0   F    T  4.21D+00 0.00073856 0.00028649 0.00486112 0.00224726    0.0340048 ----
    64   0   0   T    F  3.73D-01 0.00073856 0.00028649 0.00181172 0.00083754    0.0340084 ----
    65   0   0   F    T  1.34D+00 0.00071132 0.00029157 0.00178408 0.00083754    0.0340029 ----
    66   0   0   F    F  5.74D-01 0.00071132 0.00029157 0.00102432 0.00048087    0.0340006 ----
    67   0   0   F    T  1.04D+00 0.00095773 0.00040484 0.00318994 0.00131841    0.0340002 ----
    68   0   0   F    F  2.01D+00 0.00095773 0.00040484 0.00639815 0.00264437    0.0339960 ----
    69   0   0   F    T  2.87D+00 0.00082422 0.00040989 0.01095088 0.00396278    0.0339926 ----
    70   0   0   F    F -2.06D-01 0.00082422 0.00040989 0.00225998 0.00081782    0.0339872 ----
    71   0   0   F    T  1.82D+00 0.00110075 0.00045269 0.00728627 0.00314497    0.0339868 ----
    72   0   0   F    F -3.06D-01 0.00110075 0.00045269 0.00222928 0.00096222    0.0339837 ----
    73   0   0   F    T  1.48D+00 0.00124077 0.00041166 0.00557743 0.00218274    0.0339829 ----
    74   0   0   F    F  1.20D+00 0.00124077 0.00041166 0.00668428 0.00261591    0.0339771 ----
    75   0   0   F    T  1.64D+00 0.00153355 0.00056947 0.01229160 0.00479865    0.0339747 ----
    76   0   0   F    F  1.14D+00 0.00153355 0.00056947 0.01401148 0.00547010    0.0339624 ----
    77   0   0   F    T  2.05D+00 0.00189570 0.00074510 0.02473975 0.01026875    0.0339575 ----
    78   0   0   F    F -3.57D-01 0.00189570 0.00074510 0.00882128 0.00366146    0.0339498 ----
    79   0   0   F    T  1.64D+00 0.00164744 0.00063912 0.01842327 0.00660729    0.0339468 ----
    80   0   0   F    F  6.74D-02 0.00164744 0.00063912 0.00124138 0.00044521    0.0339359 ----
    81   0   0   F    T  2.56D+00 0.00120254 0.00051278 0.02020907 0.00705250    0.0339358 ----
    82   0   0   F    F  8.81D-02 0.00120254 0.00051278 0.00178063 0.00062140    0.0339247 ----
    83   0   0   F    T  3.02D+00 0.00121075 0.00051772 0.01918358 0.00767390    0.0339246 ----
    84   0   0   F    F -4.54D-01 0.00121075 0.00051772 0.00870192 0.00348098    0.0339224 ----
    85   0   0   F    T  1.00D+00 0.00187601 0.00065613 0.01134577 0.00419292    0.0339181 ----
    86   0   0   F    F  1.79D+00 0.00187601 0.00065613 0.02027540 0.00749294    0.0339073 ----
    87   0   0   F    T  3.24D+00 0.00175629 0.00057206 0.02982174 0.01168586    0.0338997 ----
    88   0   0   F    F -4.38D-01 0.00175629 0.00057206 0.01306185 0.00511837    0.0338961 ----
    89   0   0   F    T  4.82D+00 0.00073099 0.00036184 0.01712518 0.00656748    0.0338908 ----
    90   0   0   F    F -4.71D-01 0.00073099 0.00036184 0.00805971 0.00309089    0.0338896 ----
    91   0   0   F    T  1.22D+00 0.00135817 0.00051464 0.00903636 0.00347659    0.0338858 ----
    92   0   0   F    F  5.14D-01 0.00135817 0.00051464 0.00464222 0.00178602    0.0338793 ----
    93   0   0   F    T  1.83D+00 0.00112893 0.00051019 0.01265318 0.00526262    0.0338784 ----
    94   0   0   F    F -2.96D-01 0.00112893 0.00051019 0.00374212 0.00155639    0.0338743 ----
    95   0   0   F    T  1.06D+01 0.00035292 0.00018075 0.00791527 0.00370622    0.0338734 ----
    96   0   0   T    F  2.01D-01 0.00035292 0.00018075 0.00159249 0.00074566    0.0338888 ----
    97   0   0   F    T  1.08D+00 0.00066059 0.00024530 0.00155186 0.00074566    0.0338724 ----
    98   0   0   F    F  8.07D-01 0.00066059 0.00024530 0.00125220 0.00060168    0.0338709 ----
    99   0   0   F    T  1.73D+00 0.00058806 0.00025352 0.00278370 0.00134734    0.0338706 ----
   100   0   0   F    T  2.56D+00 0.00051371 0.00018920 0.00261185 0.00134734    0.0338691 ----
   101   0   0   F    T  3.20D+00 0.00038582 0.00018518 0.00244456 0.00134734    0.0338677 ----
   102   0   0   T    F  4.55D-01 0.00038582 0.00018518 0.00111138 0.00061255    0.0338681 ----
   103   0   0   F    T  1.05D+00 0.00064080 0.00020415 0.00107479 0.00061255    0.0338670 ----
   104   0   0   F    F  1.44D+00 0.00064080 0.00020415 0.00154892 0.00088277    0.0338659 ----
   105   0   0   F    T  2.34D+00 0.00049044 0.00021618 0.00321238 0.00149532    0.0338654 ----
   106   0   0   F    F  7.30D-01 0.00049044 0.00021618 0.00234505 0.00109159    0.0338630 ----
   107   0   0   F    T  1.55D+00 0.00084824 0.00034499 0.00547688 0.00258690    0.0338625 ----
   108   0   0   F    F  8.87D-02 0.00084824 0.00034499 0.00048603 0.00022957    0.0338596 ---+
   109   0   0   F    T  1.51D+00 0.00100107 0.00036189 0.00589662 0.00281647    0.0338595 ----
   110   0   0   F    T  2.76D+00 0.00065071 0.00026988 0.00621743 0.00281647    0.0338564 ----
   111   0   0   F    F -1.75D-01 0.00065071 0.00026988 0.00108662 0.00049223    0.0338540 ----
   112   0   0   F    T  2.14D+00 0.00080879 0.00026331 0.00454948 0.00232423    0.0338538 ----
   113   0   0   F    F  3.35D-01 0.00080879 0.00026331 0.00152403 0.00077859    0.0338511 ----
   114   0   0   F    T  1.19D+00 0.00109666 0.00041179 0.00589075 0.00310283    0.0338509 ----
   115   0   0   F    F  1.21D-01 0.00109666 0.00041179 0.00071289 0.00037550    0.0338475 ----
   116   0   0   F    T  3.32D+00 0.00065516 0.00025507 0.00705966 0.00347833    0.0338475 ----
   117   0   0   F    F -3.41D-01 0.00065516 0.00025507 0.00240787 0.00118637    0.0338459 ----
   118   0   0   F    T  2.56D+00 0.00047875 0.00023261 0.00420667 0.00229196    0.0338453 ----
   119   0   0   F    T  1.63D+00 0.00064519 0.00029088 0.00419868 0.00229196    0.0338432 ----
   120   0   0   F    T  1.66D+00 0.00075196 0.00027962 0.00460546 0.00229196    0.0338411 ----
   121   0   0   F    F -1.53D-01 0.00075196 0.00027962 0.00070387 0.00035029    0.0338395 ----
   122   0   0   F    T  3.98D+00 0.00030611 0.00015637 0.00404919 0.00194167    0.0338394 ----
   123   0   0   F    F -3.08D-01 0.00030611 0.00015637 0.00124801 0.00059845    0.0338386 ----
   124   0   0   F    T  3.00D+00 0.00039378 0.00014599 0.00305031 0.00134322    0.0338384 ----
   125   0   0   T    F  4.18D-01 0.00039378 0.00014599 0.00127598 0.00056189    0.0338388 ----
   126   0   0   F    T  1.51D+00 0.00043418 0.00012899 0.00126499 0.00056189    0.0338380 ----
   127   0   0   F    T  2.59D+00 0.00022282 0.00009844 0.00114726 0.00056189    0.0338376 ----
   128   0   0   F    T  3.10D+00 0.00019759 0.00008757 0.00124109 0.00056189    0.0338371 ----
   129   0   0   T    F  4.77D-01 0.00019759 0.00008757 0.00059174 0.00026790    0.0338372 ---+
   130   0   0   F    T  1.19D+00 0.00021764 0.00008370 0.00067818 0.00026790    0.0338369 ---+
   131   0   0   F    T  2.45D+00 0.00021989 0.00007467 0.00084340 0.00026790    0.0338368 -+-+
   132   0   0   F    F -4.48D-01 0.00021989 0.00007467 0.00037782 0.00012001    0.0338367 -+++
   133   0   0   F    T  1.45D+00 0.00013868 0.00005901 0.00039449 0.00014789    0.0338366 -+++
   134   0   0   F    T  1.09D+00 0.00019536 0.00006719 0.00038190 0.00014789    0.0338366 -+++
   135   0   0   F    F  1.33D+00 0.00019536 0.00006719 0.00050807 0.00019675    0.0338364 -+-+
   136   0   0   F    T  1.89D+00 0.00017594 0.00006981 0.00091813 0.00034464    0.0338364 -+--
   137   0   0   F    T  1.10D+00 0.00025725 0.00009166 0.00095675 0.00034464    0.0338362 ----
   138   0   0   F    F  6.36D-01 0.00025725 0.00009166 0.00060842 0.00021916    0.0338360 ---+
   139   0   0   F    T  1.36D+00 0.00020835 0.00010025 0.00143792 0.00056380    0.0338360 ----
   140   0   0   F    F  1.42D+00 0.00020835 0.00010025 0.00203813 0.00079913    0.0338357 ----
   141   0   0   F    T  2.66D+00 0.00028945 0.00011395 0.00362731 0.00136293    0.0338355 ----
   142   0   0   T    F  3.89D-01 0.00028945 0.00011395 0.00141012 0.00052984    0.0338358 ----
   143   0   0   F    T  1.34D+00 0.00028219 0.00009848 0.00148402 0.00052984    0.0338353 ----
   144   0   0   F    F  1.08D+00 0.00028219 0.00009848 0.00160379 0.00057260    0.0338350 ----
   145   0   0   F    T  1.86D+00 0.00036422 0.00011905 0.00298734 0.00110244    0.0338349 ----
   146   0   0   F    F  4.41D-01 0.00036422 0.00011905 0.00131817 0.00048645    0.0338344 ----
   147   0   0   F    T  1.54D+00 0.00045185 0.00015563 0.00421586 0.00158889    0.0338343 ----
   148   0   0   F    F -3.47D-01 0.00045185 0.00015563 0.00146283 0.00055132    0.0338341 ----
   149   0   0   F    T  2.75D+00 0.00026262 0.00009551 0.00256570 0.00103757    0.0338340 ----
   150   0   0   F    F -3.70D-01 0.00026262 0.00009551 0.00094987 0.00038413    0.0338338 ----
   151   0   0   F    T  1.91D+00 0.00021771 0.00008925 0.00143349 0.00065344    0.0338337 ----
   152   0   0   F    F  6.85D-01 0.00021771 0.00008925 0.00098163 0.00044747    0.0338334 ----
   153   0   0   F    T  1.00D+00 0.00052705 0.00016241 0.00249065 0.00114700    0.0338333 ----
   154   0   0   F    F  4.76D-01 0.00052705 0.00016241 0.00118588 0.00054613    0.0338328 ----
   155   0   0   F    T  3.08D+00 0.00025392 0.00011144 0.00354738 0.00169313    0.0338328 ----
   156   0   0   F    F -4.42D-01 0.00025392 0.00011144 0.00156709 0.00074796    0.0338326 ----
   157   0   0   F    T  3.03D+00 0.00022686 0.00008194 0.00214152 0.00094517    0.0338324 ----
   158   0   0   T    F  3.72D-01 0.00022686 0.00008194 0.00079667 0.00035162    0.0338326 ----
   159   0   0   F    T  1.11D+00 0.00017472 0.00008106 0.00085611 0.00035162    0.0338323 ----
   160   0   0   F    F  2.10D+00 0.00017472 0.00008106 0.00179416 0.00073688    0.0338321 ----
   161   0   0   F    T  3.10D+00 0.00022107 0.00008419 0.00250950 0.00108850    0.0338320 ----
   162   0   0   T    F  4.27D-01 0.00022107 0.00008419 0.00107255 0.00046522    0.0338321 ----
   163   0   0   F    T  1.46D+00 0.00022911 0.00007919 0.00107516 0.00046522    0.0338318 ----
   164   0   0   F    T  1.63D+00 0.00015642 0.00006944 0.00117262 0.00046522    0.0338317 -+--
   165   0   0   F    F  6.94D-01 0.00015642 0.00006944 0.00081413 0.00032299    0.0338316 -+--
   166   0   0   F    T  2.54D+00 0.00018169 0.00008096 0.00185220 0.00078821    0.0338315 ----
   167   0   0   T    F  4.40D-01 0.00018169 0.00008096 0.00081499 0.00034682    0.0338316 ----
   168   0   0   F    T  1.56D+00 0.00018554 0.00006501 0.00078839 0.00034682    0.0338314 -+--
   169   0   0   F    T  2.21D+00 0.00018633 0.00005508 0.00085799 0.00034682    0.0338313 -+--
   170   0   0   F    F  5.72D-01 0.00018633 0.00005508 0.00049105 0.00019849    0.0338312 -+-+
   171   0   0   F    T  1.74D+00 0.00020339 0.00007387 0.00135677 0.00054532    0.0338312 -+--
   172   0   0   F    F -4.25D-01 0.00020339 0.00007387 0.00057632 0.00023164    0.0338311 -+-+
   173   0   0   F    T  1.76D+00 0.00014213 0.00005603 0.00075751 0.00031368    0.0338311 -+--
   174   0   0   F    T  4.44D+00 0.00010584 0.00004184 0.00060923 0.00031368    0.0338310 ++--
   175   0   0   T    T  1.00D+00 0.00054691 0.00018426 0.00054691 0.00018426    0.0338311 ---+
   176   0   0   T    F  5.00D-01 0.00054691 0.00018426 0.00027346 0.00009213    0.0338321 --++
   177   0   0   T    F  5.00D-01 0.00054691 0.00018426 0.00013673 0.00004606    0.0338313 --++
   178   0   0   T    F  5.00D-01 0.00054691 0.00018426 0.00006836 0.00002303    0.0338311 --++
   179   0   0   T    F  5.00D-01 0.00054691 0.00018426 0.00003418 0.00001152    0.0338310 --++
   180   0   0   T    F  5.00D-01 0.00054691 0.00018426 0.00001709 0.00000576    0.0338310 --++
   181   0   0   T    F  5.00D-01 0.00054691 0.00018426 0.00000855 0.00000288    0.0338310 --++
   182   0   0   T    F  5.00D-01 0.00054691 0.00018426 0.00000427 0.00000144    0.0338310 --++
   183   0   0   T    F  5.00D-01 0.00054691 0.00018426 0.00000214 0.00000072    0.0338310 --++
   184   0   0   T    F  5.00D-01 0.00054691 0.00018426 0.00000107 0.00000036    0.0338310 --++
   185   0   0   T    F  5.00D-01 0.00054691 0.00018426 0.00000053 0.00000018    0.0338310 --++
   186   0   0   T    T  1.00D+00 0.00010695 0.00004204 0.00008138 0.00003482    0.0338310 ++++
   187   0   0   F    T  1.08D+00 0.00010008 0.00003405 0.00010745 0.00003482    0.0338309 ====
 ****************************
 MOLECULAR MECHANICS FUNCTION
 ****************************
 Atomic parameters:
 Center  VDW
      1 1.9080 0.0860000
      2 1.7210 0.2104000
      3 1.9080 0.1094000
      4 1.4870 0.0157000
      5 1.4870 0.0157000
      6 1.8750 0.1700000
      7 0.6000 0.0157000
      8 0.6000 0.0157000
      9 1.6612 0.2100000
     10 0.0000 0.0000000
 Molecular mechanics terms:
 NBDir 3 1      0      0
 HrmStr1  1- 2  431.53 1.3510
 HrmStr1  1- 3  294.15 1.5090
 HrmStr1  1- 9  946.08 1.2030
 HrmStr1  2-10  566.76 0.9680
 HrmStr1  3- 4  358.05 1.0960
 HrmStr1  3- 5  358.05 1.0960
 HrmStr1  3- 6  380.82 1.4520
 HrmStr1  6- 7  506.01 1.0110
 HrmStr1  6- 8  506.01 1.0110
 HrmBnd1  1- 2-10  56.55 107.23
 HrmBnd1  1- 3- 4  46.41 106.89
 HrmBnd1  1- 3- 5  46.41 106.89
 HrmBnd1  1- 3- 6  59.93 110.61
 HrmBnd1  2- 1- 3  67.92 111.72
 HrmBnd1  2- 1- 9  91.40 123.02
 HrmBnd1  3- 1- 9  62.83 125.24
 HrmBnd1  3- 6- 7  52.60 110.71
 HrmBnd1  3- 6- 8  52.60 110.71
 HrmBnd1  4- 3- 5  44.68 106.22
 HrmBnd1  4- 3- 6  52.45 112.94
 HrmBnd1  5- 3- 6  52.45 112.94
 HrmBnd1  7- 6- 8  47.09 108.63
 AmbTrs  3- 1- 2-10   0 180   0   0  0.0000 14.5000  0.0000  0.0000  2.0
 AmbTrs  9- 1- 2-10   0   0   0   0  0.0000  0.0000  0.0000  0.0000  2.0
 AmbTrs  2- 1- 3- 4   0   0   0   0  0.0000 14.5000  0.0000  0.0000  6.0
 AmbTrs  2- 1- 3- 5   0   0   0   0  0.0000 14.5000  0.0000  0.0000  6.0
 AmbTrs  2- 1- 3- 6   0   0   0   0  0.0000 14.5000  0.0000  0.0000  6.0
 AmbTrs  9- 1- 3- 4   0   0   0   0  0.0000 14.5000  0.0000  0.0000  6.0
 AmbTrs  9- 1- 3- 5   0   0   0   0  0.0000 14.5000  0.0000  0.0000  6.0
 AmbTrs  9- 1- 3- 6   0   0   0   0  0.0000 14.5000  0.0000  0.0000  6.0
 AmbTrs  1- 3- 6- 7   0 180   0   0  0.0000 25.6300  0.0000  0.0000  6.0
 AmbTrs  1- 3- 6- 8   0 180   0   0  0.0000 25.6300  0.0000  0.0000  6.0
 AmbTrs  4- 3- 6- 7   0   0   0   0  0.0000 16.9300  0.0000  0.0000  6.0
 AmbTrs  4- 3- 6- 8   0   0   0   0  0.0000 16.9300  0.0000  0.0000  6.0
 AmbTrs  5- 3- 6- 7   0   0   0   0  0.0000 16.9300  0.0000  0.0000  6.0
 AmbTrs  5- 3- 6- 8   0   0   0   0  0.0000 16.9300  0.0000  0.0000  6.0
 NBPair  2- 1 3 1      0      0 -1.000 -1.000
 NBPair  3- 2 3 1      0      0 -1.000 -1.000
 NBPair 10- 3 3 1      0      0 -0.500 -0.167
 NBPair  9- 2 3 1      0      0 -1.000 -1.000
 NBPair 10- 9 3 1      0      0 -0.500 -0.167
 NBPair  3- 1 3 1      0      0 -1.000 -1.000
 NBPair  4- 2 3 1      0      0 -0.500 -0.167
 NBPair  5- 2 3 1      0      0 -0.500 -0.167
 NBPair  6- 2 3 1      0      0 -0.500 -0.167
 NBPair  9- 3 3 1      0      0 -1.000 -1.000
 NBPair  9- 4 3 1      0      0 -0.500 -0.167
 NBPair  9- 5 3 1      0      0 -0.500 -0.167
 NBPair  9- 6 3 1      0      0 -0.500 -0.167
 NBPair  9- 1 3 1      0      0 -1.000 -1.000
 NBPair 10- 1 3 1      0      0 -1.000 -1.000
 NBPair 10- 2 3 1      0      0 -1.000 -1.000
 NBPair  4- 1 3 1      0      0 -1.000 -1.000
 NBPair  5- 1 3 1      0      0 -1.000 -1.000
 NBPair  6- 1 3 1      0      0 -1.000 -1.000
 NBPair  4- 3 3 1      0      0 -1.000 -1.000
 NBPair  5- 4 3 1      0      0 -1.000 -1.000
 NBPair  6- 4 3 1      0      0 -1.000 -1.000
 NBPair  5- 3 3 1      0      0 -1.000 -1.000
 NBPair  6- 5 3 1      0      0 -1.000 -1.000
 NBPair  6- 3 3 1      0      0 -1.000 -1.000
 NBPair  7- 1 3 1      0      0 -0.500 -0.167
 NBPair  8- 1 3 1      0      0 -0.500 -0.167
 NBPair  7- 4 3 1      0      0 -0.500 -0.167
 NBPair  8- 4 3 1      0      0 -0.500 -0.167
 NBPair  7- 5 3 1      0      0 -0.500 -0.167
 NBPair  8- 5 3 1      0      0 -0.500 -0.167
 NBPair  7- 3 3 1      0      0 -1.000 -1.000
 NBPair  8- 3 3 1      0      0 -1.000 -1.000
 NBPair  7- 6 3 1      0      0 -1.000 -1.000
 NBPair  8- 7 3 1      0      0 -1.000 -1.000
 NBPair  8- 6 3 1      0      0 -1.000 -1.000
 Energy per function type:
 Direct Coulomb + vdW (small)                           0.001978582
 Direct Coulomb (large)                                -0.132355174
 Direct vdW (large)                                   270.367158602
 Non-direct Coulomb + vdW (small)                      -0.011300786
 Non-direct Coulomb (large)                             0.138458385
 Non-direct vdW (large)                              -270.367158602
 Harmonic stretch I                                     0.000073447
 Harmonic bend I                                        0.008514794
 Amber torsion                                          0.028461695
 Energy per function class:
        Coulomb              -0.004099821
    Vanderwaals               0.000880828
     Stretching               0.000073447
        Bending               0.008514794
        Torsion               0.028461695
 Energy=    3.383094382E-02 NIter=   0.
 Dipole moment=       0.346522      -0.475939      -0.010629
 Leave Link  402 at Wed Nov 29 12:05:25 2023, MaxMem=   134217728 cpu:               0.3 elap:               0.3
 (Enter /home/emanuele/chem_software/gaussian//gdv/l716.exe)
 Dipole        = 3.46521873D-01-4.75938886D-01-1.06287662D-02
 -------------------------------------------------------------------
 Center     Atomic                   Forces (Hartrees/Bohr)
 Number     Number              X              Y              Z
 -------------------------------------------------------------------
      1        6           0.000012086    0.000100078    0.000002075
      2        8          -0.000030714   -0.000019830    0.000021851
      3        6           0.000029521   -0.000017744    0.000020440
      4        1          -0.000001467    0.000003205    0.000033656
      5        1          -0.000031594   -0.000006366   -0.000033155
      6        7          -0.000016271   -0.000014698    0.000003941
      7        1          -0.000002906    0.000035117   -0.000006172
      8        1           0.000057176    0.000008000    0.000006737
      9        8           0.000036595   -0.000076789   -0.000051478
     10        1          -0.000052426   -0.000010972    0.000002105
 -------------------------------------------------------------------
 Cartesian Forces:  Max     0.000100078 RMS     0.000034049
 Z-matrix is all fixed cartesians, so copy forces.
 Leave Link  716 at Wed Nov 29 12:05:25 2023, MaxMem=   134217728 cpu:               0.0 elap:               0.0
 (Enter /home/emanuele/chem_software/gaussian//gdv/l103.exe)

 GradGradGradGradGradGradGradGradGradGradGradGradGradGradGradGradGradGrad
 Berny optimization.
 Search for a local minimum.
 Step number   1 out of a maximum of    2
 All quantities printed in internal units (Hartrees-Bohrs-Radians)
 RMS Force = .34049D-04 SwitMx=.10000D-02 MixMth= 2
 Mixed Optimization -- En-DIIS/RFO-DIIS
 Second derivative matrix not updated -- unit matrix used.
 ITU=  0
 RFO step:  Lambda=-3.47806127D-08 EMin= 1.00000000D+00
 Linear search not attempted -- first point.
 Variable       Old X    -DE/DX   Delta X   Delta X   Delta X     New X
                                 (Linear)    (Quad)   (Total)
    X1       -1.16730   0.00001   0.00000   0.00001   0.00001  -1.16729
    Y1        0.02147   0.00010   0.00000   0.00010   0.00010   0.02157
    Z1        0.37892   0.00000   0.00000   0.00000   0.00000   0.37892
    X2       -2.21267  -0.00003   0.00000  -0.00003  -0.00003  -2.21270
    Y2       -1.28039  -0.00002   0.00000  -0.00002  -0.00002  -1.28041
    Z2       -1.54676   0.00002   0.00000   0.00002   0.00002  -1.54674
    X3        1.39317   0.00003   0.00000   0.00003   0.00003   1.39320
    Y3       -1.00978  -0.00002   0.00000  -0.00002  -0.00002  -1.00980
    Z3        1.16009   0.00002   0.00000   0.00002   0.00002   1.16011
    X4        1.50421  -0.00000   0.00000  -0.00000  -0.00000   1.50420
    Y4       -0.48905   0.00000   0.00000   0.00000   0.00000  -0.48905
    Z4        3.16270   0.00003   0.00000   0.00003   0.00003   3.16274
    X5        1.14869  -0.00003   0.00000  -0.00003  -0.00003   1.14866
    Y5       -3.06756  -0.00001   0.00000  -0.00001  -0.00001  -3.06757
    Z5        1.11480  -0.00003   0.00000  -0.00003  -0.00003   1.11477
    X6        3.39090  -0.00002   0.00000  -0.00002  -0.00002   3.39088
    Y6        0.02718  -0.00001   0.00000  -0.00001  -0.00001   0.02717
    Z6       -0.43183   0.00000   0.00000   0.00000   0.00000  -0.43183
    X7        5.21971  -0.00000   0.00000  -0.00000  -0.00000   5.21970
    Y7       -0.43174   0.00004   0.00000   0.00004   0.00004  -0.43171
    Z7       -0.11862  -0.00001   0.00000  -0.00001  -0.00001  -0.11862
    X8        2.96636   0.00006   0.00000   0.00006   0.00006   2.96641
    Y8        1.27495   0.00001   0.00000   0.00001   0.00001   1.27496
    Z8       -1.81686   0.00001   0.00000   0.00001   0.00001  -1.81685
    X9       -2.23097   0.00004   0.00000   0.00004   0.00004  -2.23094
    Y9        1.77740  -0.00008   0.00000  -0.00008  -0.00008   1.77732
    Z9        1.35168  -0.00005   0.00000  -0.00005  -0.00005   1.35163
   X10       -3.80995  -0.00005   0.00000  -0.00005  -0.00005  -3.81000
   Y10       -0.45753  -0.00001   0.00000  -0.00001  -0.00001  -0.45754
   Z10       -1.88417   0.00000   0.00000   0.00000   0.00000  -1.88416
         Item               Value     Threshold  Converged?
 Maximum Force            0.000100     0.000450     YES
 RMS     Force            0.000034     0.000300     YES
 Maximum Displacement     0.000100     0.001800     YES
 RMS     Displacement     0.000034     0.001200     YES
 Predicted change in Energy=-1.739031D-08
 Optimization completed.
    -- Stationary point found.
 Largest change from initial coordinates is atom    8       0.177 Angstoms.
 GradGradGradGradGradGradGradGradGradGradGradGradGradGradGradGradGradGrad

 Leave Link  103 at Wed Nov 29 12:05:25 2023, MaxMem=   134217728 cpu:               0.0 elap:               0.0
 (Enter /home/emanuele/chem_software/gaussian//gdv/l202.exe)
                          Input orientation:                          
 ---------------------------------------------------------------------
 Center     Atomic      Atomic             Coordinates (Angstroms)
 Number     Number       Type             X           Y           Z
 ---------------------------------------------------------------------
      1          6    20001002       -0.617709    0.011360    0.200516
      2          8    20001022       -1.170893   -0.677553   -0.818510
      3          6    20001001        0.737232   -0.534353    0.613892
      4          1    20001034        0.795991   -0.258795    1.673630
      5          1    20001034        0.607860   -1.623282    0.589927
      6          7    20001020        1.794385    0.014385   -0.228515
      7          1    20001029        2.762149   -0.228469   -0.062769
      8          1    20001029        1.569728    0.674676   -0.961439
      9          8    20001025       -1.180581    0.940560    0.715278
     10          1    20001031       -2.016136   -0.242116   -0.997058
 ---------------------------------------------------------------------
                    Distance matrix (angstroms):
                    1          2          3          4          5
     1  C    0.000000
     2  O    1.348713   0.000000
     3  C    1.518073   2.390235   0.000000
     4  H    2.059513   3.202304   1.096553   0.000000
     5  H    2.079835   2.458061   1.096849   1.752606   0.000000
     6  N    2.449954   3.101571   1.458881   2.165541   2.181660
     7  H    3.398570   4.030092   2.156786   2.623314   2.648109
     8  H    2.564179   3.059405   2.153247   2.900625   2.934713
     9  O    1.202172   2.229549   2.421498   2.502744   3.128501
    10  H    1.858503   0.967430   3.203373   3.878262   3.363258
                    6          7          8          9         10
     6  N    0.000000
     7  H    1.011443   0.000000
     8  H    1.011748   1.745035   0.000000
     9  O    3.255605   4.185344   3.232069   0.000000
    10  H    3.895706   4.868788   3.701379   2.242536   0.000000
 Symmetry turned off by external request.
 Stoichiometry    C2H5NO2
 Framework group  C1[X(C2H5NO2)]
 Deg. of freedom    24
 Full point group                 C1      NOp   1
 Rotational constants (GHZ):           8.9828362           3.8901857           3.1851640
 Leave Link  202 at Wed Nov 29 12:05:25 2023, MaxMem=   134217728 cpu:               0.0 elap:               0.0
 (Enter /home/emanuele/chem_software/gaussian//gdv/l9999.exe)
 Unable to Open any file for archive entry.
 1\1\GINC-EMANUELE-XPS-13-9343\FOpt\AMBER\ZDO\C2H5N1O2\EMANUELE\29-Nov-
 2023\0\\#p Amber=(SoftFirst,Print) geom=nocrowd nosymm opt=(maxcycle=3
 00)\\Title\\0,1\C,-0.6177091496,0.0113596737,0.2005161034\O,-1.1708931
 699,-0.6775526225,-0.8185103302\C,0.7372316291,-0.5343533333,0.6138917
 533\H,0.7959911879,-0.2587954424,1.6736295993\H,0.6078601804,-1.623282
 1875,0.5899272793\N,1.7943846919,0.0143846112,-0.2285146748\H,2.762149
 3537,-0.2284688995,-0.0627693292\H,1.5697283643,0.6746764657,-0.961439
 0065\O,-1.1805806544,0.9405596485,0.7152778253\H,-2.0161364335,-0.2421
 15914,-0.9970582199\\Version=ES64L-GDVRevJ.14\HF=0.0338309\RMSD=0.000e
 +00\RMSF=3.405e-05\Dipole=0.3465219,-0.4759389,-0.0106288\PG=C01 [X(C2
 H5N1O2)]\\@
 The archive entry for this job was punched.


 IF OTHER PEOPLE ARE GOING TO TALK, CONVERSATION IS SIMPLY IMPOSSIBLE.

                                               -- WHISTLER'S PRINCIPLE
 Job cpu time:       0 days  0 hours  0 minutes  0.9 seconds.
 Elapsed time:       0 days  0 hours  0 minutes  0.9 seconds.
 File lengths (MBytes):  RWF=      6 Int=      0 D2E=      0 Chk=      1 Scr=      1
 Normal termination of Gaussian DV at Wed Nov 29 12:05:25 2023.
