 Entering Gaussian System, Link 0=/home/emanuele/chem_software/gaussian//g09/g09
 Input=1_mm_40.gjf
 Output=1_mm_40.log
 Initial command:
 /home/emanuele/chem_software/gaussian//gdv/l1.exe "/home/emanuele/chem_software/gaussian/scratch/Gau-13831.inp" -scrdir="/home/emanuele/chem_software/gaussian/scratch/"
 Entering Link 1 = /home/emanuele/chem_software/gaussian//gdv/l1.exe PID=     13833.
  
 Copyright (c) 1988-2020, Gaussian, Inc.  All Rights Reserved.
  
 This is the private, development version of
 the Gaussian(R) DV system of programs. It is based on
 the Gaussian(R) 16 system (copyright 2016, Gaussian, Inc.),
 the Gaussian(R) 09 system (copyright 2009, Gaussian, Inc.),
 the Gaussian(R) 03 system (copyright 2003, Gaussian, Inc.),
 the Gaussian(R) 98 system (copyright 1998, Gaussian, Inc.),
 the Gaussian(R) 94 system (copyright 1995, Gaussian, Inc.),
 the Gaussian 92(TM) system (copyright 1992, Gaussian, Inc.),
 the Gaussian 90(TM) system (copyright 1990, Gaussian, Inc.),
 the Gaussian 88(TM) system (copyright 1988, Gaussian, Inc.),
 the Gaussian 86(TM) system (copyright 1986, Carnegie Mellon
 University), and the Gaussian 82(TM) system (copyright 1983,
 Carnegie Mellon University). Gaussian is a federally registered
 trademark of Gaussian, Inc.
  
 This software contains proprietary and confidential information,
 including trade secrets, belonging to Gaussian, Inc.
  
 This software is provided under written license and may be
 used, copied, transmitted, or stored only in accord with that
 written license.
  
 The following legend is applicable only to US Government
 contracts under FAR:
  
                    RESTRICTED RIGHTS LEGEND
  
 Use, reproduction and disclosure by the US Government is
 subject to restrictions as set forth in subparagraphs (a)
 and (c) of the Commercial Computer Software - Restricted
 Rights clause in FAR 52.227-19.
  
 Gaussian, Inc.
 340 Quinnipiac St., Bldg. 40, Wallingford CT 06492
  
  
 ---------------------------------------------------------------
 Warning -- This program may not be used in any manner that
 competes with the business of Gaussian, Inc. or will provide
 assistance to any competitor of Gaussian, Inc.  The licensee
 of this program is prohibited from giving any competitor of
 Gaussian, Inc. access to this program.  By using this program,
 the user acknowledges that Gaussian, Inc. is engaged in the
 business of creating and licensing software in the field of
 computational chemistry and represents and warrants to the
 licensee that it is not a competitor of Gaussian, Inc. and that
 it will not use this program in any manner prohibited above.
 ---------------------------------------------------------------
  

 Cite this work as:
 Gaussian Development Version, Revision J.14,
 M. J. Frisch, G. W. Trucks, H. B. Schlegel, G. E. Scuseria, 
 M. A. Robb, J. R. Cheeseman, G. Scalmani, V. Barone, 
 G. A. Petersson, H. Nakatsuji, X. Li, A. V. Marenich, M. Caricato, 
 J. Bloino, B. G. Janesko, J. Zheng, R. Gomperts, B. Mennucci, 
 H. P. Hratchian, J. V. Ortiz, A. F. Izmaylov, J. L. Sonnenberg, 
 D. Williams-Young, F. Ding, F. Lipparini, F. Egidi, J. Goings, 
 B. Peng, A. Petrone, T. Henderson, D. Ranasinghe, V. G. Zakrzewski, 
 J. Gao, N. Rega, G. Zheng, W. Liang, M. Hada, M. Ehara, K. Toyota, 
 R. Fukuda, J. Hasegawa, M. Ishida, T. Nakajima, Y. Honda, O. Kitao, 
 H. Nakai, T. Vreven, K. Throssell, J. A. Montgomery, Jr., 
 J. E. Peralta, F. Ogliaro, M. J. Bearpark, J. J. Heyd, 
 E. N. Brothers, K. N. Kudin, V. N. Staroverov, T. A. Keith, 
 R. Kobayashi, J. Normand, K. Raghavachari, A. P. Rendell, 
 J. C. Burant, S. S. Iyengar, J. Tomasi, M. Cossi, J. M. Millam, 
 M. Klene, C. Adamo, R. Cammi, J. W. Ochterski, R. L. Martin, 
 K. Morokuma, O. Farkas, J. B. Foresman, and D. J. Fox, 
 Gaussian, Inc., Wallingford CT, 2020.
 
 ******************************************
 Gaussian DV:  ES64L-GDVRevJ.14 29-Dec-2020
                29-Nov-2023 
 ******************************************
 %mem=1GB
 %nprocshared=1
 Will use up to    1 processors via shared memory.
 %chk=1_mm_40.chk
 -----------------------------------------------------------------
 #p Amber=(SoftFirst,Print) geom=nocrowd nosymm opt=(maxcycle=300)
 -----------------------------------------------------------------
 1/6=300,10=10,18=4000020,19=15,37=210000000,38=1,56=2,64=203/1,3;
 2/9=110,12=1,15=1,40=1/2;
 3/5=30,11=9,25=1,30=1,41=10030000,43=2,71=1/1;
 4/20=11,22=1001,24=3,119=11/2;
 7/30=1,44=-1/16;
 1/6=300,10=10,18=4000020,19=15,64=203/3(2);
 2/9=110,12=1,15=1/2;
 99//99;
 2/9=110,12=1,15=1/2;
 3/5=30,11=9,25=1,30=1,41=10030000,43=2,71=1/1;
 4/16=2,20=11,22=1001,24=3,119=11/2;
 7/30=1,44=-1/16;
 1/6=300,10=10,18=4000020,19=15,64=203/3(-4);
 2/9=110,12=1,15=1/2;
 99/9=10/99;
 Leave Link    1 at Wed Nov 29 12:05:25 2023, MaxMem=   134217728 cpu:               0.0 elap:               0.0
 (Enter /home/emanuele/chem_software/gaussian//gdv/l101.exe)
 -----
 Title
 -----
 Symbolic Z-matrix:
 Charge =  0 Multiplicity = 1
 C-C-+0.299289        -0.6389    0.01936   0.34583 
 O-OH--0.289770       -0.83109  -0.34001  -0.97121 
 C-CT--0.035454        0.7623   -0.35458   0.7831 
 H-HC-+0.090426        1.14093  -0.21085   1.82848 
 H-HC-+0.095387        0.62096  -1.44922   0.61683 
 N-N3--0.336253        1.70093   0.28434  -0.17717 
 H-H-+0.142619         2.47908  -0.38028  -0.26662 
 H-H-+0.128282         1.31674   0.08181  -1.10125 
 O-O2--0.308037       -1.53876   0.51044   0.97919 
 H-HO-+0.213510       -1.73016  -0.08461  -1.31223 
 
 ITRead=  3  3  3  3  3  3  3  3  3  3
 MicOpt=  0  0  0  0  0  0  0  0  0  0
 NAtoms=     10 NQM=        0 NQMF=       0 NMMI=      0 NMMIF=      0
                NMic=      10 NMicF=      0.
                    Isotopes and Nuclear Properties:
 (Nuclear quadrupole moments (NQMom) in fm**2, nuclear magnetic moments (NMagM)
  in nuclear magnetons)

  Atom         1           2           3           4           5           6           7           8           9          10
 IAtWgt=          12          16          12           1           1          14           1           1          16           1
 AtmWgt=  12.0000000  15.9949146  12.0000000   1.0078250   1.0078250  14.0030740   1.0078250   1.0078250  15.9949146   1.0078250
 NucSpn=           0           0           0           1           1           2           1           1           0           1
 AtZEff=  -0.0000000  -0.0000000  -0.0000000  -0.0000000  -0.0000000  -0.0000000  -0.0000000  -0.0000000  -0.0000000  -0.0000000
 NQMom=    0.0000000   0.0000000   0.0000000   0.0000000   0.0000000   2.0440000   0.0000000   0.0000000   0.0000000   0.0000000
 NMagM=    0.0000000   0.0000000   0.0000000   2.7928460   2.7928460   0.4037610   2.7928460   2.7928460   0.0000000   2.7928460
 AtZNuc=   6.0000000   8.0000000   6.0000000   1.0000000   1.0000000   7.0000000   1.0000000   1.0000000   8.0000000   1.0000000
 Generating MM parameters.
 I=    1 IAn=  6 Valence= 5.
          JB=  1 J=    2 IAn=  8 IBT=12 Dist= 1.38D+00
          JB=  2 J=    3 IAn=  6 IBT= 1 Dist= 1.51D+00
          JB=  3 J=    9 IAn=  8 IBT= 2 Dist= 1.21D+00
 I=    2 IAn=  8 Valence= 3.
          JB=  1 J=    1 IAn=  6 IBT=12 Dist= 1.38D+00
          JB=  2 J=   10 IAn=  1 IBT= 1 Dist= 9.95D-01
 Read MM parameter file:
 Include all MM classes

 MM sanity checks:
 All charges sum to:               -0.00000100
 Charges of atoms sum to:          -0.00000100
 WARNING -- The following centers have non-zero partial charges, but zero Vanderwaals
 parameters.  These centers can collapse onto other centers with non-zero charge.
   Center  Layer   Charge
     10 H    R    0.213510
 MMInit generated parameter data with length LenPar=        2069.
 MM Charge=             -0.0000 electrons
 MM Dipole moment (Debye):
    X=              1.1533    Y=             -1.7054    Z=             -0.5772  Tot=              2.1382
 MM Quadrupole moment (Debye-Ang):
   XX=              0.4408   YY=              0.3942   ZZ=              1.4737
   XY=             -0.9302   XZ=              3.2370   YZ=             -1.5101
 MM Traceless Quadrupole moment (Debye-Ang):
   XX=             -0.3288   YY=             -0.3753   ZZ=              0.7041
   XY=             -0.9302   XZ=              3.2370   YZ=             -1.5101
 MM Octapole moment (Debye-Ang**2):
  XXX=              5.0785  YYY=             -1.6081  ZZZ=             -0.5179  XYY=              1.3460
  XXY=             -4.8921  XXZ=             -6.7280  XZZ=              2.8127  YZZ=             -0.9174
  YYZ=              0.3736  XYZ=              1.1449
 MM Hexadecapole moment (Debye-Ang**3):
 XXXX=             15.4243 YYYY=              1.9039 ZZZZ=              6.2282 XXXY=             -3.4600
 XXXZ=              9.6070 YYYX=             -0.7625 YYYZ=             -1.0904 ZZZX=              6.9824
 ZZZY=             -1.6919 XXYY=             -0.3798 XXZZ=              4.4356 YYZZ=             -0.0832
 XXYZ=             -1.5061 YYXZ=              0.8315 ZZXY=              0.5317
 Leave Link  101 at Wed Nov 29 12:05:25 2023, MaxMem=   134217728 cpu:               0.3 elap:               0.3
 (Enter /home/emanuele/chem_software/gaussian//gdv/l103.exe)

 GradGradGradGradGradGradGradGradGradGradGradGradGradGradGradGradGradGrad
 Berny optimization.
 Initialization pass.
 No Z-matrix variables, so optimization will use Cartesian coordinates.
 Trust Radius=1.00D-01 FncErr=1.00D-07 GrdErr=1.00D-07 EigMax=2.50D+02 EigMin=1.00D-04
 Number of steps in this run=      2 maximum allowed number of steps=      2.
 GradGradGradGradGradGradGradGradGradGradGradGradGradGradGradGradGradGrad

 Leave Link  103 at Wed Nov 29 12:05:25 2023, MaxMem=   134217728 cpu:               0.0 elap:               0.0
 (Enter /home/emanuele/chem_software/gaussian//gdv/l202.exe)
                          Input orientation:                          
 ---------------------------------------------------------------------
 Center     Atomic      Atomic             Coordinates (Angstroms)
 Number     Number       Type             X           Y           Z
 ---------------------------------------------------------------------
      1          6    20001002       -0.638898    0.019356    0.345831
      2          8    20001022       -0.831085   -0.340014   -0.971207
      3          6    20001001        0.762297   -0.354577    0.783095
      4          1    20001034        1.140926   -0.210846    1.828479
      5          1    20001034        0.620962   -1.449217    0.616834
      6          7    20001020        1.700927    0.284344   -0.177167
      7          1    20001029        2.479076   -0.380275   -0.266623
      8          1    20001029        1.316738    0.081814   -1.101245
      9          8    20001025       -1.538759    0.510435    0.979187
     10          1    20001031       -1.730159   -0.084608   -1.312231
 ---------------------------------------------------------------------
                    Distance matrix (angstroms):
                    1          2          3          4          5
     1  C    0.000000
     2  O    1.378649   0.000000
     3  C    1.514719   2.369948   0.000000
     4  H    2.327877   3.426916   1.121092   0.000000
     5  H    1.953816   2.420877   1.116179   1.808870   0.000000
     6  N    2.412162   2.726061   1.487061   2.140428   2.191346
     7  H    3.202588   3.384557   2.012436   2.491747   2.318560
     8  H    2.433607   2.192713   2.012108   2.949550   2.404154
     9  O    1.205010   2.242343   2.466081   2.902112   2.938695
    10  H    1.987669   0.994919   3.267355   4.257126   3.333350
                    6          7          8          9         10
     6  N    0.000000
     7  H    1.027247   0.000000
     8  H    1.021048   1.503712   0.000000
     9  O    3.447294   4.299815   3.558901   0.000000
    10  H    3.632746   4.347226   3.058724   2.375143   0.000000
 Symmetry turned off by external request.
 Stoichiometry    C2H5NO2
 Framework group  C1[X(C2H5NO2)]
 Deg. of freedom    24
 Full point group                 C1      NOp   1
 Rotational constants (GHZ):           9.2556007           4.1056304           3.1621170
 Leave Link  202 at Wed Nov 29 12:05:25 2023, MaxMem=   134217728 cpu:               0.0 elap:               0.0
 (Enter /home/emanuele/chem_software/gaussian//gdv/l301.exe)
 Standard basis: Dummy (5D, 7F)
    10 basis functions,    10 primitive gaussians,    10 cartesian basis functions
     7 alpha electrons        7 beta electrons
       nuclear repulsion energy        22.8419863391 Hartrees.
 IExCor=       0 DFT=F Ex=HF Corr=None N6=None ScaHFX=  1.000000
 ScaDFX=  1.000000  1.000000  1.000000  1.000000  1.000000  0.000000
 ScaDFX=  0.000000  0.000000  0.000000  0.000000  0.000000  0.000000
 IRadAn=      5 IRanWt=     -1 IRanGd=            0 ICorTp=0 IEmpDi=  4
 NAtoms=   10 NActive=   10 NUniq=   10 SFac= 1.00D+00 NAtFMM=   60 NAOKFM=F Big=F
 Integral buffers will be    131072 words long.
 Raffenetti 1 integral format.
 Two-electron integral symmetry is turned off.
 Leave Link  301 at Wed Nov 29 12:05:25 2023, MaxMem=   134217728 cpu:               0.1 elap:               0.0
 (Enter /home/emanuele/chem_software/gaussian//gdv/l402.exe)
 AMBER calculation of energy and first derivatives.
 NRF= 0 NRA=   0 NVA=  10 HaveQM=F NVQ=       0
 Convergence limit is  0.750E-04 MaxStp= 10000 StMxLn= 3.00D-04 StpMin= 1.00D-06.
 Convergence criteria             0.00011250 0.00007500 0.00045000 0.00030000
  Step  NS  ND Rises OKQ   Scale  Max. Force  RMS Force Max. Disp.  RMS Disp.     Energy   Flag
     1   0   0   F    T  1.00D+00 0.06726507 0.01967871 0.06726507 0.01967871    0.0740306 ----
     2   0   0   F    F  9.65D-01 0.06726507 0.01967871 0.06487867 0.01898055    0.0654978 ----
     3   0   0   F    T  2.00D+00 0.03929032 0.01526225 0.08418657 0.03865926    0.0628631 ----
     4   0   0   F    F -8.34D-02 0.03929032 0.01526225 0.00702423 0.00322559    0.0564930 ----
     5   0   0   F    T  1.01D+00 0.04809451 0.01861033 0.09314743 0.03543367    0.0564397 ----
     6   0   0   F    F  5.45D-01 0.04809451 0.01861033 0.05073988 0.01930166    0.0492404 ----
     7   0   0   F    T  4.61D+00 0.02539984 0.00932583 0.12942416 0.05473533    0.0481963 ----
     8   0   0   T    F  3.88D-01 0.02539984 0.00932583 0.05026022 0.02125577    0.0516595 ----
     9   0   0   F    T  1.62D+00 0.01799087 0.00855602 0.05606881 0.02125577    0.0458613 ----
    10   0   0   F    F  9.82D-01 0.01799087 0.00855602 0.05504268 0.02086676    0.0431935 ----
    11   0   0   F    T  1.33D+00 0.02932533 0.01270874 0.10093184 0.04212252    0.0423243 ----
    12   0   0   F    F -1.87D-01 0.02932533 0.01270874 0.01887421 0.00787689    0.0398172 ----
    13   0   0   F    T  3.05D+00 0.01675092 0.00725005 0.07797432 0.03424563    0.0396712 ----
    14   0   0   F    F -4.08D-01 0.01675092 0.00725005 0.03180341 0.01396778    0.0389314 ----
    15   0   0   F    T  3.12D+00 0.01175370 0.00475857 0.05016056 0.02027785    0.0382412 ----
    16   0   0   F    F -3.02D-01 0.01175370 0.00475857 0.01516145 0.00612915    0.0376413 ----
    17   0   0   F    T  1.48D+00 0.01549919 0.00526991 0.03274519 0.01414870    0.0375028 ----
    18   0   0   F    F -1.63D-01 0.01549919 0.00526991 0.00534567 0.00230979    0.0370089 ----
    19   0   0   F    T  1.75D+00 0.01057395 0.00396018 0.02465444 0.01183892    0.0369896 ----
    20   0   0   F    F  1.11D-01 0.01057395 0.00396018 0.00274833 0.00131973    0.0365379 ----
    21   0   0   F    T  3.01D+00 0.00701122 0.00274519 0.03363620 0.01315865    0.0365334 ----
    22   0   0   F    T  1.83D+00 0.00705742 0.00329626 0.03871329 0.01315865    0.0361961 ----
    23   0   0   F    F  1.03D-02 0.00705742 0.00329626 0.00040047 0.00013612    0.0358954 --++
    24   0   0   F    T  2.47D+00 0.00700118 0.00268790 0.03753676 0.01329477    0.0358954 ----
    25   0   0   T    F  3.75D-01 0.00700118 0.00268790 0.01406075 0.00498004    0.0360780 ----
    26   0   0   F    T  1.91D+00 0.00451702 0.00166363 0.01508383 0.00498004    0.0357950 ----
    27   0   0   F    F  1.56D+00 0.00451702 0.00166363 0.02356096 0.00777882    0.0356684 ----
    28   0   0   F    T  3.44D+00 0.00453095 0.00184706 0.03609456 0.01275886    0.0355952 ----
    29   0   0   F    F -3.26D-01 0.00453095 0.00184706 0.01175898 0.00415661    0.0355041 ----
    30   0   0   F    T  2.38D+00 0.00389534 0.00170036 0.02228596 0.00860224    0.0354756 ----
    31   0   0   F    F -4.53D-01 0.00389534 0.00170036 0.01009047 0.00389486    0.0354579 ----
    32   0   0   F    T  1.45D+00 0.00321978 0.00152725 0.01071959 0.00470739    0.0354189 ----
    33   0   0   F    F  2.59D-01 0.00321978 0.00152725 0.00277170 0.00121716    0.0353577 ----
    34   0   0   F    T  2.51D+00 0.00271150 0.00120970 0.01085019 0.00592454    0.0353550 ----
    35   0   0   F    F -3.99D-02 0.00271150 0.00120970 0.00043322 0.00023655    0.0353023 --++
    36   0   0   F    T  3.01D+00 0.00235980 0.00098997 0.01124334 0.00568799    0.0353022 ----
    37   0   0   F    F  2.22D-01 0.00235980 0.00098997 0.00249442 0.00126192    0.0352501 ----
    38   0   0   F    T  1.89D+00 0.00297378 0.00132605 0.01263822 0.00694992    0.0352483 ----
    39   0   0   F    F -1.31D-01 0.00297378 0.00132605 0.00165015 0.00090744    0.0352059 ----
    40   0   0   F    T  1.40D+00 0.00374904 0.00139378 0.01325980 0.00604248    0.0352050 ----
    41   0   0   F    F  8.70D-02 0.00374904 0.00139378 0.00115374 0.00052576    0.0351610 ----
    42   0   0   F    T  3.39D+00 0.00251269 0.00088575 0.01361847 0.00656823    0.0351607 ----
    43   0   0   F    F  1.79D+00 0.00251269 0.00088575 0.02432236 0.01173075    0.0350956 ----
    44   0   0   F    T  2.75D+00 0.00420671 0.00161323 0.03810636 0.01829898    0.0350506 ----
    45   0   0   T    F  4.60D-01 0.00420671 0.00161323 0.01753122 0.00841864    0.0350699 ----
    46   0   0   F    T  1.70D+00 0.00298388 0.00137264 0.01696218 0.00841864    0.0350011 ----
    47   0   0   F    F -2.16D-01 0.00298388 0.00137264 0.00365755 0.00181531    0.0349663 ----
    48   0   0   F    T  3.93D+00 0.00163353 0.00076553 0.01542817 0.00660333    0.0349635 ----
    49   0   0   F    F  2.43D-02 0.00163353 0.00076553 0.00037480 0.00016042    0.0349280 --++
    50   0   0   F    T  1.83D+00 0.00348450 0.00111180 0.01546349 0.00676374    0.0349279 ----
    51   0   0   F    F  9.05D-01 0.00348450 0.00111180 0.01399358 0.00612080    0.0348780 ----
    52   0   0   F    T  1.91D+00 0.00425368 0.00149504 0.02657441 0.01288455    0.0348636 ----
    53   0   0   F    F -3.86D-01 0.00425368 0.00149504 0.01026134 0.00497519    0.0348397 ----
    54   0   0   F    T  2.10D+00 0.00210039 0.00106021 0.01668936 0.00790936    0.0348247 ----
    55   0   0   F    T  1.85D+00 0.00254852 0.00109239 0.01958696 0.00790936    0.0347892 ----
    56   0   0   F    F  1.28D+00 0.00254852 0.00109239 0.02513930 0.01015143    0.0347362 ----
    57   0   0   F    T  4.33D+00 0.00297671 0.00106108 0.04383716 0.01806079    0.0347107 ----
    58   0   0   T    F  4.76D-01 0.00297671 0.00106108 0.02085669 0.00859290    0.0347179 ----
    59   0   0   F    T  1.41D+00 0.00380667 0.00127903 0.01927083 0.00859290    0.0346762 ----
    60   0   0   F    F  7.74D-02 0.00380667 0.00127903 0.00149213 0.00066535    0.0346391 ----
    61   0   0   F    T  1.93D+00 0.00272401 0.00110973 0.02325910 0.00925824    0.0346389 ----
    62   0   0   F    F  6.66D-01 0.00272401 0.00110973 0.01549299 0.00616696    0.0345890 ----
    63   0   0   F    T  2.02D+00 0.00324939 0.00137269 0.03937960 0.01542520    0.0345794 ----
    64   0   0   F    F  2.37D-01 0.00324939 0.00137269 0.00933350 0.00365598    0.0345120 ----
    65   0   0   F    T  3.72D+00 0.00283147 0.00111925 0.05167172 0.01908118    0.0345094 ----
    66   0   0   F    F  7.56D-01 0.00283147 0.00111925 0.03908077 0.01443163    0.0344115 ----
    67   0   0   F    F -4.43D-02 0.00283147 0.00111925 0.00172975 0.00063876    0.0343908 ----
    68   0   0   F    T  2.73D+00 0.00357191 0.00168707 0.09559494 0.03287406    0.0343907 ----
    69   0   0   T    F  4.19D-01 0.00357191 0.00168707 0.04001501 0.01376072    0.0344537 ----
    70   0   0   F    T  2.21D+00 0.00425732 0.00134324 0.03638635 0.01376072    0.0343403 ----
    71   0   0   F    F -3.42D-01 0.00425732 0.00134324 0.01246045 0.00471234    0.0343116 ----
    72   0   0   F    T  2.08D+00 0.00276882 0.00112646 0.02457450 0.00904839    0.0343012 ----
    73   0   0   F    F  5.87D-01 0.00276882 0.00112646 0.01442019 0.00530955    0.0342469 ----
    74   0   0   F    T  2.48D+00 0.00338533 0.00126459 0.03716168 0.01435793    0.0342383 ----
    75   0   0   F    F  9.80D-02 0.00338533 0.00126459 0.00364195 0.00140712    0.0341752 ----
    76   0   0   F    T  2.37D+00 0.00301499 0.00130633 0.04640688 0.01576505    0.0341748 ----
    77   0   0   F    F -1.96D-02 0.00301499 0.00130633 0.00090730 0.00030822    0.0341128 ----
    78   0   0   F    T  1.13D+00 0.00500073 0.00188142 0.04287413 0.01545683    0.0341127 ----
    79   0   0   F    F  6.18D-01 0.00500073 0.00188142 0.02651401 0.00955874    0.0340315 ----
    80   0   0   F    F -2.05D-02 0.00500073 0.00188142 0.00054314 0.00019581    0.0340183 ---+
    81   0   0   F    T  9.30D+00 0.00309865 0.00113826 0.06101716 0.02481975    0.0340183 ----
    82   0   0   T    F  1.81D-01 0.00309865 0.00113826 0.01104950 0.00449457    0.0346288 ----
    83   0   0   F    T  2.27D+00 0.00334046 0.00090805 0.01185960 0.00449457    0.0339857 ----
    84   0   0   F    F -4.37D-01 0.00334046 0.00090805 0.00518840 0.00196631    0.0339796 ----
    85   0   0   F    T  1.28D+00 0.00217298 0.00086331 0.00646238 0.00252826    0.0339699 ----
    86   0   0   F    F  1.22D+00 0.00217298 0.00086331 0.00790629 0.00309316    0.0339478 ----
    87   0   0   F    T  3.50D+00 0.00207656 0.00074399 0.01454285 0.00562142    0.0339383 ----
    88   0   0   T    F  3.85D-01 0.00207656 0.00074399 0.00560170 0.00216529    0.0339554 ----
    89   0   0   F    T  3.19D+00 0.00117123 0.00042183 0.00521592 0.00216529    0.0339272 ----
    90   0   0   F    F -3.87D-01 0.00117123 0.00042183 0.00202075 0.00083888    0.0339240 ----
    91   0   0   F    T  1.00D+00 0.00135902 0.00056525 0.00333097 0.00134197    0.0339219 ----
    92   0   0   F    F  1.38D+00 0.00135902 0.00056525 0.00459675 0.00185192    0.0339144 ----
    93   0   0   F    T  1.72D+00 0.00159395 0.00064606 0.00737322 0.00319388    0.0339106 ----
    94   0   0   F    F  2.46D-01 0.00159395 0.00064606 0.00181033 0.00078419    0.0338977 ----
    95   0   0   F    T  5.63D+00 0.00081734 0.00036183 0.01015393 0.00397807    0.0338972 ----
    96   0   0   F    F -4.01D-01 0.00081734 0.00036183 0.00407106 0.00159495    0.0338935 ----
    97   0   0   F    T  1.00D+00 0.00192859 0.00068892 0.00620828 0.00263896    0.0338905 ----
    98   0   0   F    F  6.77D-01 0.00192859 0.00068892 0.00420327 0.00178669    0.0338806 ----
    99   0   0   F    T  4.02D+00 0.00089951 0.00042750 0.01147543 0.00442564    0.0338787 ----
   100   0   0   F    F -2.55D-01 0.00089951 0.00042750 0.00293048 0.00113018    0.0338715 ----
   101   0   0   F    T  2.53D+00 0.00111483 0.00044589 0.00933298 0.00329547    0.0338705 ----
   102   0   0   F    F -1.41D-01 0.00111483 0.00044589 0.00131287 0.00046357    0.0338642 ----
   103   0   0   F    T  1.92D+00 0.00124276 0.00046712 0.00611491 0.00283190    0.0338640 ----
   104   0   0   F    F -4.37D-01 0.00124276 0.00046712 0.00266943 0.00123625    0.0338625 ----
   105   0   0   F    T  2.61D+00 0.00064977 0.00028288 0.00343988 0.00159565    0.0338604 ----
   106   0   0   F    F -3.80D-01 0.00064977 0.00028288 0.00130722 0.00060638    0.0338592 ----
   107   0   0   F    T  2.43D+00 0.00067241 0.00021253 0.00247168 0.00098927    0.0338585 ----
   108   0   0   F    F  6.12D-01 0.00067241 0.00021253 0.00151192 0.00060514    0.0338562 ----
   109   0   0   F    T  3.06D+00 0.00051793 0.00022811 0.00378035 0.00159441    0.0338558 ----
   110   0   0   F    F -4.49D-01 0.00051793 0.00022811 0.00169736 0.00071588    0.0338554 ----
   111   0   0   F    T  1.32D+00 0.00075874 0.00024790 0.00233716 0.00087853    0.0338545 ----
   112   0   0   F    F  1.49D-01 0.00075874 0.00024790 0.00034751 0.00013063    0.0338532 --++
   113   0   0   F    T  2.14D+00 0.00045369 0.00019868 0.00250614 0.00100915    0.0338531 ----
   114   0   0   F    F  7.66D-01 0.00045369 0.00019868 0.00191932 0.00077286    0.0338513 ----
   115   0   0   F    T  2.59D+00 0.00067755 0.00023334 0.00397130 0.00178201    0.0338509 ----
   116   0   0   F    F -2.52D-01 0.00067755 0.00023334 0.00099976 0.00044861    0.0338495 ----
   117   0   0   F    T  2.31D+00 0.00041852 0.00020626 0.00327379 0.00133340    0.0338493 ----
   118   0   0   F    T  1.05D+00 0.00077095 0.00029655 0.00304294 0.00133340    0.0338479 ----
   119   0   0   F    F  4.24D-01 0.00077095 0.00029655 0.00129035 0.00056542    0.0338463 ----
   120   0   0   F    T  5.83D+00 0.00040651 0.00018940 0.00413247 0.00189882    0.0338461 ----
   121   0   0   T    F  2.93D-01 0.00040651 0.00018940 0.00121173 0.00055678    0.0338505 ----
   122   0   0   F    T  2.31D+00 0.00035662 0.00014424 0.00169157 0.00055678    0.0338452 ----
   123   0   0   T    F  4.33D-01 0.00035662 0.00014424 0.00073256 0.00024112    0.0338454 ---+
   124   0   0   F    T  1.46D+00 0.00021270 0.00010510 0.00061238 0.00024112    0.0338449 ---+
   125   0   0   F    F  8.30D-01 0.00021270 0.00010510 0.00050841 0.00020019    0.0338445 ---+
   126   0   0   F    T  1.74D+00 0.00039161 0.00012202 0.00105955 0.00044131    0.0338445 ----
   127   0   0   F    F  8.67D-01 0.00039161 0.00012202 0.00091898 0.00038276    0.0338439 ----
   128   0   0   F    T  2.44D+00 0.00037241 0.00013464 0.00208069 0.00082407    0.0338437 ----
   129   0   0   T    F  4.28D-01 0.00037241 0.00013464 0.00088993 0.00035246    0.0338440 ----
   130   0   0   F    T  2.04D+00 0.00019885 0.00008914 0.00085504 0.00035246    0.0338435 ----
   131   0   0   F    T  1.00D+00 0.00026180 0.00011535 0.00085980 0.00035492    0.0338433 ----
   132   0   0   F    F  8.59D-01 0.00026180 0.00011535 0.00073873 0.00030494    0.0338431 ----
   133   0   0   F    T  2.16D+00 0.00049869 0.00016437 0.00166631 0.00065986    0.0338431 ----
   134   0   0   T    F  4.75D-01 0.00049869 0.00016437 0.00079095 0.00031322    0.0338432 ----
   135   0   0   F    T  2.35D+00 0.00018170 0.00008534 0.00083123 0.00031322    0.0338427 ----
   136   0   0   F    F -4.56D-01 0.00018170 0.00008534 0.00037910 0.00014285    0.0338426 --++
   137   0   0   F    T  1.39D+00 0.00016327 0.00007329 0.00040520 0.00017037    0.0338425 -+++
   138   0   0   F    T  2.94D+00 0.00012487 0.00005156 0.00038088 0.00017037    0.0338424 -+++
   139   0   0   F    T  1.00D+00 0.00027021 0.00010201 0.00065173 0.00026059    0.0338423 ---+
   140   0   0   T    T  1.00D+00 0.00047329 0.00016451 0.00047329 0.00016451    0.0338425 ---+
   141   0   0   T    T  1.00D+00 0.00029088 0.00011288 0.00033474 0.00013406    0.0338424 --++
   142   0   0   T    F  5.00D-01 0.00029088 0.00011288 0.00016737 0.00006703    0.0338431 --++
   143   0   0   T    F  5.00D-01 0.00029088 0.00011288 0.00008369 0.00003352    0.0338426 --++
   144   0   0   T    F  5.00D-01 0.00029088 0.00011288 0.00004184 0.00001676    0.0338425 --++
   145   0   0   T    F  5.00D-01 0.00029088 0.00011288 0.00002092 0.00000838    0.0338424 --++
   146   0   0   T    F  5.00D-01 0.00029088 0.00011288 0.00001046 0.00000419    0.0338424 --++
   147   0   0   T    F  5.00D-01 0.00029088 0.00011288 0.00000523 0.00000209    0.0338424 --++
   148   0   0   T    F  5.00D-01 0.00029088 0.00011288 0.00000262 0.00000105    0.0338424 --++
   149   0   0   T    F  5.00D-01 0.00029088 0.00011288 0.00000131 0.00000052    0.0338423 --++
   150   0   0   T    F  5.00D-01 0.00029088 0.00011288 0.00000065 0.00000026    0.0338423 --++
   151   0   0   T    T  1.00D+00 0.00027140 0.00010239 0.00011381 0.00005130    0.0338423 --++
   152   0   0   F    T  1.00D+00 0.00017303 0.00007505 0.00020919 0.00008609    0.0338423 --++
   153   0   0   F    T  1.11D+00 0.00018123 0.00006075 0.00024511 0.00008609    0.0338422 -+++
   154   0   0   T    T  1.00D+00 0.00018763 0.00008157 0.00018763 0.00008157    0.0338423 --++
   155   0   0   T    T  1.00D+00 0.00015083 0.00006822 0.00013964 0.00006455    0.0338422 -+++
   156   0   0   T    F  5.00D-01 0.00015083 0.00006822 0.00006982 0.00003228    0.0338423 -+++
   157   0   0   T    F  5.00D-01 0.00015083 0.00006822 0.00003491 0.00001614    0.0338423 -+++
   158   0   0   T    F  5.00D-01 0.00015083 0.00006822 0.00001746 0.00000807    0.0338422 -+++
   159   0   0   T    F  5.00D-01 0.00015083 0.00006822 0.00000873 0.00000403    0.0338422 -+++
   160   0   0   T    F  5.00D-01 0.00015083 0.00006822 0.00000436 0.00000202    0.0338422 -+++
   161   0   0   T    F  5.00D-01 0.00015083 0.00006822 0.00000218 0.00000101    0.0338422 -+++
   162   0   0   T    F  5.00D-01 0.00015083 0.00006822 0.00000109 0.00000050    0.0338422 -+++
   163   0   0   T    F  5.00D-01 0.00015083 0.00006822 0.00000055 0.00000025    0.0338422 -+++
   164   0   0   T    T  1.00D+00 0.00018181 0.00006094 0.00017613 0.00005879    0.0338422 -+++
   165   0   0   F    T  1.00D+00 0.00011542 0.00004741 0.00016656 0.00008658    0.0338422 -+++
   166   0   0   F    T  1.22D+00 0.00014382 0.00005315 0.00017082 0.00008658    0.0338422 -+++
   167   0   0   F    T  1.23D+00 0.00013105 0.00004671 0.00020821 0.00008658    0.0338421 -+++
   168   0   0   F    T  1.29D+00 0.00007932 0.00003571 0.00016217 0.00008658    0.0338420 ====
 ****************************
 MOLECULAR MECHANICS FUNCTION
 ****************************
 Atomic parameters:
 Center  VDW
      1 1.9080 0.0860000
      2 1.7210 0.2104000
      3 1.9080 0.1094000
      4 1.4870 0.0157000
      5 1.4870 0.0157000
      6 1.8750 0.1700000
      7 0.6000 0.0157000
      8 0.6000 0.0157000
      9 1.6612 0.2100000
     10 0.0000 0.0000000
 Molecular mechanics terms:
 NBDir 3 1      0      0
 HrmStr1  1- 2  431.53 1.3510
 HrmStr1  1- 3  294.15 1.5090
 HrmStr1  1- 9  946.08 1.2030
 HrmStr1  2-10  566.76 0.9680
 HrmStr1  3- 4  358.05 1.0960
 HrmStr1  3- 5  358.05 1.0960
 HrmStr1  3- 6  380.82 1.4520
 HrmStr1  6- 7  506.01 1.0110
 HrmStr1  6- 8  506.01 1.0110
 HrmBnd1  1- 2-10  56.55 107.23
 HrmBnd1  1- 3- 4  46.41 106.89
 HrmBnd1  1- 3- 5  46.41 106.89
 HrmBnd1  1- 3- 6  59.93 110.61
 HrmBnd1  2- 1- 3  67.92 111.72
 HrmBnd1  2- 1- 9  91.40 123.02
 HrmBnd1  3- 1- 9  62.83 125.24
 HrmBnd1  3- 6- 7  52.60 110.71
 HrmBnd1  3- 6- 8  52.60 110.71
 HrmBnd1  4- 3- 5  44.68 106.22
 HrmBnd1  4- 3- 6  52.45 112.94
 HrmBnd1  5- 3- 6  52.45 112.94
 HrmBnd1  7- 6- 8  47.09 108.63
 AmbTrs  3- 1- 2-10   0 180   0   0  0.0000 14.5000  0.0000  0.0000  2.0
 AmbTrs  9- 1- 2-10   0   0   0   0  0.0000  0.0000  0.0000  0.0000  2.0
 AmbTrs  2- 1- 3- 4   0   0   0   0  0.0000 14.5000  0.0000  0.0000  6.0
 AmbTrs  2- 1- 3- 5   0   0   0   0  0.0000 14.5000  0.0000  0.0000  6.0
 AmbTrs  2- 1- 3- 6   0   0   0   0  0.0000 14.5000  0.0000  0.0000  6.0
 AmbTrs  9- 1- 3- 4   0   0   0   0  0.0000 14.5000  0.0000  0.0000  6.0
 AmbTrs  9- 1- 3- 5   0   0   0   0  0.0000 14.5000  0.0000  0.0000  6.0
 AmbTrs  9- 1- 3- 6   0   0   0   0  0.0000 14.5000  0.0000  0.0000  6.0
 AmbTrs  1- 3- 6- 7   0 180   0   0  0.0000 25.6300  0.0000  0.0000  6.0
 AmbTrs  1- 3- 6- 8   0 180   0   0  0.0000 25.6300  0.0000  0.0000  6.0
 AmbTrs  4- 3- 6- 7   0   0   0   0  0.0000 16.9300  0.0000  0.0000  6.0
 AmbTrs  4- 3- 6- 8   0   0   0   0  0.0000 16.9300  0.0000  0.0000  6.0
 AmbTrs  5- 3- 6- 7   0   0   0   0  0.0000 16.9300  0.0000  0.0000  6.0
 AmbTrs  5- 3- 6- 8   0   0   0   0  0.0000 16.9300  0.0000  0.0000  6.0
 NBPair  2- 1 3 1      0      0 -1.000 -1.000
 NBPair  3- 2 3 1      0      0 -1.000 -1.000
 NBPair 10- 3 3 1      0      0 -0.500 -0.167
 NBPair  9- 2 3 1      0      0 -1.000 -1.000
 NBPair 10- 9 3 1      0      0 -0.500 -0.167
 NBPair  3- 1 3 1      0      0 -1.000 -1.000
 NBPair  4- 2 3 1      0      0 -0.500 -0.167
 NBPair  5- 2 3 1      0      0 -0.500 -0.167
 NBPair  6- 2 3 1      0      0 -0.500 -0.167
 NBPair  9- 3 3 1      0      0 -1.000 -1.000
 NBPair  9- 4 3 1      0      0 -0.500 -0.167
 NBPair  9- 5 3 1      0      0 -0.500 -0.167
 NBPair  9- 6 3 1      0      0 -0.500 -0.167
 NBPair  9- 1 3 1      0      0 -1.000 -1.000
 NBPair 10- 1 3 1      0      0 -1.000 -1.000
 NBPair 10- 2 3 1      0      0 -1.000 -1.000
 NBPair  4- 1 3 1      0      0 -1.000 -1.000
 NBPair  5- 1 3 1      0      0 -1.000 -1.000
 NBPair  6- 1 3 1      0      0 -1.000 -1.000
 NBPair  4- 3 3 1      0      0 -1.000 -1.000
 NBPair  5- 4 3 1      0      0 -1.000 -1.000
 NBPair  6- 4 3 1      0      0 -1.000 -1.000
 NBPair  5- 3 3 1      0      0 -1.000 -1.000
 NBPair  6- 5 3 1      0      0 -1.000 -1.000
 NBPair  6- 3 3 1      0      0 -1.000 -1.000
 NBPair  7- 1 3 1      0      0 -0.500 -0.167
 NBPair  8- 1 3 1      0      0 -0.500 -0.167
 NBPair  7- 4 3 1      0      0 -0.500 -0.167
 NBPair  8- 4 3 1      0      0 -0.500 -0.167
 NBPair  7- 5 3 1      0      0 -0.500 -0.167
 NBPair  8- 5 3 1      0      0 -0.500 -0.167
 NBPair  7- 3 3 1      0      0 -1.000 -1.000
 NBPair  8- 3 3 1      0      0 -1.000 -1.000
 NBPair  7- 6 3 1      0      0 -1.000 -1.000
 NBPair  8- 7 3 1      0      0 -1.000 -1.000
 NBPair  8- 6 3 1      0      0 -1.000 -1.000
 Energy per function type:
 Direct Coulomb + vdW (small)                           0.001981495
 Direct Coulomb (large)                                -0.132363708
 Direct vdW (large)                                   270.305172891
 Non-direct Coulomb + vdW (small)                      -0.011295186
 Non-direct Coulomb (large)                             0.138452509
 Non-direct vdW (large)                              -270.305172891
 Harmonic stretch I                                     0.000073807
 Harmonic bend I                                        0.008433140
 Amber torsion                                          0.028559975
 Energy per function class:
        Coulomb              -0.004106059
    Vanderwaals               0.000881169
     Stretching               0.000073807
        Bending               0.008433140
        Torsion               0.028559975
 Energy=    3.384203200E-02 NIter=   0.
 Dipole moment=       0.351280      -0.489012      -0.044637
 Leave Link  402 at Wed Nov 29 12:05:26 2023, MaxMem=   134217728 cpu:               0.3 elap:               0.3
 (Enter /home/emanuele/chem_software/gaussian//gdv/l716.exe)
 Dipole        = 3.51279912D-01-4.89011893D-01-4.46368064D-02
 -------------------------------------------------------------------
 Center     Atomic                   Forces (Hartrees/Bohr)
 Number     Number              X              Y              Z
 -------------------------------------------------------------------
      1        6          -0.000060554    0.000055046    0.000017358
      2        8          -0.000030110   -0.000010807    0.000018332
      3        6           0.000012908   -0.000002930    0.000024636
      4        1           0.000008573   -0.000029688   -0.000029366
      5        1          -0.000028980   -0.000012627   -0.000023029
      6        7           0.000049890   -0.000058889    0.000015441
      7        1          -0.000020907    0.000049512    0.000025525
      8        1          -0.000002135    0.000053262   -0.000002380
      9        8           0.000079320   -0.000010382   -0.000071112
     10        1          -0.000008006   -0.000032497    0.000024597
 -------------------------------------------------------------------
 Cartesian Forces:  Max     0.000079320 RMS     0.000035707
 Z-matrix is all fixed cartesians, so copy forces.
 Leave Link  716 at Wed Nov 29 12:05:26 2023, MaxMem=   134217728 cpu:               0.0 elap:               0.0
 (Enter /home/emanuele/chem_software/gaussian//gdv/l103.exe)

 GradGradGradGradGradGradGradGradGradGradGradGradGradGradGradGradGradGrad
 Berny optimization.
 Search for a local minimum.
 Step number   1 out of a maximum of    2
 All quantities printed in internal units (Hartrees-Bohrs-Radians)
 RMS Force = .35707D-04 SwitMx=.10000D-02 MixMth= 2
 Mixed Optimization -- En-DIIS/RFO-DIIS
 Second derivative matrix not updated -- unit matrix used.
 ITU=  0
 RFO step:  Lambda=-3.82506019D-08 EMin= 1.00000000D+00
 Linear search not attempted -- first point.
 Variable       Old X    -DE/DX   Delta X   Delta X   Delta X     New X
                                 (Linear)    (Quad)   (Total)
    X1       -1.16693  -0.00006   0.00000  -0.00006  -0.00006  -1.16699
    Y1        0.02857   0.00006   0.00000   0.00006   0.00006   0.02862
    Z1        0.39731   0.00002   0.00000   0.00002   0.00002   0.39733
    X2       -2.19258  -0.00003   0.00000  -0.00003  -0.00003  -2.19261
    Y2       -1.23490  -0.00001   0.00000  -0.00001  -0.00001  -1.23491
    Z2       -1.56430   0.00002   0.00000   0.00002   0.00002  -1.56428
    X3        1.39741   0.00001   0.00000   0.00001   0.00001   1.39743
    Y3       -1.00244  -0.00000   0.00000  -0.00000  -0.00000  -1.00244
    Z3        1.16605   0.00002   0.00000   0.00002   0.00002   1.16608
    X4        1.50710   0.00001   0.00000   0.00001   0.00001   1.50711
    Y4       -0.50337  -0.00003   0.00000  -0.00003  -0.00003  -0.50340
    Z4        3.17451  -0.00003   0.00000  -0.00003  -0.00003   3.17449
    X5        1.16093  -0.00003   0.00000  -0.00003  -0.00003   1.16090
    Y5       -3.06041  -0.00001   0.00000  -0.00001  -0.00001  -3.06043
    Z5        1.09644  -0.00002   0.00000  -0.00002  -0.00002   1.09642
    X6        3.39246   0.00005   0.00000   0.00005   0.00005   3.39251
    Y6        0.06353  -0.00006   0.00000  -0.00006  -0.00006   0.06347
    Z6       -0.41015   0.00002   0.00000   0.00002   0.00002  -0.41013
    X7        5.20963  -0.00002   0.00000  -0.00002  -0.00002   5.20961
    Y7       -0.48020   0.00005   0.00000   0.00005   0.00005  -0.48015
    Z7       -0.17416   0.00003   0.00000   0.00003   0.00003  -0.17414
    X8        2.95207  -0.00000   0.00000  -0.00000  -0.00000   2.95207
    Y8        1.23922   0.00005   0.00000   0.00005   0.00005   1.23927
    Z8       -1.85196  -0.00000   0.00000  -0.00000  -0.00000  -1.85197
    X9       -2.26286   0.00008   0.00000   0.00008   0.00008  -2.26278
    Y9        1.73210  -0.00001   0.00000  -0.00001  -0.00001   1.73209
    Z9        1.42578  -0.00007   0.00000  -0.00007  -0.00007   1.42571
   X10       -3.79512  -0.00001   0.00000  -0.00001  -0.00001  -3.79513
   Y10       -0.41715  -0.00003   0.00000  -0.00003  -0.00003  -0.41719
   Z10       -1.88957   0.00002   0.00000   0.00002   0.00002  -1.88955
         Item               Value     Threshold  Converged?
 Maximum Force            0.000079     0.000450     YES
 RMS     Force            0.000036     0.000300     YES
 Maximum Displacement     0.000079     0.001800     YES
 RMS     Displacement     0.000036     0.001200     YES
 Predicted change in Energy=-1.912530D-08
 Optimization completed.
    -- Stationary point found.
 Largest change from initial coordinates is atom    8       0.440 Angstoms.
 GradGradGradGradGradGradGradGradGradGradGradGradGradGradGradGradGradGrad

 Leave Link  103 at Wed Nov 29 12:05:26 2023, MaxMem=   134217728 cpu:               0.0 elap:               0.0
 (Enter /home/emanuele/chem_software/gaussian//gdv/l202.exe)
                          Input orientation:                          
 ---------------------------------------------------------------------
 Center     Atomic      Atomic             Coordinates (Angstroms)
 Number     Number       Type             X           Y           Z
 ---------------------------------------------------------------------
      1          6    20001002       -0.617512    0.015118    0.210247
      2          8    20001022       -1.160262   -0.653481   -0.827789
      3          6    20001001        0.739479   -0.530466    0.617050
      4          1    20001034        0.797525   -0.266374    1.679881
      5          1    20001034        0.614337   -1.619501    0.580210
      6          7    20001020        1.795214    0.033621   -0.217040
      7          1    20001029        2.756817   -0.254111   -0.092164
      8          1    20001029        1.562170    0.655765   -0.980017
      9          8    20001025       -1.197451    0.916589    0.754493
     10          1    20001031       -2.008292   -0.220748   -0.999917
 ---------------------------------------------------------------------
                    Distance matrix (angstroms):
                    1          2          3          4          5
     1  C    0.000000
     2  O    1.348749   0.000000
     3  C    1.518083   2.389918   0.000000
     4  H    2.059464   3.204870   1.096688   0.000000
     5  H    2.079977   2.462693   1.096821   1.753222   0.000000
     6  N    2.450340   3.095151   1.458929   2.164182   2.182404
     7  H    3.398534   4.005515   2.156156   2.641802   2.628040
     8  H    2.564795   3.024720   2.152809   2.917204   2.917110
     9  O    1.202157   2.229377   2.421685   2.497134   3.121652
    10  H    1.858602   0.967493   3.203241   3.880208   3.366229
                    6          7          8          9         10
     6  N    0.000000
     7  H    1.011466   0.000000
     8  H    1.011686   1.744517   0.000000
     9  O    3.267959   4.209941   3.269872   0.000000
    10  H    3.891563   4.850917   3.676530   2.242533   0.000000
 Symmetry turned off by external request.
 Stoichiometry    C2H5NO2
 Framework group  C1[X(C2H5NO2)]
 Deg. of freedom    24
 Full point group                 C1      NOp   1
 Rotational constants (GHZ):           8.9987046           3.8891366           3.1793234
 Leave Link  202 at Wed Nov 29 12:05:26 2023, MaxMem=   134217728 cpu:               0.0 elap:               0.0
 (Enter /home/emanuele/chem_software/gaussian//gdv/l9999.exe)
 Unable to Open any file for archive entry.
 1\1\GINC-EMANUELE-XPS-13-9343\FOpt\AMBER\ZDO\C2H5N1O2\EMANUELE\29-Nov-
 2023\0\\#p Amber=(SoftFirst,Print) geom=nocrowd nosymm opt=(maxcycle=3
 00)\\Title\\0,1\C,-0.6175122802,0.0151181933,0.2102474791\O,-1.1602616
 847,-0.6534814051,-0.8277894956\C,0.7394791574,-0.5304658859,0.6170495
 229\H,0.7975252994,-0.2663735316,1.6798807296\H,0.6143373115,-1.619501
 2015,0.5802100716\N,1.7952138336,0.0336206307,-0.217039612\H,2.7568170
 612,-0.2541109519,-0.0921636709\H,1.5621699554,0.6557647314,-0.9800174
 312\O,-1.197451414,0.9165894421,0.7544925938\H,-2.0082922395,-0.220748
 0214,-0.9999171873\\Version=ES64L-GDVRevJ.14\HF=0.033842\RMSD=0.000e+0
 0\RMSF=3.571e-05\Dipole=0.3512799,-0.4890119,-0.0446368\PG=C01 [X(C2H5
 N1O2)]\\@
 The archive entry for this job was punched.


 THE UNDERLYING PHYSICAL LAWS NECESSARY FOR THE 
 MATHEMATICAL THEORY OF A LARGE PART OF PHYSICS AND THE
 WHOLE OF CHEMISTRY ARE THUS COMPLETELY KNOWN, AND THE
 DIFFICULTY IS ONLY THAT THE EXACT APPLICATION OF THESE
 LAWS LEADS TO EQUATIONS MUCH TOO COMPLICATED 
 TO BE SOLUBLE.

                                        -- P. A. M. DIRAC, 1929
 Job cpu time:       0 days  0 hours  0 minutes  0.9 seconds.
 Elapsed time:       0 days  0 hours  0 minutes  0.9 seconds.
 File lengths (MBytes):  RWF=      6 Int=      0 D2E=      0 Chk=      1 Scr=      1
 Normal termination of Gaussian DV at Wed Nov 29 12:05:26 2023.
