 Entering Gaussian System, Link 0=/home/emanuele/chem_software/gaussian//g09/g09
 Input=1_mm_60.gjf
 Output=1_mm_60.log
 Initial command:
 /home/emanuele/chem_software/gaussian//gdv/l1.exe "/home/emanuele/chem_software/gaussian/scratch/Gau-13837.inp" -scrdir="/home/emanuele/chem_software/gaussian/scratch/"
 Entering Link 1 = /home/emanuele/chem_software/gaussian//gdv/l1.exe PID=     13839.
  
 Copyright (c) 1988-2020, Gaussian, Inc.  All Rights Reserved.
  
 This is the private, development version of
 the Gaussian(R) DV system of programs. It is based on
 the Gaussian(R) 16 system (copyright 2016, Gaussian, Inc.),
 the Gaussian(R) 09 system (copyright 2009, Gaussian, Inc.),
 the Gaussian(R) 03 system (copyright 2003, Gaussian, Inc.),
 the Gaussian(R) 98 system (copyright 1998, Gaussian, Inc.),
 the Gaussian(R) 94 system (copyright 1995, Gaussian, Inc.),
 the Gaussian 92(TM) system (copyright 1992, Gaussian, Inc.),
 the Gaussian 90(TM) system (copyright 1990, Gaussian, Inc.),
 the Gaussian 88(TM) system (copyright 1988, Gaussian, Inc.),
 the Gaussian 86(TM) system (copyright 1986, Carnegie Mellon
 University), and the Gaussian 82(TM) system (copyright 1983,
 Carnegie Mellon University). Gaussian is a federally registered
 trademark of Gaussian, Inc.
  
 This software contains proprietary and confidential information,
 including trade secrets, belonging to Gaussian, Inc.
  
 This software is provided under written license and may be
 used, copied, transmitted, or stored only in accord with that
 written license.
  
 The following legend is applicable only to US Government
 contracts under FAR:
  
                    RESTRICTED RIGHTS LEGEND
  
 Use, reproduction and disclosure by the US Government is
 subject to restrictions as set forth in subparagraphs (a)
 and (c) of the Commercial Computer Software - Restricted
 Rights clause in FAR 52.227-19.
  
 Gaussian, Inc.
 340 Quinnipiac St., Bldg. 40, Wallingford CT 06492
  
  
 ---------------------------------------------------------------
 Warning -- This program may not be used in any manner that
 competes with the business of Gaussian, Inc. or will provide
 assistance to any competitor of Gaussian, Inc.  The licensee
 of this program is prohibited from giving any competitor of
 Gaussian, Inc. access to this program.  By using this program,
 the user acknowledges that Gaussian, Inc. is engaged in the
 business of creating and licensing software in the field of
 computational chemistry and represents and warrants to the
 licensee that it is not a competitor of Gaussian, Inc. and that
 it will not use this program in any manner prohibited above.
 ---------------------------------------------------------------
  

 Cite this work as:
 Gaussian Development Version, Revision J.14,
 M. J. Frisch, G. W. Trucks, H. B. Schlegel, G. E. Scuseria, 
 M. A. Robb, J. R. Cheeseman, G. Scalmani, V. Barone, 
 G. A. Petersson, H. Nakatsuji, X. Li, A. V. Marenich, M. Caricato, 
 J. Bloino, B. G. Janesko, J. Zheng, R. Gomperts, B. Mennucci, 
 H. P. Hratchian, J. V. Ortiz, A. F. Izmaylov, J. L. Sonnenberg, 
 D. Williams-Young, F. Ding, F. Lipparini, F. Egidi, J. Goings, 
 B. Peng, A. Petrone, T. Henderson, D. Ranasinghe, V. G. Zakrzewski, 
 J. Gao, N. Rega, G. Zheng, W. Liang, M. Hada, M. Ehara, K. Toyota, 
 R. Fukuda, J. Hasegawa, M. Ishida, T. Nakajima, Y. Honda, O. Kitao, 
 H. Nakai, T. Vreven, K. Throssell, J. A. Montgomery, Jr., 
 J. E. Peralta, F. Ogliaro, M. J. Bearpark, J. J. Heyd, 
 E. N. Brothers, K. N. Kudin, V. N. Staroverov, T. A. Keith, 
 R. Kobayashi, J. Normand, K. Raghavachari, A. P. Rendell, 
 J. C. Burant, S. S. Iyengar, J. Tomasi, M. Cossi, J. M. Millam, 
 M. Klene, C. Adamo, R. Cammi, J. W. Ochterski, R. L. Martin, 
 K. Morokuma, O. Farkas, J. B. Foresman, and D. J. Fox, 
 Gaussian, Inc., Wallingford CT, 2020.
 
 ******************************************
 Gaussian DV:  ES64L-GDVRevJ.14 29-Dec-2020
                29-Nov-2023 
 ******************************************
 %mem=1GB
 %nprocshared=1
 Will use up to    1 processors via shared memory.
 %chk=1_mm_60.chk
 -----------------------------------------------------------------
 #p Amber=(SoftFirst,Print) geom=nocrowd nosymm opt=(maxcycle=300)
 -----------------------------------------------------------------
 1/6=300,10=10,18=4000020,19=15,37=210000000,38=1,56=2,64=203/1,3;
 2/9=110,12=1,15=1,40=1/2;
 3/5=30,11=9,25=1,30=1,41=10030000,43=2,71=1/1;
 4/20=11,22=1001,24=3,119=11/2;
 7/30=1,44=-1/16;
 1/6=300,10=10,18=4000020,19=15,64=203/3(2);
 2/9=110,12=1,15=1/2;
 99//99;
 2/9=110,12=1,15=1/2;
 3/5=30,11=9,25=1,30=1,41=10030000,43=2,71=1/1;
 4/16=2,20=11,22=1001,24=3,119=11/2;
 7/30=1,44=-1/16;
 1/6=300,10=10,18=4000020,19=15,64=203/3(-4);
 2/9=110,12=1,15=1/2;
 99/9=10/99;
 Leave Link    1 at Wed Nov 29 12:05:27 2023, MaxMem=   134217728 cpu:               0.0 elap:               0.0
 (Enter /home/emanuele/chem_software/gaussian//gdv/l101.exe)
 -----
 Title
 -----
 Symbolic Z-matrix:
 Charge =  0 Multiplicity = 1
 C-C-+0.299289        -0.61971  -0.14918   0.32952 
 O-OH--0.289770       -0.66086  -0.06926  -1.04598 
 C-CT--0.035454        0.80121  -0.24611   0.83576 
 H-HC-+0.090426        1.11238   0.30051   1.77184 
 H-HC-+0.095387        0.74769  -1.32538   1.1173 
 N-N3--0.336253        1.85108  -0.02093  -0.18573 
 H-H-+0.142619         1.84871  -0.86759  -0.7658 
 H-H-+0.128282         1.43765   0.58062  -0.89549 
 O-O2--0.308037       -1.64772  -0.14138   0.96091 
 H-HO-+0.213510       -1.58841   0.01509  -1.39739 
 
 ITRead=  3  3  3  3  3  3  3  3  3  3
 MicOpt=  0  0  0  0  0  0  0  0  0  0
 NAtoms=     10 NQM=        0 NQMF=       0 NMMI=      0 NMMIF=      0
                NMic=      10 NMicF=      0.
                    Isotopes and Nuclear Properties:
 (Nuclear quadrupole moments (NQMom) in fm**2, nuclear magnetic moments (NMagM)
  in nuclear magnetons)

  Atom         1           2           3           4           5           6           7           8           9          10
 IAtWgt=          12          16          12           1           1          14           1           1          16           1
 AtmWgt=  12.0000000  15.9949146  12.0000000   1.0078250   1.0078250  14.0030740   1.0078250   1.0078250  15.9949146   1.0078250
 NucSpn=           0           0           0           1           1           2           1           1           0           1
 AtZEff=  -0.0000000  -0.0000000  -0.0000000  -0.0000000  -0.0000000  -0.0000000  -0.0000000  -0.0000000  -0.0000000  -0.0000000
 NQMom=    0.0000000   0.0000000   0.0000000   0.0000000   0.0000000   2.0440000   0.0000000   0.0000000   0.0000000   0.0000000
 NMagM=    0.0000000   0.0000000   0.0000000   2.7928460   2.7928460   0.4037610   2.7928460   2.7928460   0.0000000   2.7928460
 AtZNuc=   6.0000000   8.0000000   6.0000000   1.0000000   1.0000000   7.0000000   1.0000000   1.0000000   8.0000000   1.0000000
 Generating MM parameters.
 I=    1 IAn=  6 Valence= 5.
          JB=  1 J=    2 IAn=  8 IBT=12 Dist= 1.38D+00
          JB=  2 J=    3 IAn=  6 IBT= 1 Dist= 1.51D+00
          JB=  3 J=    9 IAn=  8 IBT= 2 Dist= 1.21D+00
 I=    2 IAn=  8 Valence= 3.
          JB=  1 J=    1 IAn=  6 IBT=12 Dist= 1.38D+00
          JB=  2 J=   10 IAn=  1 IBT= 1 Dist= 9.95D-01
 Read MM parameter file:
 Include all MM classes

 MM sanity checks:
 All charges sum to:               -0.00000100
 Charges of atoms sum to:          -0.00000100
 WARNING -- The following centers have non-zero partial charges, but zero Vanderwaals
 parameters.  These centers can collapse onto other centers with non-zero charge.
   Center  Layer   Charge
     10 H    R    0.213510
 MMInit generated parameter data with length LenPar=        2069.
 MM Charge=             -0.0000 electrons
 MM Dipole moment (Debye):
    X=              0.6897    Y=             -0.5310    Z=             -0.5625  Tot=              1.0364
 MM Quadrupole moment (Debye-Ang):
   XX=             -2.7204   YY=              1.5524   ZZ=              1.9264
   XY=             -1.0972   XZ=              3.2803   YZ=             -0.2758
 MM Traceless Quadrupole moment (Debye-Ang):
   XX=             -2.9732   YY=              1.2996   ZZ=              1.6736
   XY=             -1.0972   XZ=              3.2803   YZ=             -0.2758
 MM Octapole moment (Debye-Ang**2):
  XXX=             -0.8148  YYY=             -1.3792  ZZZ=             -0.2511  XYY=              1.9206
  XXY=             -0.7603  XXZ=             -7.4163  XZZ=              3.1788  YZZ=             -0.0739
  YYZ=              0.3681  XYZ=             -0.0392
 MM Hexadecapole moment (Debye-Ang**3):
 XXXX=            -12.0220 YYYY=              1.8749 ZZZZ=              6.5415 XXXY=             -3.5049
 XXXZ=              9.7191 YYYX=             -1.4403 YYYZ=             -0.9323 ZZZX=              7.4235
 ZZZY=             -0.0613 XXYY=              2.6107 XXZZ=              4.8724 YYZZ=              1.5589
 XXYZ=              1.2212 YYXZ=             -0.2182 ZZXY=             -0.7388
 Leave Link  101 at Wed Nov 29 12:05:27 2023, MaxMem=   134217728 cpu:               0.2 elap:               0.2
 (Enter /home/emanuele/chem_software/gaussian//gdv/l103.exe)

 GradGradGradGradGradGradGradGradGradGradGradGradGradGradGradGradGradGrad
 Berny optimization.
 Initialization pass.
 No Z-matrix variables, so optimization will use Cartesian coordinates.
 Trust Radius=1.00D-01 FncErr=1.00D-07 GrdErr=1.00D-07 EigMax=2.50D+02 EigMin=1.00D-04
 Number of steps in this run=      2 maximum allowed number of steps=      2.
 GradGradGradGradGradGradGradGradGradGradGradGradGradGradGradGradGradGrad

 Leave Link  103 at Wed Nov 29 12:05:27 2023, MaxMem=   134217728 cpu:               0.0 elap:               0.0
 (Enter /home/emanuele/chem_software/gaussian//gdv/l202.exe)
                          Input orientation:                          
 ---------------------------------------------------------------------
 Center     Atomic      Atomic             Coordinates (Angstroms)
 Number     Number       Type             X           Y           Z
 ---------------------------------------------------------------------
      1          6    20001002       -0.619707   -0.149176    0.329522
      2          8    20001022       -0.660856   -0.069257   -1.045977
      3          6    20001001        0.801213   -0.246106    0.835764
      4          1    20001034        1.112380    0.300514    1.771839
      5          1    20001034        0.747690   -1.325376    1.117305
      6          7    20001020        1.851083   -0.020930   -0.185734
      7          1    20001029        1.848705   -0.867592   -0.765798
      8          1    20001029        1.437646    0.580624   -0.895492
      9          8    20001025       -1.647716   -0.141383    0.960913
     10          1    20001031       -1.588413    0.015093   -1.397392
 ---------------------------------------------------------------------
                    Distance matrix (angstroms):
                    1          2          3          4          5
     1  C    0.000000
     2  O    1.378433   0.000000
     3  C    1.511519   2.389534   0.000000
     4  H    2.298396   3.349804   1.127765   0.000000
     5  H    1.968203   2.870823   1.116671   1.790232   0.000000
     6  N    2.527200   2.655596   1.482022   2.116861   2.148713
     7  H    2.794442   2.648346   2.012085   2.888987   2.228874
     8  H    2.503192   2.201977   2.021330   2.701650   2.856611
     9  O    1.206448   2.237566   2.454360   2.910499   2.676615
    10  H    1.986859   0.995474   3.281086   4.173700   3.684825
                    6          7          8          9         10
     6  N    0.000000
     7  H    1.026312   0.000000
     8  H    1.018113   1.511000   0.000000
     9  O    3.683871   3.966594   3.672464   0.000000
    10  H    3.646854   3.604417   3.119096   2.364234   0.000000
 Symmetry turned off by external request.
 Stoichiometry    C2H5NO2
 Framework group  C1[X(C2H5NO2)]
 Deg. of freedom    24
 Full point group                 C1      NOp   1
 Rotational constants (GHZ):          10.0040858           4.0574741           2.9828262
 Leave Link  202 at Wed Nov 29 12:05:27 2023, MaxMem=   134217728 cpu:               0.0 elap:               0.0
 (Enter /home/emanuele/chem_software/gaussian//gdv/l301.exe)
 Standard basis: Dummy (5D, 7F)
    10 basis functions,    10 primitive gaussians,    10 cartesian basis functions
     7 alpha electrons        7 beta electrons
       nuclear repulsion energy        22.8951122762 Hartrees.
 IExCor=       0 DFT=F Ex=HF Corr=None N6=None ScaHFX=  1.000000
 ScaDFX=  1.000000  1.000000  1.000000  1.000000  1.000000  0.000000
 ScaDFX=  0.000000  0.000000  0.000000  0.000000  0.000000  0.000000
 IRadAn=      5 IRanWt=     -1 IRanGd=            0 ICorTp=0 IEmpDi=  4
 NAtoms=   10 NActive=   10 NUniq=   10 SFac= 1.00D+00 NAtFMM=   60 NAOKFM=F Big=F
 Integral buffers will be    131072 words long.
 Raffenetti 1 integral format.
 Two-electron integral symmetry is turned off.
 Leave Link  301 at Wed Nov 29 12:05:27 2023, MaxMem=   134217728 cpu:               0.0 elap:               0.0
 (Enter /home/emanuele/chem_software/gaussian//gdv/l402.exe)
 AMBER calculation of energy and first derivatives.
 NRF= 0 NRA=   0 NVA=  10 HaveQM=F NVQ=       0
 Convergence limit is  0.750E-04 MaxStp= 10000 StMxLn= 3.00D-04 StpMin= 1.00D-06.
 Convergence criteria             0.00011250 0.00007500 0.00045000 0.00030000
  Step  NS  ND Rises OKQ   Scale  Max. Force  RMS Force Max. Disp.  RMS Disp.     Energy   Flag
     1   0   0   F    T  1.00D+00 0.03307432 0.01675948 0.03307432 0.01675948    0.0766115 ----
     2   0   0   F    F  4.40D-01 0.03307432 0.01675948 0.01453735 0.00736640    0.0711305 ----
     3   0   0   F    T  2.45D+00 0.02002796 0.00872159 0.06194052 0.02412588    0.0705700 ----
     4   0   0   F    F  3.20D-01 0.02002796 0.00872159 0.01984036 0.00772784    0.0670527 ----
     5   0   0   F    T  1.10D+00 0.04101504 0.01400501 0.08104624 0.03185372    0.0668286 ----
     6   0   0   F    F  1.93D-01 0.04101504 0.01400501 0.01565584 0.00615324    0.0630634 ----
     7   0   0   F    T  3.20D+00 0.01671191 0.00816861 0.08522850 0.03800695    0.0629626 ----
     8   0   0   T    F  4.57D-01 0.01671191 0.00816861 0.03897704 0.01738149    0.0635512 ----
     9   0   0   F    T  4.12D+00 0.00858938 0.00356333 0.03782478 0.01738149    0.0614979 ----
    10   0   0   F    F -2.15D-01 0.00858938 0.00356333 0.00814917 0.00374476    0.0609308 ----
    11   0   0   F    T  2.04D+00 0.00998303 0.00399811 0.03602668 0.01363673    0.0608850 ----
    12   0   0   F    F  1.04D+00 0.00998303 0.00399811 0.03748041 0.01418699    0.0601424 ----
    13   0   0   F    T  3.24D+00 0.00957660 0.00418950 0.09105662 0.02782373    0.0598791 ----
    14   0   0   F    F -1.30D-01 0.00957660 0.00418950 0.01180245 0.00360642    0.0591557 ----
    15   0   0   F    T  1.66D+00 0.01941931 0.00529066 0.08689569 0.02421731    0.0591395 ----
    16   0   0   F    F  4.02D-02 0.01941931 0.00529066 0.00349664 0.00097449    0.0584154 ----
    17   0   0   F    T  1.26D+00 0.01527628 0.00604201 0.09382222 0.02519180    0.0584144 ----
    18   0   0   F    F  1.02D+00 0.01527628 0.00604201 0.09524091 0.02557273    0.0573428 ----
    19   0   0   F    F -2.37D-02 0.01527628 0.00604201 0.00226127 0.00060716    0.0569623 ----
    20   0   0   F    T  2.70D+00 0.01583979 0.00603322 0.18113089 0.05015737    0.0569621 ----
    21   0   0   F    F -6.67D-02 0.01583979 0.00603322 0.01208823 0.00334738    0.0556591 ----
    22   0   0   F    T  2.51D+00 0.01572591 0.00585366 0.16805207 0.04680999    0.0556533 ----
    23   0   0   F    F  1.62D+00 0.01572591 0.00585366 0.27216962 0.07581137    0.0533137 ----
    24   0   0   F    F -2.67D-01 0.01572591 0.00585366 0.07271617 0.02025469    0.0521710 ----
    25   0   0   F    T  2.13D+00 0.02441945 0.00962684 0.32636451 0.10236666    0.0518819 ----
    26   0   0   F    F -4.01D-01 0.02441945 0.00962684 0.13079895 0.04102607    0.0511583 ----
    27   0   0   F    F -8.54D-03 0.02441945 0.00962684 0.00111680 0.00035029    0.0499149 ----
    28   0   0   F    T  1.96D+00 0.03349975 0.01164529 0.16715837 0.06169089    0.0499149 ----
    29   0   0   F    F  5.79D-02 0.03349975 0.01164529 0.00968273 0.00357348    0.0460958 ----
    30   0   0   F    T  2.50D+00 0.02935314 0.00937782 0.16808241 0.06526436    0.0460866 ----
    31   0   0   F    F -2.00D-02 0.02935314 0.00937782 0.00336490 0.00130655    0.0426341 ----
    32   0   0   F    T  1.88D+00 0.02293554 0.00982732 0.18836216 0.06395781    0.0426325 ----
    33   0   0   F    F -2.72D-01 0.02293554 0.00982732 0.05129917 0.01741848    0.0408915 ----
    34   0   0   F    F -6.99D-03 0.02293554 0.00982732 0.00035880 0.00012183    0.0405798 --++
    35   0   0   F    T  1.93D+00 0.02079969 0.00932334 0.15770396 0.04666116    0.0405798 ----
    36   0   0   F    F -1.41D-01 0.02079969 0.00932334 0.02227932 0.00659196    0.0385487 ----
    37   0   0   F    T  4.86D+00 0.01247517 0.00440941 0.12893524 0.04006920    0.0384974 ----
    38   0   0   T    F  4.51D-01 0.01247517 0.00440941 0.05820890 0.01808958    0.0388052 ----
    39   0   0   F    T  3.24D+00 0.00694668 0.00319001 0.05618347 0.01808958    0.0378575 ----
    40   0   0   T    F  4.33D-01 0.00694668 0.00319001 0.02432949 0.00783344    0.0380057 ----
    41   0   0   F    T  1.80D+00 0.00706828 0.00252506 0.01928535 0.00783344    0.0376442 ----
    42   0   0   F    F -2.34D-01 0.00706828 0.00252506 0.00451475 0.00183383    0.0375248 ----
    43   0   0   F    T  1.42D+00 0.00434395 0.00227641 0.01304691 0.00599962    0.0375125 ----
    44   0   0   F    F  1.44D+00 0.00434395 0.00227641 0.01873682 0.00861612    0.0373375 ----
    45   0   0   F    T  2.22D+00 0.00727321 0.00272091 0.03499299 0.01461574    0.0372444 ----
    46   0   0   F    F -2.47D-02 0.00727321 0.00272091 0.00086593 0.00036168    0.0370050 ----
    47   0   0   F    T  4.30D+00 0.00409569 0.00175197 0.03426972 0.01425406    0.0370049 ----
    48   0   0   T    F  2.87D-01 0.00409569 0.00175197 0.00982364 0.00408602    0.0373025 ----
    49   0   0   F    T  1.18D+00 0.00429078 0.00167440 0.01064348 0.00408602    0.0369480 ----
    50   0   0   F    F  9.34D-01 0.00429078 0.00167440 0.00994464 0.00381774    0.0368745 ----
    51   0   0   F    T  2.36D+00 0.00418607 0.00155617 0.01967336 0.00790376    0.0368522 ----
    52   0   0   F    F  1.08D-01 0.00418607 0.00155617 0.00213431 0.00085746    0.0367579 ----
    53   0   0   F    T  2.22D+00 0.00410892 0.00161294 0.02358717 0.00876122    0.0367570 ----
    54   0   0   F    F  4.21D-01 0.00410892 0.00161294 0.00992075 0.00368496    0.0366444 ----
    55   0   0   F    T  1.52D+00 0.00653683 0.00229440 0.03191251 0.01244618    0.0366335 ----
    56   0   0   F    F -1.27D-01 0.00653683 0.00229440 0.00406314 0.00158466    0.0365318 ----
    57   0   0   F    T  1.86D+00 0.00361013 0.00187469 0.03000961 0.01086151    0.0365297 ----
    58   0   0   F    F  1.77D-01 0.00361013 0.00187469 0.00531855 0.00192497    0.0364166 ----
    59   0   0   F    T  4.10D+00 0.00298242 0.00127686 0.03613048 0.01278648    0.0364139 ----
    60   0   0   F    F -3.14D-01 0.00298242 0.00127686 0.01135295 0.00401778    0.0363597 ----
    61   0   0   F    T  1.55D+00 0.00377339 0.00167991 0.02453467 0.00876870    0.0363455 ----
    62   0   0   F    F  1.73D+00 0.00377339 0.00167991 0.04250795 0.01519236    0.0362400 ----
    63   0   0   F    F -1.14D-02 0.00377339 0.00167991 0.00048471 0.00017323    0.0361720 ---+
    64   0   0   F    T  1.88D+00 0.00678422 0.00240924 0.07014148 0.02378783    0.0361720 ----
    65   0   0   F    F -4.73D-01 0.00678422 0.00240924 0.03314520 0.01124089    0.0361623 ----
    66   0   0   F    T  2.11D+00 0.00376501 0.00173597 0.03436395 0.01254694    0.0360830 ----
    67   0   0   F    F  1.33D-01 0.00376501 0.00173597 0.00456107 0.00166534    0.0359775 ----
    68   0   0   F    T  2.58D+00 0.00400946 0.00169262 0.03692446 0.01421228    0.0359761 ----
    69   0   0   F    F -2.56D-01 0.00400946 0.00169262 0.00946328 0.00364243    0.0359039 ----
    70   0   0   F    T  2.50D+00 0.00361729 0.00139091 0.03090666 0.01056985    0.0358945 ----
    71   0   0   T    F  4.55D-01 0.00361729 0.00139091 0.01407526 0.00481363    0.0359097 ----
    72   0   0   F    T  1.44D+00 0.00307337 0.00120276 0.01327786 0.00481363    0.0358613 ----
    73   0   0   F    F  8.66D-01 0.00307337 0.00120276 0.01149424 0.00416701    0.0358156 ----
    74   0   0   F    T  2.09D+00 0.00327741 0.00133842 0.02549908 0.00898065    0.0358031 ----
    75   0   0   F    F  4.58D-01 0.00327741 0.00133842 0.01169113 0.00411756    0.0357290 ----
    76   0   0   F    T  1.84D+00 0.00579323 0.00170348 0.03722114 0.01309821    0.0357209 ----
    77   0   0   F    F -3.37D-01 0.00579323 0.00170348 0.01255998 0.00441989    0.0356816 ----
    78   0   0   F    T  1.49D+00 0.00299289 0.00153513 0.02273819 0.00867832    0.0356676 ----
    79   0   0   F    F  6.90D-01 0.00299289 0.00153513 0.01568121 0.00598493    0.0355943 ----
    80   0   0   F    T  2.71D+00 0.00324795 0.00143671 0.03876641 0.01466325    0.0355800 ----
    81   0   0   F    F  1.59D-01 0.00324795 0.00143671 0.00618283 0.00233863    0.0354843 ----
    82   0   0   F    T  1.66D+00 0.00479597 0.00193896 0.04904171 0.01700188    0.0354824 ----
    83   0   0   F    F -2.83D-01 0.00479597 0.00193896 0.01389277 0.00481637    0.0354256 ----
    84   0   0   F    T  1.83D+00 0.00329538 0.00158434 0.03297830 0.01218551    0.0354148 ----
    85   0   0   F    F  1.64D-01 0.00329538 0.00158434 0.00541786 0.00200190    0.0353361 ----
    86   0   0   F    T  2.15D+00 0.00465903 0.00158174 0.03766618 0.01418741    0.0353345 ----
    87   0   0   F    F  9.52D-01 0.00465903 0.00158174 0.03586614 0.01350941    0.0352172 ----
    88   0   0   F    T  1.59D+00 0.00535220 0.00251443 0.07889343 0.02769682    0.0351823 ----
    89   0   0   F    F -2.01D-01 0.00535220 0.00251443 0.01583826 0.00556028    0.0350676 ----
    90   0   0   F    T  1.46D+00 0.00517135 0.00233543 0.06006765 0.02213654    0.0350595 ----
    91   0   0   F    F  5.26D-01 0.00517135 0.00233543 0.03159628 0.01164408    0.0348981 ----
    92   0   0   F    F -1.56D-02 0.00517135 0.00233543 0.00049172 0.00018121    0.0348763 ---+
    93   0   0   F    T  3.35D+00 0.00454810 0.00209270 0.08417874 0.03359941    0.0348763 ----
    94   0   0   T    F  4.76D-01 0.00454810 0.00209270 0.04003731 0.01598064    0.0348891 ----
    95   0   0   F    T  1.53D+00 0.00590599 0.00205592 0.04398568 0.01598064    0.0347736 ----
    96   0   0   F    F -1.91D-01 0.00590599 0.00205592 0.00840917 0.00305517    0.0346988 ----
    97   0   0   F    T  1.98D+00 0.00409336 0.00157415 0.03296525 0.01292546    0.0346943 ----
    98   0   0   F    F  2.06D-01 0.00409336 0.00157415 0.00678790 0.00266149    0.0346078 ----
    99   0   0   F    T  2.36D+00 0.00297236 0.00160592 0.03499656 0.01558695    0.0346052 ----
   100   0   0   F    F -3.31D-01 0.00297236 0.00160592 0.01159790 0.00516553    0.0345591 ----
   101   0   0   F    T  1.14D+00 0.00439365 0.00184864 0.02604318 0.01042142    0.0345450 ----
   102   0   0   F    F  7.49D-01 0.00439365 0.00184864 0.01951603 0.00780952    0.0344605 ----
   103   0   0   F    T  1.71D+00 0.00518180 0.00193519 0.04308774 0.01823094    0.0344410 ----
   104   0   0   F    F  3.14D-01 0.00518180 0.00193519 0.01353304 0.00572599    0.0343200 ----
   105   0   0   F    T  2.69D+00 0.00474803 0.00190069 0.04798376 0.02395694    0.0343125 ----
   106   0   0   T    F  3.71D-01 0.00474803 0.00190069 0.01782075 0.00889740    0.0344017 ----
   107   0   0   F    T  1.66D+00 0.00278146 0.00139768 0.02101835 0.00889740    0.0342591 ----
   108   0   0   F    F  2.13D-01 0.00278146 0.00139768 0.00448009 0.00189649    0.0342017 ----
   109   0   0   F    T  2.59D+00 0.00324689 0.00117044 0.02556176 0.01079389    0.0341999 ----
   110   0   0   F    F  1.43D-01 0.00324689 0.00117044 0.00366404 0.00154720    0.0341391 ----
   111   0   0   F    T  1.19D+00 0.00419327 0.00184213 0.02835024 0.01234110    0.0341381 ----
   112   0   0   F    F  1.71D-01 0.00419327 0.00184213 0.00484043 0.00210708    0.0340693 ----
   113   0   0   F    T  2.31D+00 0.00404621 0.00144179 0.03082717 0.01444817    0.0340678 ----
   114   0   0   F    F -3.79D-01 0.00404621 0.00144179 0.01168201 0.00547516    0.0340398 ----
   115   0   0   F    T  3.34D+00 0.00201545 0.00089627 0.01841963 0.00897302    0.0340232 ----
   116   0   0   F    F -3.16D-01 0.00201545 0.00089627 0.00581204 0.00283130    0.0340015 ----
   117   0   0   F    T  1.57D+00 0.00252482 0.00105705 0.01455946 0.00614171    0.0339957 ----
   118   0   0   F    F -3.27D-01 0.00252482 0.00105705 0.00476208 0.00200882    0.0339821 ----
   119   0   0   F    T  2.14D+00 0.00145197 0.00069862 0.00978544 0.00413290    0.0339780 ----
   120   0   0   F    F  6.01D-01 0.00145197 0.00069862 0.00588411 0.00248516    0.0339564 ----
   121   0   0   F    T  2.24D+00 0.00194554 0.00083709 0.01574840 0.00661806    0.0339528 ----
   122   0   0   F    F -2.51D-01 0.00194554 0.00083709 0.00395984 0.00166407    0.0339371 ----
   123   0   0   F    T  1.29D+00 0.00239622 0.00095190 0.01183315 0.00495399    0.0339351 ----
   124   0   0   F    F  6.88D-02 0.00239622 0.00095190 0.00081367 0.00034065    0.0339165 ----
   125   0   0   F    T  3.22D+00 0.00128039 0.00059917 0.01267322 0.00529463    0.0339165 ----
   126   0   0   F    F -4.50D-01 0.00128039 0.00059917 0.00570625 0.00238396    0.0339134 ----
   127   0   0   F    T  2.53D+00 0.00150907 0.00047694 0.00594170 0.00291067    0.0339069 ----
   128   0   0   F    F -2.80D-01 0.00150907 0.00047694 0.00166635 0.00081629    0.0339016 ----
   129   0   0   F    T  1.07D+00 0.00186472 0.00060817 0.00431931 0.00209437    0.0339007 ----
   130   0   0   F    F  7.47D-01 0.00186472 0.00060817 0.00322665 0.00156456    0.0338923 ----
   131   0   0   F    T  2.22D+00 0.00114164 0.00053857 0.00751983 0.00365893    0.0338904 ----
   132   0   0   F    T  3.32D+00 0.00094111 0.00042187 0.00657283 0.00365893    0.0338808 ----
   133   0   0   T    F  3.86D-01 0.00094111 0.00042187 0.00253785 0.00141276    0.0338859 ----
   134   0   0   F    T  1.12D+00 0.00137632 0.00044062 0.00277574 0.00141276    0.0338774 ----
   135   0   0   F    F  1.28D+00 0.00137632 0.00044062 0.00355754 0.00181067    0.0338724 ----
   136   0   0   F    T  2.36D+00 0.00111110 0.00043543 0.00652675 0.00322343    0.0338700 ----
   137   0   0   F    F -2.15D-01 0.00111110 0.00043543 0.00140563 0.00069421    0.0338652 ----
   138   0   0   F    T  2.83D+00 0.00080867 0.00033596 0.00532802 0.00252921    0.0338648 ----
   139   0   0   T    F  4.91D-01 0.00080867 0.00033596 0.00261388 0.00124081    0.0338649 ----
   140   0   0   F    T  1.56D+00 0.00076385 0.00030499 0.00225982 0.00124081    0.0338624 ----
   141   0   0   F    F -1.66D-01 0.00076385 0.00030499 0.00037486 0.00020583    0.0338607 --++
   142   0   0   F    T  2.23D+00 0.00055345 0.00021967 0.00239274 0.00103498    0.0338606 ----
   143   0   0   F    F  2.69D-01 0.00055345 0.00021967 0.00064452 0.00027879    0.0338586 ---+
   144   0   0   F    T  2.70D+00 0.00045359 0.00021304 0.00310346 0.00131377    0.0338585 ----
   145   0   0   T    F  4.73D-01 0.00045359 0.00021304 0.00146659 0.00062084    0.0338588 ----
   146   0   0   F    T  1.41D+00 0.00042279 0.00019236 0.00152765 0.00062084    0.0338577 ----
   147   0   0   F    F  2.08D-01 0.00042279 0.00019236 0.00031750 0.00012903    0.0338568 --++
   148   0   0   F    T  1.61D+00 0.00038317 0.00018929 0.00204503 0.00074987    0.0338567 ----
   149   0   0   F    F  1.41D+00 0.00038317 0.00018929 0.00288596 0.00105823    0.0338554 ----
   150   0   0   F    T  2.25D+00 0.00077200 0.00024300 0.00473529 0.00180810    0.0338546 ----
   151   0   0   F    F -3.68D-01 0.00077200 0.00024300 0.00174208 0.00066519    0.0338538 ----
   152   0   0   F    T  1.48D+00 0.00054220 0.00023280 0.00275475 0.00114291    0.0338534 ----
   153   0   0   F    T  2.03D+00 0.00040532 0.00019935 0.00239511 0.00114291    0.0338521 ----
   154   0   0   F    F  5.56D-01 0.00040532 0.00019935 0.00133277 0.00063598    0.0338504 ----
   155   0   0   F    T  2.24D+00 0.00053258 0.00021982 0.00341215 0.00177889    0.0338502 ----
   156   0   0   F    F -2.76D-01 0.00053258 0.00021982 0.00094106 0.00049061    0.0338491 ----
   157   0   0   F    T  1.36D+00 0.00070079 0.00023968 0.00244509 0.00128828    0.0338490 ----
   158   0   0   F    T  3.15D+00 0.00030451 0.00013729 0.00258892 0.00128828    0.0338479 ----
   159   0   0   F    T  1.69D+00 0.00043189 0.00019381 0.00236504 0.00128828    0.0338472 ----
   160   0   0   F    T  1.61D+00 0.00055679 0.00019406 0.00239526 0.00128828    0.0338462 ----
   161   0   0   F    F -1.75D-01 0.00055679 0.00019406 0.00041854 0.00022511    0.0338455 --++
   162   0   0   F    T  2.13D+00 0.00035143 0.00014171 0.00194488 0.00106317    0.0338455 ----
   163   0   0   F    F  7.23D-01 0.00035143 0.00014171 0.00140670 0.00076897    0.0338445 ----
   164   0   0   F    T  3.43D+00 0.00038507 0.00014628 0.00347995 0.00183215    0.0338443 ----
   165   0   0   T    F  2.96D-01 0.00038507 0.00014628 0.00103074 0.00054267    0.0338459 ----
   166   0   0   F    T  1.97D+00 0.00029571 0.00010136 0.00117172 0.00054267    0.0338440 ----
   167   0   0   F    T  1.05D+00 0.00032155 0.00013129 0.00104292 0.00054267    0.0338438 ----
   168   0   0   F    F  3.09D+00 0.00032155 0.00013129 0.00322714 0.00167919    0.0338434 ----
   169   0   0   F    T  2.70D+00 0.00066262 0.00020159 0.00432816 0.00222186    0.0338429 ----
   170   0   0   T    F  4.93D-01 0.00066262 0.00020159 0.00213555 0.00109628    0.0338429 ----
   171   0   0   F    T  1.50D+00 0.00053238 0.00018088 0.00246219 0.00109628    0.0338420 ----
   172   0   0   F    T  2.49D+00 0.00043702 0.00013188 0.00258669 0.00109628    0.0338413 ----
   173   0   0   F    T  1.80D+00 0.00043952 0.00015723 0.00206875 0.00109628    0.0338408 ----
   174   0   0   F    F  1.59D-01 0.00043952 0.00015723 0.00032961 0.00017467    0.0338400 --++
   175   0   0   F    T  1.81D+00 0.00042923 0.00016833 0.00242986 0.00127095    0.0338400 ----
   176   0   0   F    F -2.54D-01 0.00042923 0.00016833 0.00061714 0.00032280    0.0338395 ----
   177   0   0   F    T  1.55D+00 0.00032754 0.00015123 0.00197614 0.00094815    0.0338394 ----
   178   0   0   F    F  6.21D-01 0.00032754 0.00015123 0.00122722 0.00058882    0.0338387 ----
   179   0   0   F    T  2.85D+00 0.00034949 0.00013841 0.00313942 0.00153698    0.0338386 ----
   180   0   0   F    F -3.51D-01 0.00034949 0.00013841 0.00110239 0.00053970    0.0338382 ----
   181   0   0   F    T  2.64D+00 0.00032595 0.00011393 0.00191089 0.00099728    0.0338380 ----
   182   0   0   T    F  4.47D-01 0.00032595 0.00011393 0.00085365 0.00044551    0.0338382 ----
   183   0   0   F    T  1.42D+00 0.00021648 0.00010099 0.00084557 0.00044551    0.0338378 ----
   184   0   0   F    F  8.51D-01 0.00021648 0.00010099 0.00071983 0.00037926    0.0338375 ----
   185   0   0   F    T  2.04D+00 0.00025150 0.00011243 0.00167795 0.00082478    0.0338374 ----
   186   0   0   F    T  2.71D+00 0.00021188 0.00009520 0.00151455 0.00082478    0.0338370 ----
   187   0   0   F    F -3.50D-01 0.00021188 0.00009520 0.00053008 0.00028866    0.0338368 ---+
   188   0   0   F    T  1.37D+00 0.00029545 0.00010597 0.00090658 0.00053611    0.0338368 ----
   189   0   0   F    T  2.40D+00 0.00017324 0.00008191 0.00109310 0.00053611    0.0338365 ----
   190   0   0   F    F  5.17D-01 0.00017324 0.00008191 0.00056506 0.00027714    0.0338362 ---+
   191   0   0   F    T  1.75D+00 0.00037447 0.00011209 0.00149579 0.00081325    0.0338361 ----
   192   0   0   F    T  1.63D+00 0.00028107 0.00011509 0.00155820 0.00081325    0.0338358 ----
   193   0   0   F    T  1.47D+00 0.00039631 0.00012586 0.00155216 0.00081325    0.0338355 ----
   194   0   0   F    F  7.05D-01 0.00039631 0.00012586 0.00109427 0.00057334    0.0338350 ----
   195   0   0   F    T  3.06D+00 0.00027674 0.00010381 0.00259744 0.00138659    0.0338349 ----
   196   0   0   F    T  1.29D+00 0.00047363 0.00015718 0.00258023 0.00138659    0.0338345 ----
   197   0   0   F    T  1.93D+00 0.00031885 0.00013182 0.00263202 0.00138659    0.0338341 ----
   198   0   0   F    F  3.53D-01 0.00031885 0.00013182 0.00093028 0.00049009    0.0338335 ----
   199   0   0   F    T  2.84D+00 0.00037802 0.00013503 0.00354935 0.00187667    0.0338335 ----
   200   0   0   F    F -4.47D-01 0.00037802 0.00013503 0.00158644 0.00083881    0.0338333 ----
   201   0   0   F    T  1.88D+00 0.00030985 0.00011830 0.00174131 0.00103786    0.0338330 ----
   202   0   0   F    F -3.77D-01 0.00030985 0.00011830 0.00065600 0.00039099    0.0338329 ----
   203   0   0   F    T  2.07D+00 0.00018155 0.00008743 0.00134950 0.00064687    0.0338328 ----
   204   0   0   F    T  2.05D+00 0.00024117 0.00008801 0.00124979 0.00064687    0.0338325 ----
   205   0   0   F    F  4.01D-01 0.00024117 0.00008801 0.00050075 0.00025918    0.0338322 ---+
   206   0   0   F    T  1.26D+00 0.00034492 0.00012854 0.00168662 0.00090605    0.0338322 ----
   207   0   0   F    T  2.01D+00 0.00031252 0.00011000 0.00177155 0.00090605    0.0338318 ----
   208   0   0   F    F  2.12D-01 0.00031252 0.00011000 0.00037626 0.00019243    0.0338314 --++
   209   0   0   F    T  2.31D+00 0.00023133 0.00010398 0.00233255 0.00109848    0.0338314 ----
   210   0   0   F    F -3.03D-01 0.00023133 0.00010398 0.00070752 0.00033320    0.0338312 ----
   211   0   0   F    T  1.21D+00 0.00032225 0.00012147 0.00152561 0.00076529    0.0338311 ----
   212   0   0   F    F  5.58D-01 0.00032225 0.00012147 0.00085097 0.00042687    0.0338308 ----
   213   0   0   F    T  1.81D+00 0.00037341 0.00012266 0.00221918 0.00119216    0.0338307 ----
   214   0   0   F    T  4.47D+00 0.00020446 0.00007567 0.00210637 0.00119216    0.0338303 ----
   215   0   0   T    F  2.30D-01 0.00020446 0.00007567 0.00048461 0.00027428    0.0338312 ---+
   216   0   0   F    T  1.54D+00 0.00015471 0.00006035 0.00046031 0.00027428    0.0338302 -+-+
   217   0   0   F    T  2.32D+00 0.00014092 0.00004791 0.00049159 0.00027428    0.0338301 -+-+
   218   0   0   F    T  2.39D+00 0.00014524 0.00005057 0.00053015 0.00027428    0.0338300 -+-+
   219   0   0   F    T  1.00D+00 0.00035865 0.00011787 0.00129636 0.00078708    0.0338300 ----
   220   0   0   T    F  5.00D-01 0.00035865 0.00011787 0.00064818 0.00039354    0.0338308 ----
   221   0   0   T    F  5.00D-01 0.00035865 0.00011787 0.00032409 0.00019677    0.0338303 --++
   222   0   0   T    F  5.00D-01 0.00035865 0.00011787 0.00016204 0.00009838    0.0338301 --++
   223   0   0   T    F  5.00D-01 0.00035865 0.00011787 0.00008102 0.00004919    0.0338300 --++
   224   0   0   T    F  5.00D-01 0.00035865 0.00011787 0.00004051 0.00002460    0.0338300 --++
   225   0   0   T    F  5.00D-01 0.00035865 0.00011787 0.00002026 0.00001230    0.0338300 --++
   226   0   0   T    F  5.00D-01 0.00035865 0.00011787 0.00001013 0.00000615    0.0338300 --++
   227   0   0   T    F  5.00D-01 0.00035865 0.00011787 0.00000506 0.00000307    0.0338300 --++
   228   0   0   T    F  5.00D-01 0.00035865 0.00011787 0.00000253 0.00000154    0.0338300 --++
   229   0   0   T    F  5.00D-01 0.00035865 0.00011787 0.00000127 0.00000077    0.0338300 --++
   230   0   0   T    F  5.00D-01 0.00035865 0.00011787 0.00000063 0.00000038    0.0338300 --++
   231   0   0   T    T  1.00D+00 0.00035903 0.00011798 0.00034721 0.00011772    0.0338300 --++
   232   0   0   F    T  1.14D+00 0.00033933 0.00010377 0.00029604 0.00011772    0.0338299 --++
   233   0   0   T    F  5.00D-01 0.00033933 0.00010377 0.00014802 0.00005886    0.0338304 --++
   234   0   0   T    F  5.00D-01 0.00033933 0.00010377 0.00007401 0.00002943    0.0338301 --++
   235   0   0   T    F  5.00D-01 0.00033933 0.00010377 0.00003700 0.00001472    0.0338300 --++
   236   0   0   T    F  5.00D-01 0.00033933 0.00010377 0.00001850 0.00000736    0.0338300 --++
   237   0   0   T    F  5.00D-01 0.00033933 0.00010377 0.00000925 0.00000368    0.0338300 --++
   238   0   0   T    F  5.00D-01 0.00033933 0.00010377 0.00000463 0.00000184    0.0338300 --++
   239   0   0   T    F  5.00D-01 0.00033933 0.00010377 0.00000231 0.00000092    0.0338299 --++
   240   0   0   T    F  5.00D-01 0.00033933 0.00010377 0.00000116 0.00000046    0.0338299 --++
   241   0   0   T    F  5.00D-01 0.00033933 0.00010377 0.00000058 0.00000023    0.0338299 --++
   242   0   0   T    T  1.00D+00 0.00034031 0.00010406 0.00021922 0.00008653    0.0338299 --++
   243   0   0   F    T  2.15D+00 0.00010077 0.00004076 0.00018851 0.00008653    0.0338299 ====
 ****************************
 MOLECULAR MECHANICS FUNCTION
 ****************************
 Atomic parameters:
 Center  VDW
      1 1.9080 0.0860000
      2 1.7210 0.2104000
      3 1.9080 0.1094000
      4 1.4870 0.0157000
      5 1.4870 0.0157000
      6 1.8750 0.1700000
      7 0.6000 0.0157000
      8 0.6000 0.0157000
      9 1.6612 0.2100000
     10 0.0000 0.0000000
 Molecular mechanics terms:
 NBDir 3 1      0      0
 HrmStr1  1- 2  431.53 1.3510
 HrmStr1  1- 3  294.15 1.5090
 HrmStr1  1- 9  946.08 1.2030
 HrmStr1  2-10  566.76 0.9680
 HrmStr1  3- 4  358.05 1.0960
 HrmStr1  3- 5  358.05 1.0960
 HrmStr1  3- 6  380.82 1.4520
 HrmStr1  6- 7  506.01 1.0110
 HrmStr1  6- 8  506.01 1.0110
 HrmBnd1  1- 2-10  56.55 107.23
 HrmBnd1  1- 3- 4  46.41 106.89
 HrmBnd1  1- 3- 5  46.41 106.89
 HrmBnd1  1- 3- 6  59.93 110.61
 HrmBnd1  2- 1- 3  67.92 111.72
 HrmBnd1  2- 1- 9  91.40 123.02
 HrmBnd1  3- 1- 9  62.83 125.24
 HrmBnd1  3- 6- 7  52.60 110.71
 HrmBnd1  3- 6- 8  52.60 110.71
 HrmBnd1  4- 3- 5  44.68 106.22
 HrmBnd1  4- 3- 6  52.45 112.94
 HrmBnd1  5- 3- 6  52.45 112.94
 HrmBnd1  7- 6- 8  47.09 108.63
 AmbTrs  3- 1- 2-10   0 180   0   0  0.0000 14.5000  0.0000  0.0000  2.0
 AmbTrs  9- 1- 2-10   0   0   0   0  0.0000  0.0000  0.0000  0.0000  2.0
 AmbTrs  2- 1- 3- 4   0   0   0   0  0.0000 14.5000  0.0000  0.0000  6.0
 AmbTrs  2- 1- 3- 5   0   0   0   0  0.0000 14.5000  0.0000  0.0000  6.0
 AmbTrs  2- 1- 3- 6   0   0   0   0  0.0000 14.5000  0.0000  0.0000  6.0
 AmbTrs  9- 1- 3- 4   0   0   0   0  0.0000 14.5000  0.0000  0.0000  6.0
 AmbTrs  9- 1- 3- 5   0   0   0   0  0.0000 14.5000  0.0000  0.0000  6.0
 AmbTrs  9- 1- 3- 6   0   0   0   0  0.0000 14.5000  0.0000  0.0000  6.0
 AmbTrs  1- 3- 6- 7   0 180   0   0  0.0000 25.6300  0.0000  0.0000  6.0
 AmbTrs  1- 3- 6- 8   0 180   0   0  0.0000 25.6300  0.0000  0.0000  6.0
 AmbTrs  4- 3- 6- 7   0   0   0   0  0.0000 16.9300  0.0000  0.0000  6.0
 AmbTrs  4- 3- 6- 8   0   0   0   0  0.0000 16.9300  0.0000  0.0000  6.0
 AmbTrs  5- 3- 6- 7   0   0   0   0  0.0000 16.9300  0.0000  0.0000  6.0
 AmbTrs  5- 3- 6- 8   0   0   0   0  0.0000 16.9300  0.0000  0.0000  6.0
 NBPair  2- 1 3 1      0      0 -1.000 -1.000
 NBPair  3- 2 3 1      0      0 -1.000 -1.000
 NBPair 10- 3 3 1      0      0 -0.500 -0.167
 NBPair  9- 2 3 1      0      0 -1.000 -1.000
 NBPair 10- 9 3 1      0      0 -0.500 -0.167
 NBPair  3- 1 3 1      0      0 -1.000 -1.000
 NBPair  4- 2 3 1      0      0 -0.500 -0.167
 NBPair  5- 2 3 1      0      0 -0.500 -0.167
 NBPair  6- 2 3 1      0      0 -0.500 -0.167
 NBPair  9- 3 3 1      0      0 -1.000 -1.000
 NBPair  9- 4 3 1      0      0 -0.500 -0.167
 NBPair  9- 5 3 1      0      0 -0.500 -0.167
 NBPair  9- 6 3 1      0      0 -0.500 -0.167
 NBPair  9- 1 3 1      0      0 -1.000 -1.000
 NBPair 10- 1 3 1      0      0 -1.000 -1.000
 NBPair 10- 2 3 1      0      0 -1.000 -1.000
 NBPair  4- 1 3 1      0      0 -1.000 -1.000
 NBPair  5- 1 3 1      0      0 -1.000 -1.000
 NBPair  6- 1 3 1      0      0 -1.000 -1.000
 NBPair  4- 3 3 1      0      0 -1.000 -1.000
 NBPair  5- 4 3 1      0      0 -1.000 -1.000
 NBPair  6- 4 3 1      0      0 -1.000 -1.000
 NBPair  5- 3 3 1      0      0 -1.000 -1.000
 NBPair  6- 5 3 1      0      0 -1.000 -1.000
 NBPair  6- 3 3 1      0      0 -1.000 -1.000
 NBPair  7- 1 3 1      0      0 -0.500 -0.167
 NBPair  8- 1 3 1      0      0 -0.500 -0.167
 NBPair  7- 4 3 1      0      0 -0.500 -0.167
 NBPair  8- 4 3 1      0      0 -0.500 -0.167
 NBPair  7- 5 3 1      0      0 -0.500 -0.167
 NBPair  8- 5 3 1      0      0 -0.500 -0.167
 NBPair  7- 3 3 1      0      0 -1.000 -1.000
 NBPair  8- 3 3 1      0      0 -1.000 -1.000
 NBPair  7- 6 3 1      0      0 -1.000 -1.000
 NBPair  8- 7 3 1      0      0 -1.000 -1.000
 NBPair  8- 6 3 1      0      0 -1.000 -1.000
 Energy per function type:
 Direct Coulomb + vdW (small)                           0.001981898
 Direct Coulomb (large)                                -0.132376261
 Direct vdW (large)                                   270.434295409
 Non-direct Coulomb + vdW (small)                      -0.011290983
 Non-direct Coulomb (large)                             0.138455745
 Non-direct vdW (large)                              -270.434295409
 Harmonic stretch I                                     0.000075677
 Harmonic bend I                                        0.008498465
 Amber torsion                                          0.028485313
 Energy per function class:
        Coulomb              -0.004112482
    Vanderwaals               0.000882881
     Stretching               0.000075677
        Bending               0.008498465
        Torsion               0.028485313
 Energy=    3.382985455E-02 NIter=   0.
 Dipole moment=       0.339139      -0.476831      -0.025790
 Leave Link  402 at Wed Nov 29 12:05:28 2023, MaxMem=   134217728 cpu:               0.4 elap:               0.4
 (Enter /home/emanuele/chem_software/gaussian//gdv/l716.exe)
 Dipole        = 3.39139135D-01-4.76831476D-01-2.57903788D-02
 -------------------------------------------------------------------
 Center     Atomic                   Forces (Hartrees/Bohr)
 Number     Number              X              Y              Z
 -------------------------------------------------------------------
      1        6           0.000062603   -0.000066619   -0.000010555
      2        8           0.000078826   -0.000015320    0.000007745
      3        6          -0.000018256   -0.000029387   -0.000067691
      4        1           0.000026547   -0.000011528    0.000041038
      5        1          -0.000036104    0.000018289   -0.000004647
      6        7          -0.000067393    0.000027453   -0.000023333
      7        1           0.000044064   -0.000008943    0.000014742
      8        1           0.000001619    0.000003773    0.000033306
      9        8          -0.000025106    0.000100768    0.000010519
     10        1          -0.000066800   -0.000018484   -0.000001126
 -------------------------------------------------------------------
 Cartesian Forces:  Max     0.000100768 RMS     0.000040760
 Z-matrix is all fixed cartesians, so copy forces.
 Leave Link  716 at Wed Nov 29 12:05:28 2023, MaxMem=   134217728 cpu:               0.0 elap:               0.0
 (Enter /home/emanuele/chem_software/gaussian//gdv/l103.exe)

 GradGradGradGradGradGradGradGradGradGradGradGradGradGradGradGradGradGrad
 Berny optimization.
 Search for a local minimum.
 Step number   1 out of a maximum of    2
 All quantities printed in internal units (Hartrees-Bohrs-Radians)
 RMS Force = .40760D-04 SwitMx=.10000D-02 MixMth= 2
 Mixed Optimization -- En-DIIS/RFO-DIIS
 Second derivative matrix not updated -- unit matrix used.
 ITU=  0
 RFO step:  Lambda=-4.98425423D-08 EMin= 1.00000000D+00
 Linear search not attempted -- first point.
 Variable       Old X    -DE/DX   Delta X   Delta X   Delta X     New X
                                 (Linear)    (Quad)   (Total)
    X1       -1.15535   0.00006   0.00000   0.00006   0.00006  -1.15528
    Y1        0.05416  -0.00007   0.00000  -0.00007  -0.00007   0.05409
    Z1        0.39580  -0.00001   0.00000  -0.00001  -0.00001   0.39579
    X2       -2.25188   0.00008   0.00000   0.00008   0.00008  -2.25180
    Y2       -1.19182  -0.00002   0.00000  -0.00002  -0.00002  -1.19183
    Z2       -1.53843   0.00001   0.00000   0.00001   0.00001  -1.53842
    X3        1.38854  -0.00002   0.00000  -0.00002  -0.00002   1.38852
    Y3       -1.04862  -0.00003   0.00000  -0.00003  -0.00003  -1.04864
    Z3        1.13344  -0.00007   0.00000  -0.00007  -0.00007   1.13337
    X4        1.52354   0.00003   0.00000   0.00003   0.00003   1.52356
    Y4       -0.57878  -0.00001   0.00000  -0.00001  -0.00001  -0.57879
    Z4        3.14713   0.00004   0.00000   0.00004   0.00004   3.14717
    X5        1.10141  -0.00004   0.00000  -0.00004  -0.00004   1.10137
    Y5       -3.09937   0.00002   0.00000   0.00002   0.00002  -3.09935
    Z5        1.04064  -0.00000   0.00000  -0.00000  -0.00000   1.04063
    X6        3.39725  -0.00007   0.00000  -0.00007  -0.00007   3.39718
    Y6       -0.01579   0.00003   0.00000   0.00003   0.00003  -0.01577
    Z6       -0.44751  -0.00002   0.00000  -0.00002  -0.00002  -0.44753
    X7        5.21907   0.00004   0.00000   0.00004   0.00004   5.21911
    Y7       -0.51091  -0.00001   0.00000  -0.00001  -0.00001  -0.51092
    Z7       -0.14984   0.00001   0.00000   0.00001   0.00001  -0.14983
    X8        2.99192   0.00000   0.00000   0.00000   0.00000   2.99192
    Y8        1.28167   0.00000   0.00000   0.00000   0.00000   1.28168
    Z8       -1.79206   0.00003   0.00000   0.00003   0.00003  -1.79202
    X9       -2.17944  -0.00003   0.00000  -0.00003  -0.00003  -2.17947
    Y9        1.80090   0.00010   0.00000   0.00010   0.00010   1.80100
    Z9        1.42540   0.00001   0.00000   0.00001   0.00001   1.42541
   X10       -3.83291  -0.00007   0.00000  -0.00007  -0.00007  -3.83298
   Y10       -0.32651  -0.00002   0.00000  -0.00002  -0.00002  -0.32653
   Z10       -1.84460  -0.00000   0.00000  -0.00000  -0.00000  -1.84461
         Item               Value     Threshold  Converged?
 Maximum Force            0.000101     0.000450     YES
 RMS     Force            0.000041     0.000300     YES
 Maximum Displacement     0.000101     0.001800     YES
 RMS     Displacement     0.000041     0.001200     YES
 Predicted change in Energy=-2.492127D-08
 Optimization completed.
    -- Stationary point found.
 Largest change from initial coordinates is atom    7       0.637 Angstoms.
 GradGradGradGradGradGradGradGradGradGradGradGradGradGradGradGradGradGrad

 Leave Link  103 at Wed Nov 29 12:05:28 2023, MaxMem=   134217728 cpu:               0.0 elap:               0.0
 (Enter /home/emanuele/chem_software/gaussian//gdv/l202.exe)
                          Input orientation:                          
 ---------------------------------------------------------------------
 Center     Atomic      Atomic             Coordinates (Angstroms)
 Number     Number       Type             X           Y           Z
 ---------------------------------------------------------------------
      1          6    20001002       -0.611383    0.028661    0.209449
      2          8    20001022       -1.191643   -0.630684   -0.814101
      3          6    20001001        0.734782   -0.554903    0.599789
      4          1    20001034        0.806220   -0.306275    1.665387
      5          1    20001034        0.582839   -1.640115    0.550680
      6          7    20001020        1.797745   -0.008358   -0.236811
      7          1    20001029        2.761813   -0.270361   -0.079294
      8          1    20001029        1.583254    0.678233   -0.948315
      9          8    20001025       -1.153311    0.952996    0.754289
     10          1    20001031       -2.028291   -0.172783   -0.976123
 ---------------------------------------------------------------------
                    Distance matrix (angstroms):
                    1          2          3          4          5
     1  C    0.000000
     2  O    1.348737   0.000000
     3  C    1.518246   2.390803   0.000000
     4  H    2.059499   3.200713   1.096549   0.000000
     5  H    2.080245   2.455681   1.096897   1.752599   0.000000
     6  N    2.450391   3.107570   1.458939   2.165695   2.181460
     7  H    3.398711   4.037274   2.156612   2.620982   2.649721
     8  H    2.564916   3.071047   2.153406   2.899048   2.936419
     9  O    1.202053   2.229206   2.421265   2.501125   3.127284
    10  H    1.858437   0.967421   3.203761   3.876835   3.361874
                    6          7          8          9         10
     6  N    0.000000
     7  H    1.011377   0.000000
     8  H    1.011756   1.744714   0.000000
     9  O    3.258099   4.185649   3.234678   0.000000
    10  H    3.900277   4.874311   3.710560   2.242162   0.000000
 Symmetry turned off by external request.
 Stoichiometry    C2H5NO2
 Framework group  C1[X(C2H5NO2)]
 Deg. of freedom    24
 Full point group                 C1      NOp   1
 Rotational constants (GHZ):           8.9951382           3.8836625           3.1800972
 Leave Link  202 at Wed Nov 29 12:05:28 2023, MaxMem=   134217728 cpu:               0.0 elap:               0.0
 (Enter /home/emanuele/chem_software/gaussian//gdv/l9999.exe)
 Unable to Open any file for archive entry.
 1\1\GINC-EMANUELE-XPS-13-9343\FOpt\AMBER\ZDO\C2H5N1O2\EMANUELE\29-Nov-
 2023\0\\#p Amber=(SoftFirst,Print) geom=nocrowd nosymm opt=(maxcycle=3
 00)\\Title\\0,1\C,-0.6113832315,0.0286607321,0.2094493763\O,-1.1916427
 45,-0.6306836267,-0.814101415\C,0.7347815995,-0.5549034597,0.599788978
 3\H,0.806220291,-0.3062748702,1.6653874393\H,0.5828392804,-1.640115488
 5,0.5506804208\N,1.7977446565,-0.0083582305,-0.236811153\H,2.761812534
 9,-0.2703607089,-0.0792944405\H,1.5832543482,0.6782326679,-0.948315117
 \O,-1.1533109842,0.9529964969,0.7542885151\H,-2.0282907498,-0.17278251
 25,-0.9761226043\\Version=ES64L-GDVRevJ.14\HF=0.0338299\RMSD=0.000e+00
 \RMSF=4.076e-05\Dipole=0.3391391,-0.4768315,-0.0257904\PG=C01 [X(C2H5N
 1O2)]\\@
 The archive entry for this job was punched.


 A successful marriage requires falling in love
 many times, always with the same person.
                           -- Mignon McLaughlin
 Job cpu time:       0 days  0 hours  0 minutes  0.9 seconds.
 Elapsed time:       0 days  0 hours  0 minutes  0.9 seconds.
 File lengths (MBytes):  RWF=      6 Int=      0 D2E=      0 Chk=      1 Scr=      1
 Normal termination of Gaussian DV at Wed Nov 29 12:05:28 2023.
