 Entering Gaussian System, Link 0=/home/emanuele/chem_software/gaussian//g09/g09
 Input=1_mm_90.gjf
 Output=1_mm_90.log
 Initial command:
 /home/emanuele/chem_software/gaussian//gdv/l1.exe "/home/emanuele/chem_software/gaussian/scratch/Gau-13846.inp" -scrdir="/home/emanuele/chem_software/gaussian/scratch/"
 Entering Link 1 = /home/emanuele/chem_software/gaussian//gdv/l1.exe PID=     13848.
  
 Copyright (c) 1988-2020, Gaussian, Inc.  All Rights Reserved.
  
 This is the private, development version of
 the Gaussian(R) DV system of programs. It is based on
 the Gaussian(R) 16 system (copyright 2016, Gaussian, Inc.),
 the Gaussian(R) 09 system (copyright 2009, Gaussian, Inc.),
 the Gaussian(R) 03 system (copyright 2003, Gaussian, Inc.),
 the Gaussian(R) 98 system (copyright 1998, Gaussian, Inc.),
 the Gaussian(R) 94 system (copyright 1995, Gaussian, Inc.),
 the Gaussian 92(TM) system (copyright 1992, Gaussian, Inc.),
 the Gaussian 90(TM) system (copyright 1990, Gaussian, Inc.),
 the Gaussian 88(TM) system (copyright 1988, Gaussian, Inc.),
 the Gaussian 86(TM) system (copyright 1986, Carnegie Mellon
 University), and the Gaussian 82(TM) system (copyright 1983,
 Carnegie Mellon University). Gaussian is a federally registered
 trademark of Gaussian, Inc.
  
 This software contains proprietary and confidential information,
 including trade secrets, belonging to Gaussian, Inc.
  
 This software is provided under written license and may be
 used, copied, transmitted, or stored only in accord with that
 written license.
  
 The following legend is applicable only to US Government
 contracts under FAR:
  
                    RESTRICTED RIGHTS LEGEND
  
 Use, reproduction and disclosure by the US Government is
 subject to restrictions as set forth in subparagraphs (a)
 and (c) of the Commercial Computer Software - Restricted
 Rights clause in FAR 52.227-19.
  
 Gaussian, Inc.
 340 Quinnipiac St., Bldg. 40, Wallingford CT 06492
  
  
 ---------------------------------------------------------------
 Warning -- This program may not be used in any manner that
 competes with the business of Gaussian, Inc. or will provide
 assistance to any competitor of Gaussian, Inc.  The licensee
 of this program is prohibited from giving any competitor of
 Gaussian, Inc. access to this program.  By using this program,
 the user acknowledges that Gaussian, Inc. is engaged in the
 business of creating and licensing software in the field of
 computational chemistry and represents and warrants to the
 licensee that it is not a competitor of Gaussian, Inc. and that
 it will not use this program in any manner prohibited above.
 ---------------------------------------------------------------
  

 Cite this work as:
 Gaussian Development Version, Revision J.14,
 M. J. Frisch, G. W. Trucks, H. B. Schlegel, G. E. Scuseria, 
 M. A. Robb, J. R. Cheeseman, G. Scalmani, V. Barone, 
 G. A. Petersson, H. Nakatsuji, X. Li, A. V. Marenich, M. Caricato, 
 J. Bloino, B. G. Janesko, J. Zheng, R. Gomperts, B. Mennucci, 
 H. P. Hratchian, J. V. Ortiz, A. F. Izmaylov, J. L. Sonnenberg, 
 D. Williams-Young, F. Ding, F. Lipparini, F. Egidi, J. Goings, 
 B. Peng, A. Petrone, T. Henderson, D. Ranasinghe, V. G. Zakrzewski, 
 J. Gao, N. Rega, G. Zheng, W. Liang, M. Hada, M. Ehara, K. Toyota, 
 R. Fukuda, J. Hasegawa, M. Ishida, T. Nakajima, Y. Honda, O. Kitao, 
 H. Nakai, T. Vreven, K. Throssell, J. A. Montgomery, Jr., 
 J. E. Peralta, F. Ogliaro, M. J. Bearpark, J. J. Heyd, 
 E. N. Brothers, K. N. Kudin, V. N. Staroverov, T. A. Keith, 
 R. Kobayashi, J. Normand, K. Raghavachari, A. P. Rendell, 
 J. C. Burant, S. S. Iyengar, J. Tomasi, M. Cossi, J. M. Millam, 
 M. Klene, C. Adamo, R. Cammi, J. W. Ochterski, R. L. Martin, 
 K. Morokuma, O. Farkas, J. B. Foresman, and D. J. Fox, 
 Gaussian, Inc., Wallingford CT, 2020.
 
 ******************************************
 Gaussian DV:  ES64L-GDVRevJ.14 29-Dec-2020
                29-Nov-2023 
 ******************************************
 %mem=1GB
 %nprocshared=1
 Will use up to    1 processors via shared memory.
 %chk=1_mm_90.chk
 -----------------------------------------------------------------
 #p Amber=(SoftFirst,Print) geom=nocrowd nosymm opt=(maxcycle=300)
 -----------------------------------------------------------------
 1/6=300,10=10,18=4000020,19=15,37=210000000,38=1,56=2,64=203/1,3;
 2/9=110,12=1,15=1,40=1/2;
 3/5=30,11=9,25=1,30=1,41=10030000,43=2,71=1/1;
 4/20=11,22=1001,24=3,119=11/2;
 7/30=1,44=-1/16;
 1/6=300,10=10,18=4000020,19=15,64=203/3(2);
 2/9=110,12=1,15=1/2;
 99//99;
 2/9=110,12=1,15=1/2;
 3/5=30,11=9,25=1,30=1,41=10030000,43=2,71=1/1;
 4/16=2,20=11,22=1001,24=3,119=11/2;
 7/30=1,44=-1/16;
 1/6=300,10=10,18=4000020,19=15,64=203/3(-4);
 2/9=110,12=1,15=1/2;
 99/9=10/99;
 Leave Link    1 at Wed Nov 29 12:05:30 2023, MaxMem=   134217728 cpu:               0.0 elap:               0.0
 (Enter /home/emanuele/chem_software/gaussian//gdv/l101.exe)
 -----
 Title
 -----
 Symbolic Z-matrix:
 Charge =  0 Multiplicity = 1
 C-C-+0.299289        -0.6731   -0.29361   0.31099 
 O-OH--0.289770       -0.82564  -0.02192  -1.03234 
 C-CT--0.035454        0.76589  -0.14372   0.74239 
 H-HC-+0.090426        1.07737   0.705     1.39714 
 H-HC-+0.095387        0.72162  -1.05378   1.40737 
 N-N3--0.336253        1.79038  -0.48915  -0.27935 
 H-H-+0.142619         1.38798  -0.20168  -1.1814 
 H-H-+0.128282         2.43736   0.29883  -0.27315 
 O-O2--0.308037       -1.63491  -0.59011   0.97535 
 H-HO-+0.213510       -1.76492  -0.13344  -1.34204 
 
 ITRead=  3  3  3  3  3  3  3  3  3  3
 MicOpt=  0  0  0  0  0  0  0  0  0  0
 NAtoms=     10 NQM=        0 NQMF=       0 NMMI=      0 NMMIF=      0
                NMic=      10 NMicF=      0.
                    Isotopes and Nuclear Properties:
 (Nuclear quadrupole moments (NQMom) in fm**2, nuclear magnetic moments (NMagM)
  in nuclear magnetons)

  Atom         1           2           3           4           5           6           7           8           9          10
 IAtWgt=          12          16          12           1           1          14           1           1          16           1
 AtmWgt=  12.0000000  15.9949146  12.0000000   1.0078250   1.0078250  14.0030740   1.0078250   1.0078250  15.9949146   1.0078250
 NucSpn=           0           0           0           1           1           2           1           1           0           1
 AtZEff=  -0.0000000  -0.0000000  -0.0000000  -0.0000000  -0.0000000  -0.0000000  -0.0000000  -0.0000000  -0.0000000  -0.0000000
 NQMom=    0.0000000   0.0000000   0.0000000   0.0000000   0.0000000   2.0440000   0.0000000   0.0000000   0.0000000   0.0000000
 NMagM=    0.0000000   0.0000000   0.0000000   2.7928460   2.7928460   0.4037610   2.7928460   2.7928460   0.0000000   2.7928460
 AtZNuc=   6.0000000   8.0000000   6.0000000   1.0000000   1.0000000   7.0000000   1.0000000   1.0000000   8.0000000   1.0000000
 Generating MM parameters.
 I=    1 IAn=  6 Valence= 5.
          JB=  1 J=    2 IAn=  8 IBT=12 Dist= 1.38D+00
          JB=  2 J=    3 IAn=  6 IBT= 1 Dist= 1.51D+00
          JB=  3 J=    9 IAn=  8 IBT= 2 Dist= 1.21D+00
 I=    2 IAn=  8 Valence= 3.
          JB=  1 J=    1 IAn=  6 IBT=12 Dist= 1.38D+00
          JB=  2 J=   10 IAn=  1 IBT= 1 Dist= 9.95D-01
 Read MM parameter file:
 Include all MM classes

 MM sanity checks:
 All charges sum to:               -0.00000100
 Charges of atoms sum to:          -0.00000100
 WARNING -- The following centers have non-zero partial charges, but zero Vanderwaals
 parameters.  These centers can collapse onto other centers with non-zero charge.
   Center  Layer   Charge
     10 H    R    0.213510
 MMInit generated parameter data with length LenPar=        2069.
 MM Charge=             -0.0000 electrons
 MM Dipole moment (Debye):
    X=              1.0196    Y=              1.0285    Z=             -0.3367  Tot=              1.4869
 MM Quadrupole moment (Debye-Ang):
   XX=             -0.6119   YY=              0.0439   ZZ=              1.6328
   XY=              0.7447   XZ=              3.5977   YZ=              0.5312
 MM Traceless Quadrupole moment (Debye-Ang):
   XX=             -0.9668   YY=             -0.3110   ZZ=              1.2779
   XY=              0.7447   XZ=              3.5977   YZ=              0.5312
 MM Octapole moment (Debye-Ang**2):
  XXX=              3.2960  YYY=              0.0816  ZZZ=             -0.9920  XYY=              0.8052
  XXY=              5.2155  XXZ=             -7.1092  XZZ=              2.8822  YZZ=              0.1133
  YYZ=              0.5872  XYZ=             -1.9087
 MM Hexadecapole moment (Debye-Ang**3):
 XXXX=              7.3717 YYYY=              0.4174 ZZZZ=              5.1490 XXXY=              4.0915
 XXXZ=             11.8603 YYYX=             -0.3201 YYYZ=             -0.3037 ZZZX=              5.9350
 ZZZY=              0.8007 XXYY=             -1.6093 XXZZ=              4.1557 YYZZ=              0.9940
 XXYZ=              2.2290 YYXZ=              1.7889 ZZXY=             -1.0819
 Leave Link  101 at Wed Nov 29 12:05:30 2023, MaxMem=   134217728 cpu:               0.3 elap:               0.2
 (Enter /home/emanuele/chem_software/gaussian//gdv/l103.exe)

 GradGradGradGradGradGradGradGradGradGradGradGradGradGradGradGradGradGrad
 Berny optimization.
 Initialization pass.
 No Z-matrix variables, so optimization will use Cartesian coordinates.
 Trust Radius=1.00D-01 FncErr=1.00D-07 GrdErr=1.00D-07 EigMax=2.50D+02 EigMin=1.00D-04
 Number of steps in this run=      2 maximum allowed number of steps=      2.
 GradGradGradGradGradGradGradGradGradGradGradGradGradGradGradGradGradGrad

 Leave Link  103 at Wed Nov 29 12:05:30 2023, MaxMem=   134217728 cpu:               0.0 elap:               0.0
 (Enter /home/emanuele/chem_software/gaussian//gdv/l202.exe)
                          Input orientation:                          
 ---------------------------------------------------------------------
 Center     Atomic      Atomic             Coordinates (Angstroms)
 Number     Number       Type             X           Y           Z
 ---------------------------------------------------------------------
      1          6    20001002       -0.673097   -0.293613    0.310985
      2          8    20001022       -0.825636   -0.021917   -1.032335
      3          6    20001001        0.765885   -0.143715    0.742386
      4          1    20001034        1.077370    0.704995    1.397137
      5          1    20001034        0.721618   -1.053781    1.407371
      6          7    20001020        1.790382   -0.489153   -0.279348
      7          1    20001029        1.387979   -0.201679   -1.181404
      8          1    20001029        2.437356    0.298825   -0.273152
      9          8    20001025       -1.634913   -0.590106    0.975348
     10          1    20001031       -1.764918   -0.133444   -1.342037
 ---------------------------------------------------------------------
                    Distance matrix (angstroms):
                    1          2          3          4          5
     1  C    0.000000
     2  O    1.378983   0.000000
     3  C    1.509717   2.386924   0.000000
     4  H    2.289340   3.170515   1.116257   0.000000
     5  H    1.930064   3.067720   1.128000   1.794424   0.000000
     6  N    2.540759   2.762037   1.487569   2.178297   2.075110
     7  H    2.546313   2.225899   2.022703   2.750892   2.805685
     8  H    3.219801   3.365464   2.005237   2.191894   2.756349
     9  O    1.205975   2.237981   2.453032   3.035074   2.440262
    10  H    1.987513   0.995291   3.278702   4.035425   3.819571
                    6          7          8          9         10
     6  N    0.000000
     7  H    1.028725   0.000000
     8  H    1.019570   1.475337   0.000000
     9  O    3.649260   3.733675   4.351129   0.000000
    10  H    3.727733   3.157724   4.357577   2.365526   0.000000
 Symmetry turned off by external request.
 Stoichiometry    C2H5NO2
 Framework group  C1[X(C2H5NO2)]
 Deg. of freedom    24
 Full point group                 C1      NOp   1
 Rotational constants (GHZ):           9.8584380           3.9330562           2.9487539
 Leave Link  202 at Wed Nov 29 12:05:30 2023, MaxMem=   134217728 cpu:               0.0 elap:               0.0
 (Enter /home/emanuele/chem_software/gaussian//gdv/l301.exe)
 Standard basis: Dummy (5D, 7F)
    10 basis functions,    10 primitive gaussians,    10 cartesian basis functions
     7 alpha electrons        7 beta electrons
       nuclear repulsion energy        22.7252640962 Hartrees.
 IExCor=       0 DFT=F Ex=HF Corr=None N6=None ScaHFX=  1.000000
 ScaDFX=  1.000000  1.000000  1.000000  1.000000  1.000000  0.000000
 ScaDFX=  0.000000  0.000000  0.000000  0.000000  0.000000  0.000000
 IRadAn=      5 IRanWt=     -1 IRanGd=            0 ICorTp=0 IEmpDi=  4
 NAtoms=   10 NActive=   10 NUniq=   10 SFac= 1.00D+00 NAtFMM=   60 NAOKFM=F Big=F
 Integral buffers will be    131072 words long.
 Raffenetti 1 integral format.
 Two-electron integral symmetry is turned off.
 Leave Link  301 at Wed Nov 29 12:05:30 2023, MaxMem=   134217728 cpu:               0.0 elap:               0.0
 (Enter /home/emanuele/chem_software/gaussian//gdv/l402.exe)
 AMBER calculation of energy and first derivatives.
 NRF= 0 NRA=   0 NVA=  10 HaveQM=F NVQ=       0
 Convergence limit is  0.750E-04 MaxStp= 10000 StMxLn= 3.00D-04 StpMin= 1.00D-06.
 Convergence criteria             0.00011250 0.00007500 0.00045000 0.00030000
  Step  NS  ND Rises OKQ   Scale  Max. Force  RMS Force Max. Disp.  RMS Disp.     Energy   Flag
     1   0   0   F    T  1.00D+00 0.06763994 0.02352784 0.06763994 0.02352784    0.0734746 ----
     2   0   0   F    F  6.17D-01 0.06763994 0.02352784 0.04176021 0.01452585    0.0621288 ----
     3   0   0   F    T  2.59D+00 0.02837037 0.01286795 0.08465503 0.03805369    0.0602326 ----
     4   0   0   F    F  7.85D-01 0.02837037 0.01286795 0.06644504 0.02986803    0.0508415 ----
     5   0   0   F    F -9.42D-03 0.02837037 0.01286795 0.00062561 0.00028122    0.0485542 ---+
     6   0   0   F    T  3.69D+00 0.03621683 0.01187675 0.12986184 0.06764050    0.0485540 ----
     7   0   0   T    F  2.90D-01 0.03621683 0.01187675 0.03762450 0.01959729    0.0601211 ----
     8   0   0   F    T  2.12D+00 0.01665690 0.00700445 0.04950862 0.01959729    0.0462848 ----
     9   0   0   F    F -4.42D-01 0.01665690 0.00700445 0.02187960 0.00866073    0.0459601 ----
    10   0   0   F    T  1.43D+00 0.01148982 0.00538479 0.03502475 0.01093656    0.0454160 ----
    11   0   0   F    F  1.28D+00 0.01148982 0.00538479 0.04474654 0.01397221    0.0444459 ----
    12   0   0   F    T  2.27D+00 0.01240494 0.00590894 0.08500004 0.02490877    0.0439981 ----
    13   0   0   F    F  4.45D-01 0.01240494 0.00590894 0.03782029 0.01108302    0.0424269 ----
    14   0   0   F    T  4.14D+00 0.01228181 0.00495310 0.10306204 0.03599179    0.0422590 ----
    15   0   0   T    F  4.51D-01 0.01228181 0.00495310 0.04649825 0.01623833    0.0425581 ----
    16   0   0   F    T  2.23D+00 0.01176603 0.00410877 0.04316510 0.01623833    0.0415761 ----
    17   0   0   F    F  1.26D+00 0.01176603 0.00410877 0.05459516 0.02053822    0.0406926 ----
    18   0   0   F    F -1.02D-02 0.01176603 0.00410877 0.00055918 0.00021036    0.0402899 ---+
    19   0   0   F    T  3.75D+00 0.01210175 0.00436467 0.10135738 0.03656619    0.0402899 ----
    20   0   0   F    F -4.75D-01 0.01210175 0.00436467 0.04813057 0.01736382    0.0401822 ----
    21   0   0   F    T  1.93D+00 0.01151429 0.00419970 0.05265570 0.01920236    0.0397296 ----
    22   0   0   F    F -2.20D-01 0.01151429 0.00419970 0.01158428 0.00422453    0.0393629 ----
    23   0   0   F    T  1.26D+00 0.01163105 0.00441252 0.03920121 0.01497783    0.0393309 ----
    24   0   0   F    F  1.12D+00 0.01163105 0.00441252 0.04391898 0.01678038    0.0387642 ----
    25   0   0   F    F -1.52D-02 0.01163105 0.00441252 0.00066818 0.00025530    0.0385448 ---+
    26   0   0   F    T  1.21D+01 0.00417994 0.00197970 0.06307114 0.03150292    0.0385447 ----
    27   0   0   T    F  2.41D-01 0.00417994 0.00197970 0.01518396 0.00758412    0.0400879 ----
    28   0   0   F    T  2.11D+00 0.00537077 0.00209601 0.01782529 0.00758412    0.0383738 ----
    29   0   0   F    F -7.28D-02 0.00537077 0.00209601 0.00129793 0.00055223    0.0382461 ----
    30   0   0   F    T  1.48D+00 0.00602545 0.00225706 0.01737853 0.00703189    0.0382453 ----
    31   0   0   F    T  2.02D+00 0.00343933 0.00178104 0.01704900 0.00703189    0.0381326 ----
    32   0   0   F    F -1.89D-01 0.00343933 0.00178104 0.00322812 0.00133144    0.0380589 ----
    33   0   0   F    T  2.62D+00 0.00305055 0.00128666 0.01431914 0.00570044    0.0380546 ----
    34   0   0   F    F  1.70D+00 0.00305055 0.00128666 0.02434856 0.00969315    0.0379491 ----
    35   0   0   F    T  4.35D+00 0.00345708 0.00157065 0.04135687 0.01539360    0.0378807 ----
    36   0   0   T    F  3.94D-01 0.00345708 0.00157065 0.01631026 0.00607090    0.0379638 ----
    37   0   0   F    T  1.58D+00 0.00406683 0.00155151 0.01630042 0.00607090    0.0378176 ----
    38   0   0   F    F -9.55D-02 0.00406683 0.00155151 0.00155621 0.00057959    0.0377665 ----
    39   0   0   F    T  1.91D+00 0.00300629 0.00127037 0.01474928 0.00549131    0.0377659 ----
    40   0   0   F    F  9.35D-02 0.00300629 0.00127037 0.00137927 0.00051352    0.0377157 ----
    41   0   0   F    T  2.62D+00 0.00245959 0.00107611 0.01448462 0.00600483    0.0377153 ----
    42   0   0   F    F -2.49D-02 0.00245959 0.00107611 0.00036012 0.00014929    0.0376709 --++
    43   0   0   F    T  2.44D+00 0.00291011 0.00104983 0.01576209 0.00585553    0.0376709 ----
    44   0   0   F    F  3.19D-01 0.00291011 0.00104983 0.00502341 0.00186617    0.0376210 ----
    45   0   0   F    T  1.80D+00 0.00305241 0.00135989 0.02136423 0.00772171    0.0376180 ----
    46   0   0   F    F -5.71D-02 0.00305241 0.00135989 0.00121954 0.00044078    0.0375713 ----
    47   0   0   F    T  1.26D+00 0.00400717 0.00153470 0.02271154 0.00728092    0.0375712 ----
    48   0   0   F    F  6.96D-01 0.00400717 0.00153470 0.01580293 0.00506614    0.0375077 ----
    49   0   0   F    T  3.00D+00 0.00333869 0.00125458 0.04138493 0.01234707    0.0374947 ----
    50   0   0   F    F  1.31D+00 0.00333869 0.00125458 0.05425179 0.01618585    0.0373822 ----
    51   0   0   F    F -1.80D-02 0.00333869 0.00125458 0.00097811 0.00029182    0.0373281 ---+
    52   0   0   F    T  1.46D+00 0.00647830 0.00275908 0.09395203 0.02824111    0.0373280 ----
    53   0   0   F    F  1.71D+00 0.00647830 0.00275908 0.16076699 0.04832506    0.0370779 ----
    54   0   0   F    F -2.90D-01 0.00647830 0.00275908 0.04662423 0.01401481    0.0369876 ----
    55   0   0   F    F -2.42D-02 0.00647830 0.00275908 0.00112606 0.00033848    0.0369677 ----
    56   0   0   F    T  5.16D+00 0.00638359 0.00253508 0.20313816 0.06288984    0.0369677 ----
    57   0   0   F    F -4.67D-01 0.00638359 0.00253508 0.09479829 0.02934874    0.0369433 ----
    58   0   0   F    T  1.13D+00 0.01010708 0.00403768 0.10218390 0.03354110    0.0366918 ----
    59   0   0   F    F  5.58D+00 0.01010708 0.00403768 0.56982257 0.18703998    0.0362703 ----
    60   0   0   T    F  3.90D-01 0.01010708 0.00403768 0.22248866 0.07303023    0.0389356 ----
    61   0   0   F    F -8.64D-02 0.01010708 0.00403768 0.01922752 0.00631129    0.0359426 ----
    62   0   0   F    F -1.52D-01 0.01010708 0.00403768 0.00291584 0.00095710    0.0359398 ----
    63   0   0   F    T  5.52D+00 0.00792842 0.00393279 0.29638766 0.10121714    0.0359398 ----
    64   0   0   T    F  3.69D-01 0.00792842 0.00393279 0.10923591 0.03730434    0.0370923 ----
    65   0   0   F    F -1.54D-02 0.00792842 0.00393279 0.00168191 0.00057438    0.0354735 ----
    66   0   0   F    T  3.55D+00 0.00834983 0.00277670 0.10003086 0.03672997    0.0354734 ----
    67   0   0   F    F -4.35D-01 0.00834983 0.00277670 0.04354613 0.01598954    0.0353784 ----
    68   0   0   F    T  2.41D+00 0.00812190 0.00246187 0.04916507 0.02074043    0.0352423 ----
    69   0   0   F    F  2.20D-01 0.00812190 0.00246187 0.01082885 0.00456818    0.0349854 ----
    70   0   0   F    T  2.75D+00 0.00713584 0.00243527 0.06697920 0.02530860    0.0349769 ----
    71   0   0   T    F  4.24D-01 0.00713584 0.00243527 0.02842346 0.01074002    0.0350694 ----
    72   0   0   F    T  1.65D+00 0.00412077 0.00203495 0.02244651 0.01074002    0.0348725 ----
    73   0   0   F    F  6.28D-01 0.00412077 0.00203495 0.01409893 0.00674594    0.0347318 ----
    74   0   0   F    T  1.65D+00 0.00680975 0.00254965 0.03627365 0.01748596    0.0347076 ----
    75   0   0   F    F  9.95D-01 0.00680975 0.00254965 0.03610153 0.01740300    0.0344638 ----
    76   0   0   F    F -1.75D-02 0.00680975 0.00254965 0.00063292 0.00030510    0.0343824 ----
    77   0   0   F    T  3.32D+00 0.00577337 0.00248547 0.07628475 0.03458385    0.0343824 ----
    78   0   0   T    F  4.44D-01 0.00577337 0.00248547 0.03387918 0.01535920    0.0344735 ----
    79   0   0   F    T  5.38D+00 0.00310083 0.00138956 0.04237815 0.01535920    0.0342442 ----
    80   0   0   F    F -4.99D-01 0.00310083 0.00138956 0.02113631 0.00766048    0.0342418 ----
    81   0   0   F    T  2.68D+00 0.00288686 0.00130755 0.01947785 0.00769872    0.0341666 ----
    82   0   0   T    F  4.82D-01 0.00288686 0.00130755 0.00937918 0.00370717    0.0341717 ----
    83   0   0   F    T  2.03D+00 0.00213931 0.00095196 0.00982535 0.00370717    0.0341336 ----
    84   0   0   F    F -2.19D-01 0.00213931 0.00095196 0.00214786 0.00081040    0.0341137 ----
    85   0   0   F    T  1.53D+00 0.00214430 0.00090714 0.00641871 0.00289677    0.0341120 ----
    86   0   0   F    F  3.12D-01 0.00214430 0.00090714 0.00200535 0.00090502    0.0340886 ----
    87   0   0   F    T  2.96D+00 0.00173584 0.00068736 0.00862938 0.00380179    0.0340872 ----
    88   0   0   F    F  1.24D-01 0.00173584 0.00068736 0.00106813 0.00047058    0.0340638 ----
    89   0   0   F    T  3.27D+00 0.00180219 0.00064996 0.01200817 0.00427237    0.0340635 ----
    90   0   0   F    F -4.61D-01 0.00180219 0.00064996 0.00553563 0.00196951    0.0340605 ----
    91   0   0   F    T  2.01D+00 0.00169336 0.00056672 0.00625551 0.00230285    0.0340524 ----
    92   0   0   F    T  1.23D+00 0.00163602 0.00069412 0.00692943 0.00230285    0.0340429 ----
    93   0   0   F    F  5.16D-01 0.00163602 0.00069412 0.00357516 0.00118813    0.0340314 ----
    94   0   0   F    T  2.17D+00 0.00145801 0.00064191 0.00935910 0.00349098    0.0340299 ----
    95   0   0   F    F  2.93D-01 0.00145801 0.00064191 0.00273983 0.00102197    0.0340135 ----
    96   0   0   F    T  2.54D+00 0.00123566 0.00063488 0.01071667 0.00451295    0.0340126 ----
    97   0   0   F    F  2.67D-01 0.00123566 0.00063488 0.00286621 0.00120700    0.0339938 ----
    98   0   0   F    T  1.69D+00 0.00220491 0.00086894 0.01420948 0.00571995    0.0339929 ----
    99   0   0   F    F  1.60D-01 0.00220491 0.00086894 0.00227589 0.00091615    0.0339715 ----
   100   0   0   F    T  1.58D+00 0.00209334 0.00095643 0.01582634 0.00663610    0.0339711 ----
   101   0   0   F    F -1.23D-01 0.00209334 0.00095643 0.00194229 0.00081442    0.0339523 ----
   102   0   0   F    T  3.28D+00 0.00136475 0.00059631 0.01615352 0.00582168    0.0339519 ----
   103   0   0   F    F -3.97D-01 0.00136475 0.00059631 0.00641020 0.00231022    0.0339459 ----
   104   0   0   F    T  2.04D+00 0.00143040 0.00057173 0.01020134 0.00351146    0.0339414 ----
   105   0   0   F    F  2.18D+00 0.00143040 0.00057173 0.02225667 0.00766111    0.0339245 ----
   106   0   0   F    T  3.71D+00 0.00209661 0.00073934 0.03173329 0.01117257    0.0339094 ----
   107   0   0   T    F  4.62D-01 0.00209661 0.00073934 0.01464886 0.00515753    0.0339142 ----
   108   0   0   F    T  2.30D+00 0.00167565 0.00062561 0.01332805 0.00515753    0.0338954 ----
   109   0   0   F    F  7.20D-01 0.00167565 0.00062561 0.00960080 0.00371520    0.0338761 ----
   110   0   0   F    T  2.55D+00 0.00191646 0.00077236 0.02352221 0.00887273    0.0338719 ----
   111   0   0   F    F -4.14D-01 0.00191646 0.00077236 0.00972783 0.00366940    0.0338651 ----
   112   0   0   F    T  1.72D+00 0.00210197 0.00070521 0.01328764 0.00520333    0.0338586 ----
   113   0   0   F    F -1.31D-01 0.00210197 0.00070521 0.00174607 0.00068375    0.0338477 ----
   114   0   0   F    T  2.94D+00 0.00105425 0.00048961 0.01286165 0.00451958    0.0338474 ----
   115   0   0   F    F -8.49D-02 0.00105425 0.00048961 0.00109192 0.00038370    0.0338379 ----
   116   0   0   F    T  2.05D+00 0.00132903 0.00055146 0.01181144 0.00413588    0.0338378 ----
   117   0   0   F    F  2.35D-01 0.00132903 0.00055146 0.00278133 0.00097391    0.0338266 ----
   118   0   0   F    T  3.03D+00 0.00131469 0.00048990 0.01458050 0.00510979    0.0338262 ----
   119   0   0   F    F -2.10D-01 0.00131469 0.00048990 0.00306222 0.00107317    0.0338182 ----
   120   0   0   F    T  2.58D+00 0.00122333 0.00045808 0.01004368 0.00403662    0.0338176 ----
   121   0   0   F    F -4.43D-01 0.00122333 0.00045808 0.00445413 0.00179014    0.0338160 ----
   122   0   0   F    T  1.56D+00 0.00114734 0.00043036 0.00538358 0.00224648    0.0338131 ----
   123   0   0   F    F  1.76D-01 0.00114734 0.00043036 0.00094502 0.00039434    0.0338081 ----
   124   0   0   F    T  3.14D+00 0.00065411 0.00031840 0.00564455 0.00264082    0.0338080 ----
   125   0   0   F    F -3.70D-01 0.00065411 0.00031840 0.00208859 0.00097715    0.0338060 ----
   126   0   0   F    T  1.97D+00 0.00077201 0.00030888 0.00388779 0.00166366    0.0338050 ----
   127   0   0   F    F  1.21D+00 0.00077201 0.00030888 0.00472095 0.00202019    0.0338006 ----
   128   0   0   F    T  2.54D+00 0.00104216 0.00039773 0.00887437 0.00368385    0.0337987 ----
   129   0   0   F    F  3.63D-01 0.00104216 0.00039773 0.00322230 0.00133761    0.0337911 ----
   130   0   0   F    T  2.00D+00 0.00133043 0.00051612 0.01235900 0.00502147    0.0337905 ----
   131   0   0   F    F -3.29D-01 0.00133043 0.00051612 0.00406872 0.00165312    0.0337865 ----
   132   0   0   F    T  2.25D+00 0.00090956 0.00038993 0.00868629 0.00336835    0.0337852 ----
   133   0   0   F    F -1.86D-01 0.00090956 0.00038993 0.00161349 0.00062567    0.0337812 ----
   134   0   0   F    T  1.58D+00 0.00117000 0.00041400 0.00696894 0.00274267    0.0337810 ----
   135   0   0   F    F  5.31D-01 0.00117000 0.00041400 0.00370200 0.00145695    0.0337755 ----
   136   0   0   F    T  6.57D+00 0.00060459 0.00024223 0.01042319 0.00419962    0.0337748 ----
   137   0   0   T    F  3.01D-01 0.00060459 0.00024223 0.00313276 0.00126222    0.0337825 ----
   138   0   0   F    T  2.24D+00 0.00035745 0.00021879 0.00296848 0.00126222    0.0337731 ----
   139   0   0   F    F  1.14D+00 0.00035745 0.00021879 0.00337855 0.00143659    0.0337706 ----
   140   0   0   F    T  1.85D+00 0.00068803 0.00034758 0.00605428 0.00269881    0.0337696 ----
   141   0   0   F    F  3.33D-01 0.00068803 0.00034758 0.00201746 0.00089932    0.0337655 ----
   142   0   0   F    T  2.40D+00 0.00093159 0.00034503 0.00827571 0.00359813    0.0337652 ----
   143   0   0   F    F -3.80D-01 0.00093159 0.00034503 0.00314064 0.00136549    0.0337635 ----
   144   0   0   F    T  1.46D+00 0.00087118 0.00034100 0.00496188 0.00223264    0.0337625 ----
   145   0   0   F    F  5.99D-01 0.00087118 0.00034100 0.00297121 0.00133692    0.0337590 ----
   146   0   0   F    T  2.02D+00 0.00118999 0.00036076 0.00798389 0.00356956    0.0337584 ----
   147   0   0   F    F  6.56D-01 0.00118999 0.00036076 0.00523391 0.00234006    0.0337529 ----
   148   0   0   F    T  2.88D+00 0.00092865 0.00038564 0.01318835 0.00590961    0.0337519 ----
   149   0   0   F    F -3.18D-01 0.00092865 0.00038564 0.00419290 0.00187881    0.0337485 ----
   150   0   0   F    T  3.21D+00 0.00064749 0.00030214 0.00893778 0.00403080    0.0337475 ----
   151   0   0   F    F  2.09D-01 0.00064749 0.00030214 0.00186879 0.00084279    0.0337424 ----
   152   0   0   F    T  3.27D+00 0.00079061 0.00032748 0.01027741 0.00487360    0.0337422 ----
   153   0   0   T    F  4.67D-01 0.00079061 0.00032748 0.00480368 0.00227793    0.0337429 ----
   154   0   0   F    T  1.94D+00 0.00082642 0.00028183 0.00422003 0.00227793    0.0337398 ----
   155   0   0   F    F -2.32D-01 0.00082642 0.00028183 0.00097935 0.00052864    0.0337382 ----
   156   0   0   F    T  2.05D+00 0.00050898 0.00023479 0.00341621 0.00174929    0.0337380 ----
   157   0   0   F    F -1.53D-01 0.00050898 0.00023479 0.00052388 0.00026825    0.0337366 ---+
   158   0   0   F    T  2.62D+00 0.00053711 0.00018702 0.00291955 0.00148103    0.0337366 ----
   159   0   0   F    T  3.46D+00 0.00045825 0.00015449 0.00311050 0.00148103    0.0337352 ----
   160   0   0   F    F -2.08D-01 0.00045825 0.00015449 0.00064657 0.00030786    0.0337343 ----
   161   0   0   F    T  2.44D+00 0.00043983 0.00016363 0.00266049 0.00117317    0.0337343 ----
   162   0   0   F    F -2.95D-01 0.00043983 0.00016363 0.00078616 0.00034667    0.0337337 ----
   163   0   0   F    T  1.19D+00 0.00045198 0.00019109 0.00194973 0.00082651    0.0337336 ----
   164   0   0   F    F  9.15D-01 0.00045198 0.00019109 0.00178393 0.00075622    0.0337326 ----
   165   0   0   F    T  2.68D+00 0.00045276 0.00017273 0.00380696 0.00158273    0.0337323 ----
   166   0   0   F    F -3.29D-01 0.00045276 0.00017273 0.00125106 0.00052013    0.0337317 ----
   167   0   0   F    T  2.21D+00 0.00039962 0.00015158 0.00261983 0.00106261    0.0337315 ----
   168   0   0   F    F  1.20D+00 0.00039962 0.00015158 0.00314291 0.00127477    0.0337304 ----
   169   0   0   F    T  3.87D+00 0.00046612 0.00016524 0.00539228 0.00233738    0.0337299 ----
   170   0   0   T    F  3.83D-01 0.00046612 0.00016524 0.00206488 0.00089506    0.0337308 ----
   171   0   0   F    T  2.44D+00 0.00035622 0.00012476 0.00189099 0.00089506    0.0337293 ----
   172   0   0   T    F  4.05D-01 0.00035622 0.00012476 0.00076520 0.00036219    0.0337295 ----
   173   0   0   F    T  2.96D+00 0.00013412 0.00006632 0.00079223 0.00036219    0.0337290 -+--
   174   0   0   F    T  1.01D+00 0.00022051 0.00010333 0.00078378 0.00036219    0.0337289 ----
   175   0   0   F    T  1.76D+00 0.00038736 0.00013338 0.00073891 0.00036219    0.0337289 ----
   176   0   0   F    T  1.39D+00 0.00034960 0.00012033 0.00085378 0.00036219    0.0337287 ----
   177   0   0   T    F  3.67D-01 0.00034960 0.00012033 0.00031371 0.00013308    0.0337287 --++
   178   0   0   F    T  1.06D+00 0.00034136 0.00012312 0.00036733 0.00013308    0.0337286 --++
   179   0   0   F    T  1.87D+00 0.00016332 0.00006374 0.00025845 0.00013308    0.0337284 -+++
   180   0   0   F    T  1.00D+00 0.00027084 0.00009581 0.00042159 0.00016711    0.0337284 --++
   181   0   0   F    T  1.29D+00 0.00036459 0.00011632 0.00046270 0.00016711    0.0337284 ---+
   182   0   0   F    T  1.00D+00 0.00042796 0.00012466 0.00047215 0.00019953    0.0337283 ---+
   183   0   0   T    F  5.00D-01 0.00042796 0.00012466 0.00023608 0.00009977    0.0337285 --++
   184   0   0   T    F  5.00D-01 0.00042796 0.00012466 0.00011804 0.00004988    0.0337284 --++
   185   0   0   T    F  5.00D-01 0.00042796 0.00012466 0.00005902 0.00002494    0.0337283 --++
   186   0   0   T    F  5.00D-01 0.00042796 0.00012466 0.00002951 0.00001247    0.0337283 --++
   187   0   0   T    F  5.00D-01 0.00042796 0.00012466 0.00001475 0.00000624    0.0337283 --++
   188   0   0   T    F  5.00D-01 0.00042796 0.00012466 0.00000738 0.00000312    0.0337283 --++
   189   0   0   T    F  5.00D-01 0.00042796 0.00012466 0.00000369 0.00000156    0.0337283 --++
   190   0   0   T    F  5.00D-01 0.00042796 0.00012466 0.00000184 0.00000078    0.0337283 --++
   191   0   0   T    F  5.00D-01 0.00042796 0.00012466 0.00000092 0.00000039    0.0337283 --++
   192   0   0   T    T  1.00D+00 0.00042854 0.00012479 0.00042484 0.00012475    0.0337283 --++
   193   0   0   F    T  1.08D+00 0.00039991 0.00011034 0.00027192 0.00012475    0.0337282 --++
   194   0   0   T    F  5.00D-01 0.00039991 0.00011034 0.00013596 0.00006238    0.0337286 --++
   195   0   0   T    F  5.00D-01 0.00039991 0.00011034 0.00006798 0.00003119    0.0337284 --++
   196   0   0   T    F  5.00D-01 0.00039991 0.00011034 0.00003399 0.00001559    0.0337283 --++
   197   0   0   T    F  5.00D-01 0.00039991 0.00011034 0.00001700 0.00000780    0.0337283 --++
   198   0   0   T    F  5.00D-01 0.00039991 0.00011034 0.00000850 0.00000390    0.0337283 --++
   199   0   0   T    F  5.00D-01 0.00039991 0.00011034 0.00000425 0.00000195    0.0337282 --++
   200   0   0   T    F  5.00D-01 0.00039991 0.00011034 0.00000212 0.00000097    0.0337282 --++
   201   0   0   T    F  5.00D-01 0.00039991 0.00011034 0.00000106 0.00000049    0.0337282 --++
   202   0   0   T    F  5.00D-01 0.00039991 0.00011034 0.00000053 0.00000024    0.0337282 --++
   203   0   0   T    T  1.00D+00 0.00040097 0.00011061 0.00030111 0.00010068    0.0337282 --++
   204   0   0   F    T  1.98D+00 0.00016315 0.00005823 0.00026304 0.00010068    0.0337281 -+++
   205   0   0   T    T  1.00D+00 0.00048878 0.00013600 0.00048878 0.00013600    0.0337282 ---+
   206   0   0   T    T  1.00D+00 0.00077834 0.00021294 0.00084695 0.00023146    0.0337285 ---+
   207   0   0   T    F  5.00D-01 0.00077834 0.00021294 0.00042347 0.00011573    0.0337299 --++
   208   0   0   T    F  5.00D-01 0.00077834 0.00021294 0.00021174 0.00005787    0.0337286 --++
   209   0   0   T    F  5.00D-01 0.00077834 0.00021294 0.00010587 0.00002893    0.0337283 --++
   210   0   0   T    F  5.00D-01 0.00077834 0.00021294 0.00005293 0.00001447    0.0337282 --++
   211   0   0   T    F  5.00D-01 0.00077834 0.00021294 0.00002647 0.00000723    0.0337282 --++
   212   0   0   T    F  5.00D-01 0.00077834 0.00021294 0.00001323 0.00000362    0.0337281 --++
   213   0   0   T    F  5.00D-01 0.00077834 0.00021294 0.00000662 0.00000181    0.0337281 --++
   214   0   0   T    F  5.00D-01 0.00077834 0.00021294 0.00000331 0.00000090    0.0337281 --++
   215   0   0   T    F  5.00D-01 0.00077834 0.00021294 0.00000165 0.00000045    0.0337281 --++
   216   0   0   T    F  5.00D-01 0.00077834 0.00021294 0.00000083 0.00000023    0.0337281 --++
   217   0   0   T    T  1.00D+00 0.00016472 0.00005855 0.00009744 0.00004405    0.0337281 -+++
   218   0   0   F    T  1.20D+00 0.00009280 0.00003684 0.00011016 0.00004405    0.0337281 ====
 ****************************
 MOLECULAR MECHANICS FUNCTION
 ****************************
 Atomic parameters:
 Center  VDW
      1 1.9080 0.0860000
      2 1.7210 0.2104000
      3 1.9080 0.1094000
      4 1.4870 0.0157000
      5 1.4870 0.0157000
      6 1.8750 0.1700000
      7 0.6000 0.0157000
      8 0.6000 0.0157000
      9 1.6612 0.2100000
     10 0.0000 0.0000000
 Molecular mechanics terms:
 NBDir 3 1      0      0
 HrmStr1  1- 2  431.53 1.3510
 HrmStr1  1- 3  294.15 1.5090
 HrmStr1  1- 9  946.08 1.2030
 HrmStr1  2-10  566.76 0.9680
 HrmStr1  3- 4  358.05 1.0960
 HrmStr1  3- 5  358.05 1.0960
 HrmStr1  3- 6  380.82 1.4520
 HrmStr1  6- 7  506.01 1.0110
 HrmStr1  6- 8  506.01 1.0110
 HrmBnd1  1- 2-10  56.55 107.23
 HrmBnd1  1- 3- 4  46.41 106.89
 HrmBnd1  1- 3- 5  46.41 106.89
 HrmBnd1  1- 3- 6  59.93 110.61
 HrmBnd1  2- 1- 3  67.92 111.72
 HrmBnd1  2- 1- 9  91.40 123.02
 HrmBnd1  3- 1- 9  62.83 125.24
 HrmBnd1  3- 6- 7  52.60 110.71
 HrmBnd1  3- 6- 8  52.60 110.71
 HrmBnd1  4- 3- 5  44.68 106.22
 HrmBnd1  4- 3- 6  52.45 112.94
 HrmBnd1  5- 3- 6  52.45 112.94
 HrmBnd1  7- 6- 8  47.09 108.63
 AmbTrs  3- 1- 2-10   0 180   0   0  0.0000 14.5000  0.0000  0.0000  2.0
 AmbTrs  9- 1- 2-10   0   0   0   0  0.0000  0.0000  0.0000  0.0000  2.0
 AmbTrs  2- 1- 3- 4   0   0   0   0  0.0000 14.5000  0.0000  0.0000  6.0
 AmbTrs  2- 1- 3- 5   0   0   0   0  0.0000 14.5000  0.0000  0.0000  6.0
 AmbTrs  2- 1- 3- 6   0   0   0   0  0.0000 14.5000  0.0000  0.0000  6.0
 AmbTrs  9- 1- 3- 4   0   0   0   0  0.0000 14.5000  0.0000  0.0000  6.0
 AmbTrs  9- 1- 3- 5   0   0   0   0  0.0000 14.5000  0.0000  0.0000  6.0
 AmbTrs  9- 1- 3- 6   0   0   0   0  0.0000 14.5000  0.0000  0.0000  6.0
 AmbTrs  1- 3- 6- 7   0 180   0   0  0.0000 25.6300  0.0000  0.0000  6.0
 AmbTrs  1- 3- 6- 8   0 180   0   0  0.0000 25.6300  0.0000  0.0000  6.0
 AmbTrs  4- 3- 6- 7   0   0   0   0  0.0000 16.9300  0.0000  0.0000  6.0
 AmbTrs  4- 3- 6- 8   0   0   0   0  0.0000 16.9300  0.0000  0.0000  6.0
 AmbTrs  5- 3- 6- 7   0   0   0   0  0.0000 16.9300  0.0000  0.0000  6.0
 AmbTrs  5- 3- 6- 8   0   0   0   0  0.0000 16.9300  0.0000  0.0000  6.0
 NBPair  2- 1 3 1      0      0 -1.000 -1.000
 NBPair  3- 2 3 1      0      0 -1.000 -1.000
 NBPair 10- 3 3 1      0      0 -0.500 -0.167
 NBPair  9- 2 3 1      0      0 -1.000 -1.000
 NBPair 10- 9 3 1      0      0 -0.500 -0.167
 NBPair  3- 1 3 1      0      0 -1.000 -1.000
 NBPair  4- 2 3 1      0      0 -0.500 -0.167
 NBPair  5- 2 3 1      0      0 -0.500 -0.167
 NBPair  6- 2 3 1      0      0 -0.500 -0.167
 NBPair  9- 3 3 1      0      0 -1.000 -1.000
 NBPair  9- 4 3 1      0      0 -0.500 -0.167
 NBPair  9- 5 3 1      0      0 -0.500 -0.167
 NBPair  9- 6 3 1      0      0 -0.500 -0.167
 NBPair  9- 1 3 1      0      0 -1.000 -1.000
 NBPair 10- 1 3 1      0      0 -1.000 -1.000
 NBPair 10- 2 3 1      0      0 -1.000 -1.000
 NBPair  4- 1 3 1      0      0 -1.000 -1.000
 NBPair  5- 1 3 1      0      0 -1.000 -1.000
 NBPair  6- 1 3 1      0      0 -1.000 -1.000
 NBPair  4- 3 3 1      0      0 -1.000 -1.000
 NBPair  5- 4 3 1      0      0 -1.000 -1.000
 NBPair  6- 4 3 1      0      0 -1.000 -1.000
 NBPair  5- 3 3 1      0      0 -1.000 -1.000
 NBPair  6- 5 3 1      0      0 -1.000 -1.000
 NBPair  6- 3 3 1      0      0 -1.000 -1.000
 NBPair  7- 1 3 1      0      0 -0.500 -0.167
 NBPair  8- 1 3 1      0      0 -0.500 -0.167
 NBPair  7- 4 3 1      0      0 -0.500 -0.167
 NBPair  8- 4 3 1      0      0 -0.500 -0.167
 NBPair  7- 5 3 1      0      0 -0.500 -0.167
 NBPair  8- 5 3 1      0      0 -0.500 -0.167
 NBPair  7- 3 3 1      0      0 -1.000 -1.000
 NBPair  8- 3 3 1      0      0 -1.000 -1.000
 NBPair  7- 6 3 1      0      0 -1.000 -1.000
 NBPair  8- 7 3 1      0      0 -1.000 -1.000
 NBPair  8- 6 3 1      0      0 -1.000 -1.000
 Energy per function type:
 Direct Coulomb + vdW (small)                           0.001970511
 Direct Coulomb (large)                                -0.132419078
 Direct vdW (large)                                   270.352840293
 Non-direct Coulomb + vdW (small)                      -0.011330873
 Non-direct Coulomb (large)                             0.138456248
 Non-direct vdW (large)                              -270.352840293
 Harmonic stretch I                                     0.000072933
 Harmonic bend I                                        0.008404890
 Amber torsion                                          0.028573475
 Energy per function class:
        Coulomb              -0.004198252
    Vanderwaals               0.000875059
     Stretching               0.000072933
        Bending               0.008404890
        Torsion               0.028573475
 Energy=    3.372810536E-02 NIter=   0.
 Dipole moment=       0.326625       0.449933       0.082444
 Leave Link  402 at Wed Nov 29 12:05:31 2023, MaxMem=   134217728 cpu:               0.4 elap:               0.4
 (Enter /home/emanuele/chem_software/gaussian//gdv/l716.exe)
 Dipole        = 3.26624824D-01 4.49932955D-01 8.24435887D-02
 -------------------------------------------------------------------
 Center     Atomic                   Forces (Hartrees/Bohr)
 Number     Number              X              Y              Z
 -------------------------------------------------------------------
      1        6          -0.000028197   -0.000092800    0.000047811
      2        8          -0.000032110    0.000005586   -0.000031815
      3        6          -0.000026320    0.000035203    0.000020892
      4        1          -0.000017903   -0.000003116    0.000012943
      5        1           0.000013022   -0.000007326   -0.000032539
      6        7           0.000054432    0.000041671   -0.000053817
      7        1           0.000016069   -0.000067382    0.000023396
      8        1          -0.000011647   -0.000006507    0.000021491
      9        8           0.000037726    0.000064844   -0.000040531
     10        1          -0.000005072    0.000029829    0.000032168
 -------------------------------------------------------------------
 Cartesian Forces:  Max     0.000092800 RMS     0.000036841
 Z-matrix is all fixed cartesians, so copy forces.
 Leave Link  716 at Wed Nov 29 12:05:31 2023, MaxMem=   134217728 cpu:               0.0 elap:               0.0
 (Enter /home/emanuele/chem_software/gaussian//gdv/l103.exe)

 GradGradGradGradGradGradGradGradGradGradGradGradGradGradGradGradGradGrad
 Berny optimization.
 Search for a local minimum.
 Step number   1 out of a maximum of    2
 All quantities printed in internal units (Hartrees-Bohrs-Radians)
 RMS Force = .36841D-04 SwitMx=.10000D-02 MixMth= 2
 Mixed Optimization -- En-DIIS/RFO-DIIS
 Second derivative matrix not updated -- unit matrix used.
 ITU=  0
 RFO step:  Lambda=-4.07179954D-08 EMin= 1.00000000D+00
 Linear search not attempted -- first point.
 Variable       Old X    -DE/DX   Delta X   Delta X   Delta X     New X
                                 (Linear)    (Quad)   (Total)
    X1       -1.17866  -0.00003   0.00000  -0.00003  -0.00003  -1.17869
    Y1       -0.76290  -0.00009   0.00000  -0.00009  -0.00009  -0.76299
    Z1        0.28397   0.00005   0.00000   0.00005   0.00005   0.28401
    X2       -2.16874  -0.00003   0.00000  -0.00003  -0.00003  -2.16877
    Y2        1.04312   0.00001   0.00000   0.00001   0.00001   1.04313
    Z2       -1.21725  -0.00003   0.00000  -0.00003  -0.00003  -1.21728
    X3        1.41060  -0.00003   0.00000  -0.00003  -0.00003   1.41058
    Y3       -0.06737   0.00004   0.00000   0.00004   0.00004  -0.06734
    Z3        1.30443   0.00002   0.00000   0.00002   0.00002   1.30445
    X4        1.23530  -0.00002   0.00000  -0.00002  -0.00002   1.23528
    Y4        1.93227  -0.00000   0.00000  -0.00000  -0.00000   1.93227
    Z4        1.82124   0.00001   0.00000   0.00001   0.00001   1.82125
    X5        1.49463   0.00001   0.00000   0.00001   0.00001   1.49464
    Y5       -1.11589  -0.00001   0.00000  -0.00001  -0.00001  -1.11590
    Z5        3.09001  -0.00003   0.00000  -0.00003  -0.00003   3.08998
    X6        3.38073   0.00005   0.00000   0.00005   0.00005   3.38079
    Y6       -0.69752   0.00004   0.00000   0.00004   0.00004  -0.69748
    Z6       -0.51801  -0.00005   0.00000  -0.00005  -0.00005  -0.51806
    X7        2.91201   0.00002   0.00000   0.00002   0.00002   2.91202
    Y7       -1.39251  -0.00007   0.00000  -0.00007  -0.00007  -1.39258
    Z7       -2.23650   0.00002   0.00000   0.00002   0.00002  -2.23648
    X8        5.21043  -0.00001   0.00000  -0.00001  -0.00001   5.21042
    Y8       -0.28842  -0.00001   0.00000  -0.00001  -0.00001  -0.28843
    Z8       -0.14688   0.00002   0.00000   0.00002   0.00002  -0.14686
    X9       -2.30262   0.00004   0.00000   0.00004   0.00004  -2.30258
    Y9       -2.68231   0.00006   0.00000   0.00006   0.00006  -2.68225
    Z9        0.74577  -0.00004   0.00000  -0.00004  -0.00004   0.74573
   X10       -3.79154  -0.00001   0.00000  -0.00001  -0.00001  -3.79154
   Y10        0.39649   0.00003   0.00000   0.00003   0.00003   0.39652
   Z10       -1.75682   0.00003   0.00000   0.00003   0.00003  -1.75679
         Item               Value     Threshold  Converged?
 Maximum Force            0.000093     0.000450     YES
 RMS     Force            0.000037     0.000300     YES
 Maximum Displacement     0.000093     0.001800     YES
 RMS     Displacement     0.000037     0.001200     YES
 Predicted change in Energy=-2.035900D-08
 Optimization completed.
    -- Stationary point found.
 Largest change from initial coordinates is atom    9       0.588 Angstoms.
 GradGradGradGradGradGradGradGradGradGradGradGradGradGradGradGradGradGrad

 Leave Link  103 at Wed Nov 29 12:05:31 2023, MaxMem=   134217728 cpu:               0.0 elap:               0.0
 (Enter /home/emanuele/chem_software/gaussian//gdv/l202.exe)
                          Input orientation:                          
 ---------------------------------------------------------------------
 Center     Atomic      Atomic             Coordinates (Angstroms)
 Number     Number       Type             X           Y           Z
 ---------------------------------------------------------------------
      1          6    20001002       -0.623722   -0.403708    0.150269
      2          8    20001022       -1.147647    0.551996   -0.644140
      3          6    20001001        0.746459   -0.035653    0.690274
      4          1    20001034        0.653690    1.022513    0.963759
      5          1    20001034        0.790923   -0.590505    1.635162
      6          7    20001020        1.789006   -0.369113   -0.274117
      7          1    20001029        1.540967   -0.736886   -1.183507
      8          1    20001029        2.757239   -0.152627   -0.077724
      9          8    20001025       -1.218493   -1.419418    0.394646
     10          1    20001031       -2.006394    0.209813   -0.929671
 ---------------------------------------------------------------------
                    Distance matrix (angstroms):
                    1          2          3          4          5
     1  C    0.000000
     2  O    1.348685   0.000000
     3  C    1.518047   2.390320   0.000000
     4  H    2.080301   2.459988   1.096866   0.000000
     5  H    2.059374   3.202902   1.096654   1.752553   0.000000
     6  N    2.450011   3.099885   1.458818   2.181261   2.165764
     7  H    2.564340   3.029980   2.152679   2.914360   2.920426
     8  H    3.397929   4.008174   2.155630   2.624987   2.644261
     9  O    1.202140   2.229477   2.421412   3.129215   2.502744
    10  H    1.858618   0.967504   3.203541   3.364760   3.878642
                    6          7          8          9         10
     6  N    0.000000
     7  H    1.011815   0.000000
     8  H    1.011391   1.744543   0.000000
     9  O    3.255063   3.251313   4.199326   0.000000
    10  H    3.894864   3.680278   4.852770   2.242542   0.000000
 Symmetry turned off by external request.
 Stoichiometry    C2H5NO2
 Framework group  C1[X(C2H5NO2)]
 Deg. of freedom    24
 Full point group                 C1      NOp   1
 Rotational constants (GHZ):           8.9807973           3.8933134           3.1861596
 Leave Link  202 at Wed Nov 29 12:05:31 2023, MaxMem=   134217728 cpu:               0.0 elap:               0.0
 (Enter /home/emanuele/chem_software/gaussian//gdv/l9999.exe)
 Unable to Open any file for archive entry.
 1\1\GINC-EMANUELE-XPS-13-9343\FOpt\AMBER\ZDO\C2H5N1O2\EMANUELE\29-Nov-
 2023\0\\#p Amber=(SoftFirst,Print) geom=nocrowd nosymm opt=(maxcycle=3
 00)\\Title\\0,1\C,-0.6237221342,-0.4037078932,0.1502685664\O,-1.147647
 1512,0.5519960731,-0.6441398277\C,0.7464587947,-0.0356530649,0.6902743
 656\H,0.6536900952,1.0225126188,0.9637588657\H,0.7909226309,-0.5905048
 913,1.6351620252\N,1.7890057498,-0.3691126203,-0.2741172498\H,1.540966
 7854,-0.7368860378,-1.1835065306\H,2.7572390625,-0.152627169,-0.077723
 8665\O,-1.2184933914,-1.4194176736,0.3946457845\H,-2.0063944417,0.2098
 126583,-0.9296711329\\Version=ES64L-GDVRevJ.14\HF=0.0337281\RMSD=0.000
 e+00\RMSF=3.684e-05\Dipole=0.3266248,0.449933,0.0824436\PG=C01 [X(C2H5
 N1O2)]\\@
 The archive entry for this job was punched.


 FRICTION IS A DRAG,
 AND ENTROPY AIN'T WHAT IT USED TO BE.
 Job cpu time:       0 days  0 hours  0 minutes  0.9 seconds.
 Elapsed time:       0 days  0 hours  0 minutes  0.8 seconds.
 File lengths (MBytes):  RWF=      6 Int=      0 D2E=      0 Chk=      1 Scr=      1
 Normal termination of Gaussian DV at Wed Nov 29 12:05:31 2023.
