 Entering Gaussian System, Link 0=/home/emanuele/chem_software/gaussian//g09/g09
 Input=1_mm_0.gjf
 Output=1_mm_0.log
 Initial command:
 /home/emanuele/chem_software/gaussian//gdv/l1.exe "/home/emanuele/chem_software/gaussian/scratch/Gau-13819.inp" -scrdir="/home/emanuele/chem_software/gaussian/scratch/"
 Entering Link 1 = /home/emanuele/chem_software/gaussian//gdv/l1.exe PID=     13821.
  
 Copyright (c) 1988-2020, Gaussian, Inc.  All Rights Reserved.
  
 This is the private, development version of
 the Gaussian(R) DV system of programs. It is based on
 the Gaussian(R) 16 system (copyright 2016, Gaussian, Inc.),
 the Gaussian(R) 09 system (copyright 2009, Gaussian, Inc.),
 the Gaussian(R) 03 system (copyright 2003, Gaussian, Inc.),
 the Gaussian(R) 98 system (copyright 1998, Gaussian, Inc.),
 the Gaussian(R) 94 system (copyright 1995, Gaussian, Inc.),
 the Gaussian 92(TM) system (copyright 1992, Gaussian, Inc.),
 the Gaussian 90(TM) system (copyright 1990, Gaussian, Inc.),
 the Gaussian 88(TM) system (copyright 1988, Gaussian, Inc.),
 the Gaussian 86(TM) system (copyright 1986, Carnegie Mellon
 University), and the Gaussian 82(TM) system (copyright 1983,
 Carnegie Mellon University). Gaussian is a federally registered
 trademark of Gaussian, Inc.
  
 This software contains proprietary and confidential information,
 including trade secrets, belonging to Gaussian, Inc.
  
 This software is provided under written license and may be
 used, copied, transmitted, or stored only in accord with that
 written license.
  
 The following legend is applicable only to US Government
 contracts under FAR:
  
                    RESTRICTED RIGHTS LEGEND
  
 Use, reproduction and disclosure by the US Government is
 subject to restrictions as set forth in subparagraphs (a)
 and (c) of the Commercial Computer Software - Restricted
 Rights clause in FAR 52.227-19.
  
 Gaussian, Inc.
 340 Quinnipiac St., Bldg. 40, Wallingford CT 06492
  
  
 ---------------------------------------------------------------
 Warning -- This program may not be used in any manner that
 competes with the business of Gaussian, Inc. or will provide
 assistance to any competitor of Gaussian, Inc.  The licensee
 of this program is prohibited from giving any competitor of
 Gaussian, Inc. access to this program.  By using this program,
 the user acknowledges that Gaussian, Inc. is engaged in the
 business of creating and licensing software in the field of
 computational chemistry and represents and warrants to the
 licensee that it is not a competitor of Gaussian, Inc. and that
 it will not use this program in any manner prohibited above.
 ---------------------------------------------------------------
  

 Cite this work as:
 Gaussian Development Version, Revision J.14,
 M. J. Frisch, G. W. Trucks, H. B. Schlegel, G. E. Scuseria, 
 M. A. Robb, J. R. Cheeseman, G. Scalmani, V. Barone, 
 G. A. Petersson, H. Nakatsuji, X. Li, A. V. Marenich, M. Caricato, 
 J. Bloino, B. G. Janesko, J. Zheng, R. Gomperts, B. Mennucci, 
 H. P. Hratchian, J. V. Ortiz, A. F. Izmaylov, J. L. Sonnenberg, 
 D. Williams-Young, F. Ding, F. Lipparini, F. Egidi, J. Goings, 
 B. Peng, A. Petrone, T. Henderson, D. Ranasinghe, V. G. Zakrzewski, 
 J. Gao, N. Rega, G. Zheng, W. Liang, M. Hada, M. Ehara, K. Toyota, 
 R. Fukuda, J. Hasegawa, M. Ishida, T. Nakajima, Y. Honda, O. Kitao, 
 H. Nakai, T. Vreven, K. Throssell, J. A. Montgomery, Jr., 
 J. E. Peralta, F. Ogliaro, M. J. Bearpark, J. J. Heyd, 
 E. N. Brothers, K. N. Kudin, V. N. Staroverov, T. A. Keith, 
 R. Kobayashi, J. Normand, K. Raghavachari, A. P. Rendell, 
 J. C. Burant, S. S. Iyengar, J. Tomasi, M. Cossi, J. M. Millam, 
 M. Klene, C. Adamo, R. Cammi, J. W. Ochterski, R. L. Martin, 
 K. Morokuma, O. Farkas, J. B. Foresman, and D. J. Fox, 
 Gaussian, Inc., Wallingford CT, 2020.
 
 ******************************************
 Gaussian DV:  ES64L-GDVRevJ.14 29-Dec-2020
                29-Nov-2023 
 ******************************************
 %mem=1GB
 %nprocshared=1
 Will use up to    1 processors via shared memory.
 %chk=1_mm_0.chk
 -----------------------------------------------------------------
 #p Amber=(SoftFirst,Print) geom=nocrowd nosymm opt=(maxcycle=300)
 -----------------------------------------------------------------
 1/6=300,10=10,18=4000020,19=15,37=210000000,38=1,56=2,64=203/1,3;
 2/9=110,12=1,15=1,40=1/2;
 3/5=30,11=9,25=1,30=1,41=10030000,43=2,71=1/1;
 4/20=11,22=1001,24=3,119=11/2;
 7/30=1,44=-1/16;
 1/6=300,10=10,18=4000020,19=15,64=203/3(2);
 2/9=110,12=1,15=1/2;
 99//99;
 2/9=110,12=1,15=1/2;
 3/5=30,11=9,25=1,30=1,41=10030000,43=2,71=1/1;
 4/16=2,20=11,22=1001,24=3,119=11/2;
 7/30=1,44=-1/16;
 1/6=300,10=10,18=4000020,19=15,64=203/3(-4);
 2/9=110,12=1,15=1/2;
 99/9=10/99;
 Leave Link    1 at Wed Nov 29 12:05:21 2023, MaxMem=   134217728 cpu:               0.0 elap:               0.0
 (Enter /home/emanuele/chem_software/gaussian//gdv/l101.exe)
 -----
 Title
 -----
 Symbolic Z-matrix:
 Charge =  0 Multiplicity = 1
 C-C-+0.299289        -0.56339   0.16393   0.08357 
 O-OH--0.289770       -1.59183  -0.70339  -0.19855 
 C-CT--0.035454        0.71461  -0.61598   0.27827 
 H-HC-+0.090426        0.94345  -1.12608   1.24441 
 H-HC-+0.095387        0.4448   -1.41987  -0.45913 
 N-N3--0.336253        1.86123   0.11232  -0.33404 
 H-H-+0.142619         2.01706   0.93234   0.26838 
 H-H-+0.128282         2.68785  -0.37827   0.00073 
 O-O2--0.308037       -0.769     1.35012   0.174 
 H-HO-+0.213510       -2.46275  -0.23869  -0.33268 
 
 ITRead=  3  3  3  3  3  3  3  3  3  3
 MicOpt=  0  0  0  0  0  0  0  0  0  0
 NAtoms=     10 NQM=        0 NQMF=       0 NMMI=      0 NMMIF=      0
                NMic=      10 NMicF=      0.
                    Isotopes and Nuclear Properties:
 (Nuclear quadrupole moments (NQMom) in fm**2, nuclear magnetic moments (NMagM)
  in nuclear magnetons)

  Atom         1           2           3           4           5           6           7           8           9          10
 IAtWgt=          12          16          12           1           1          14           1           1          16           1
 AtmWgt=  12.0000000  15.9949146  12.0000000   1.0078250   1.0078250  14.0030740   1.0078250   1.0078250  15.9949146   1.0078250
 NucSpn=           0           0           0           1           1           2           1           1           0           1
 AtZEff=  -0.0000000  -0.0000000  -0.0000000  -0.0000000  -0.0000000  -0.0000000  -0.0000000  -0.0000000  -0.0000000  -0.0000000
 NQMom=    0.0000000   0.0000000   0.0000000   0.0000000   0.0000000   2.0440000   0.0000000   0.0000000   0.0000000   0.0000000
 NMagM=    0.0000000   0.0000000   0.0000000   2.7928460   2.7928460   0.4037610   2.7928460   2.7928460   0.0000000   2.7928460
 AtZNuc=   6.0000000   8.0000000   6.0000000   1.0000000   1.0000000   7.0000000   1.0000000   1.0000000   8.0000000   1.0000000
 Generating MM parameters.
 I=    1 IAn=  6 Valence= 5.
          JB=  1 J=    2 IAn=  8 IBT=12 Dist= 1.37D+00
          JB=  2 J=    3 IAn=  6 IBT= 1 Dist= 1.51D+00
          JB=  3 J=    9 IAn=  8 IBT= 2 Dist= 1.21D+00
 I=    2 IAn=  8 Valence= 3.
          JB=  1 J=    1 IAn=  6 IBT=12 Dist= 1.37D+00
          JB=  2 J=   10 IAn=  1 IBT= 1 Dist= 9.96D-01
 Read MM parameter file:
 Include all MM classes

 MM sanity checks:
 All charges sum to:               -0.00000100
 Charges of atoms sum to:          -0.00000100
 WARNING -- The following centers have non-zero partial charges, but zero Vanderwaals
 parameters.  These centers can collapse onto other centers with non-zero charge.
   Center  Layer   Charge
     10 H    R    0.213510
 MMInit generated parameter data with length LenPar=        2069.
 MM Charge=             -0.0000 electrons
 MM Dipole moment (Debye):
    X=              0.5415    Y=             -1.8383    Z=              0.8044  Tot=              2.0784
 MM Quadrupole moment (Debye-Ang):
   XX=              4.3084   YY=             -1.2155   ZZ=              0.6490
   XY=              0.0961   XZ=              2.2893   YZ=             -0.4898
 MM Traceless Quadrupole moment (Debye-Ang):
   XX=              3.0611   YY=             -2.4628   ZZ=             -0.5983
   XY=              0.0961   XZ=              2.2893   YZ=             -0.4898
 MM Octapole moment (Debye-Ang**2):
  XXX=             -1.7724  YYY=             -4.5368  ZZZ=              0.8286  XYY=              5.2889
  XXY=             -0.3348  XXZ=              1.5523  XZZ=              0.2688  YZZ=             -0.9080
  YYZ=              0.0612  XYZ=              0.4026
 MM Hexadecapole moment (Debye-Ang**3):
 XXXX=             52.8508 YYYY=             -2.1864 ZZZZ=              1.0534 XXXY=             -0.3103
 XXXZ=              9.4910 YYYX=              1.9457 YYYZ=             -0.7334 ZZZX=              0.9872
 ZZZY=             -0.8672 XXYY=              0.6559 XXZZ=              0.7136 YYZZ=              0.9812
 XXYZ=              0.2404 YYXZ=              0.9696 ZZXY=             -0.6638
 Leave Link  101 at Wed Nov 29 12:05:21 2023, MaxMem=   134217728 cpu:               0.3 elap:               0.3
 (Enter /home/emanuele/chem_software/gaussian//gdv/l103.exe)

 GradGradGradGradGradGradGradGradGradGradGradGradGradGradGradGradGradGrad
 Berny optimization.
 Initialization pass.
 No Z-matrix variables, so optimization will use Cartesian coordinates.
 Trust Radius=1.00D-01 FncErr=1.00D-07 GrdErr=1.00D-07 EigMax=2.50D+02 EigMin=1.00D-04
 Number of steps in this run=      2 maximum allowed number of steps=      2.
 GradGradGradGradGradGradGradGradGradGradGradGradGradGradGradGradGradGrad

 Leave Link  103 at Wed Nov 29 12:05:21 2023, MaxMem=   134217728 cpu:               0.0 elap:               0.0
 (Enter /home/emanuele/chem_software/gaussian//gdv/l202.exe)
                          Input orientation:                          
 ---------------------------------------------------------------------
 Center     Atomic      Atomic             Coordinates (Angstroms)
 Number     Number       Type             X           Y           Z
 ---------------------------------------------------------------------
      1          6    20001002       -0.563386    0.163925    0.083569
      2          8    20001022       -1.591830   -0.703392   -0.198550
      3          6    20001001        0.714609   -0.615978    0.278269
      4          1    20001034        0.943451   -1.126084    1.244410
      5          1    20001034        0.444796   -1.419865   -0.459133
      6          7    20001020        1.861227    0.112321   -0.334037
      7          1    20001029        2.017061    0.932335    0.268379
      8          1    20001029        2.687847   -0.378273    0.000727
      9          8    20001025       -0.769002    1.350116    0.173997
     10          1    20001031       -2.462747   -0.238694   -0.332681
 ---------------------------------------------------------------------
                    Distance matrix (angstroms):
                    1          2          3          4          5
     1  C    0.000000
     2  O    1.374601   0.000000
     3  C    1.509777   2.356832   0.000000
     4  H    2.298311   2.947618   1.116246   0.000000
     5  H    1.954315   2.174645   1.123742   1.799173   0.000000
     6  N    2.460855   3.550683   1.489990   2.206231   2.090340
     7  H    2.698762   3.989702   2.023302   2.518405   2.921324
     8  H    3.297174   4.296632   2.006789   2.269116   2.515485
     9  O    1.207271   2.243375   2.465259   3.195285   3.089815
    10  H    1.985683   0.996209   3.257483   3.857054   3.140854
                    6          7          8          9         10
     6  N    0.000000
     7  H    1.029375   0.000000
     8  H    1.017865   1.496424   0.000000
     9  O    2.950990   2.818793   3.868741   0.000000
    10  H    4.338198   4.669182   5.163261   2.376933   0.000000
 Symmetry turned off by external request.
 Stoichiometry    C2H5NO2
 Framework group  C1[X(C2H5NO2)]
 Deg. of freedom    24
 Full point group                 C1      NOp   1
 Rotational constants (GHZ):           9.7487861           3.8294393           2.9206260
 Leave Link  202 at Wed Nov 29 12:05:21 2023, MaxMem=   134217728 cpu:               0.0 elap:               0.0
 (Enter /home/emanuele/chem_software/gaussian//gdv/l301.exe)
 Standard basis: Dummy (5D, 7F)
    10 basis functions,    10 primitive gaussians,    10 cartesian basis functions
     7 alpha electrons        7 beta electrons
       nuclear repulsion energy        22.5468487652 Hartrees.
 IExCor=       0 DFT=F Ex=HF Corr=None N6=None ScaHFX=  1.000000
 ScaDFX=  1.000000  1.000000  1.000000  1.000000  1.000000  0.000000
 ScaDFX=  0.000000  0.000000  0.000000  0.000000  0.000000  0.000000
 IRadAn=      5 IRanWt=     -1 IRanGd=            0 ICorTp=0 IEmpDi=  4
 NAtoms=   10 NActive=   10 NUniq=   10 SFac= 1.00D+00 NAtFMM=   60 NAOKFM=F Big=F
 Integral buffers will be    131072 words long.
 Raffenetti 1 integral format.
 Two-electron integral symmetry is turned off.
 Leave Link  301 at Wed Nov 29 12:05:21 2023, MaxMem=   134217728 cpu:               0.1 elap:               0.1
 (Enter /home/emanuele/chem_software/gaussian//gdv/l402.exe)
 AMBER calculation of energy and first derivatives.
 NRF= 0 NRA=   0 NVA=  10 HaveQM=F NVQ=       0
 Convergence limit is  0.750E-04 MaxStp= 10000 StMxLn= 3.00D-04 StpMin= 1.00D-06.
 Convergence criteria             0.00011250 0.00007500 0.00045000 0.00030000
  Step  NS  ND Rises OKQ   Scale  Max. Force  RMS Force Max. Disp.  RMS Disp.     Energy   Flag
     1   0   0   F    T  1.00D+00 0.07135324 0.02192992 0.07135324 0.02192992    0.0726151 ----
     2   0   0   F    F  7.10D-01 0.07135324 0.02192992 0.05065244 0.01556767    0.0625874 ----
     3   0   0   F    T  2.45D+00 0.03130819 0.01313467 0.08026841 0.03749759    0.0605643 ----
     4   0   0   F    F  4.50D-01 0.03130819 0.01313467 0.03613365 0.01687993    0.0521839 ----
     5   0   0   F    T  1.71D+00 0.05959293 0.01696160 0.10631588 0.05437753    0.0512809 ----
     6   0   0   F    F -4.93D-01 0.05959293 0.01696160 0.05240257 0.02680241    0.0511204 ----
     7   0   0   F    T  2.84D+00 0.01809573 0.00775613 0.05438341 0.02757512    0.0475346 ----
     8   0   0   F    F -3.61D-01 0.01809573 0.00775613 0.01964462 0.00996081    0.0464186 ----
     9   0   0   F    T  2.11D+00 0.01445686 0.00597798 0.04491638 0.01761431    0.0458994 ----
    10   0   0   F    F  2.44D-01 0.01445686 0.00597798 0.01096508 0.00430004    0.0445384 ----
    11   0   0   F    T  1.92D+00 0.01613163 0.00636052 0.05910077 0.02191435    0.0444835 ----
    12   0   0   F    F -3.84D-02 0.01613163 0.00636052 0.00226691 0.00084056    0.0433616 ----
    13   0   0   F    T  1.37D+00 0.02373618 0.00700664 0.05417488 0.02107379    0.0433598 ----
    14   0   0   F    F -9.26D-02 0.02373618 0.00700664 0.00501774 0.00195188    0.0424510 ----
    15   0   0   F    T  2.80D+00 0.00878666 0.00417427 0.05196025 0.01912191    0.0424415 ----
    16   0   0   F    F  1.54D+00 0.00878666 0.00417427 0.08019989 0.02951439    0.0412716 ----
    17   0   0   F    F -2.25D-02 0.00878666 0.00417427 0.00180671 0.00066489    0.0406073 ----
    18   0   0   F    T  2.82D+00 0.01904392 0.00640397 0.13705815 0.04797141    0.0406070 ----
    19   0   0   F    F -4.33D-01 0.01904392 0.00640397 0.05938668 0.02078580    0.0401802 ----
    20   0   0   F    T  1.78D+00 0.01622748 0.00559948 0.08068934 0.02718562    0.0396387 ----
    21   0   0   F    F -1.63D-01 0.01622748 0.00559948 0.01312322 0.00442144    0.0389558 ----
    22   0   0   F    T  1.40D+00 0.01446265 0.00557366 0.06974915 0.02276418    0.0389285 ----
    23   0   0   F    F  6.60D-01 0.01446265 0.00557366 0.04602038 0.01501977    0.0379831 ----
    24   0   0   F    F -1.52D-02 0.01446265 0.00557366 0.00070080 0.00022872    0.0377964 ---+
    25   0   0   F    T  3.56D+00 0.00988474 0.00485240 0.11470268 0.03755523    0.0377963 ----
    26   0   0   T    F  4.94D-01 0.00988474 0.00485240 0.05664829 0.01854743    0.0378059 ----
    27   0   0   F    T  2.04D+00 0.01384451 0.00428223 0.05479388 0.01854743    0.0371818 ----
    28   0   0   T    F  4.42D-01 0.01384451 0.00428223 0.02419219 0.00818892    0.0373278 ----
    29   0   0   F    T  2.28D+00 0.00607864 0.00229638 0.02323304 0.00818892    0.0369347 ----
    30   0   0   F    F  6.23D-01 0.00607864 0.00229638 0.01447315 0.00510134    0.0366859 ----
    31   0   0   F    T  2.85D+00 0.00542299 0.00240628 0.03616950 0.01329026    0.0366433 ----
    32   0   0   F    F -4.50D-01 0.00542299 0.00240628 0.01627664 0.00598075    0.0365991 ----
    33   0   0   F    T  2.51D+00 0.00516134 0.00172005 0.01778107 0.00730951    0.0365069 ----
    34   0   0   T    F  4.33D-01 0.00516134 0.00172005 0.00770796 0.00316862    0.0365411 ----
    35   0   0   F    T  1.52D+00 0.00336014 0.00128947 0.00703231 0.00316862    0.0364586 ----
    36   0   0   F    F  3.36D-01 0.00336014 0.00128947 0.00236386 0.00106511    0.0364111 ----
    37   0   0   F    T  2.00D+00 0.00273364 0.00118361 0.00952215 0.00423372    0.0364079 ----
    38   0   0   F    F  3.70D-01 0.00273364 0.00118361 0.00352130 0.00156563    0.0363547 ----
    39   0   0   F    T  2.76D+00 0.00246008 0.00108535 0.01266057 0.00579936    0.0363505 ----
    40   0   0   F    F -3.48D-01 0.00246008 0.00108535 0.00440233 0.00201655    0.0363277 ----
    41   0   0   F    T  1.51D+00 0.00398036 0.00112104 0.00813337 0.00378281    0.0363186 ----
    42   0   0   F    F -2.21D-01 0.00398036 0.00112104 0.00180098 0.00083763    0.0362983 ----
    43   0   0   F    T  2.51D+00 0.00146873 0.00069428 0.00613676 0.00294517    0.0362965 ----
    44   0   0   F    F -1.89D-01 0.00146873 0.00069428 0.00115786 0.00055569    0.0362825 ----
    45   0   0   F    T  2.40D+00 0.00146768 0.00057619 0.00587668 0.00238949    0.0362818 ----
    46   0   0   F    F -5.23D-02 0.00146768 0.00057619 0.00030742 0.00012500    0.0362704 --++
    47   0   0   F    T  2.10D+00 0.00163972 0.00055506 0.00595616 0.00226449    0.0362704 ----
    48   0   0   F    F -1.99D-01 0.00163972 0.00055506 0.00118650 0.00045110    0.0362631 ----
    49   0   0   F    T  1.00D+00 0.00196999 0.00070791 0.00567771 0.00188912    0.0362626 ----
    50   0   0   F    F  2.05D+00 0.00196999 0.00070791 0.01162451 0.00386778    0.0362500 ----
    51   0   0   F    T  3.82D+00 0.00163988 0.00060166 0.01799369 0.00575691    0.0362395 ----
    52   0   0   F    F -1.74D-01 0.00163988 0.00060166 0.00312725 0.00100053    0.0362230 ----
    53   0   0   F    T  2.50D+00 0.00200740 0.00066456 0.01462028 0.00475638    0.0362223 ----
    54   0   0   F    F -4.61D-01 0.00200740 0.00066456 0.00674363 0.00219389    0.0362198 ----
    55   0   0   F    T  1.29D+00 0.00177432 0.00065384 0.00865561 0.00256249    0.0362134 ----
    56   0   0   F    F  8.73D-01 0.00177432 0.00065384 0.00755600 0.00223695    0.0362012 ----
    57   0   0   F    T  2.30D+00 0.00184290 0.00064415 0.01638150 0.00479944    0.0361978 ----
    58   0   0   F    F -1.45D-01 0.00184290 0.00064415 0.00237563 0.00069601    0.0361859 ----
    59   0   0   F    T  3.22D+00 0.00119504 0.00049421 0.01397881 0.00410343    0.0361855 ----
    60   0   0   F    F  2.31D-01 0.00119504 0.00049421 0.00322329 0.00094618    0.0361717 ----
    61   0   0   F    T  1.20D+00 0.00262737 0.00088142 0.01802302 0.00504961    0.0361712 ----
    62   0   0   F    F  1.19D-01 0.00262737 0.00088142 0.00214113 0.00059989    0.0361554 ----
    63   0   0   F    T  2.17D+00 0.00161534 0.00069739 0.01962716 0.00564950    0.0361552 ----
    64   0   0   F    F -1.83D-01 0.00161534 0.00069739 0.00358585 0.00103216    0.0361429 ----
    65   0   0   F    T  3.47D+00 0.00130621 0.00049770 0.01563213 0.00461735    0.0361423 ----
    66   0   0   F    F -3.73D-01 0.00130621 0.00049770 0.00583753 0.00172426    0.0361371 ----
    67   0   0   F    T  1.73D+00 0.00177302 0.00054034 0.01002959 0.00289308    0.0361342 ----
    68   0   0   F    F -2.12D-01 0.00177302 0.00054034 0.00212324 0.00061246    0.0361287 ----
    69   0   0   F    T  1.72D+00 0.00138822 0.00046881 0.00688815 0.00228063    0.0361282 ----
    70   0   0   F    F -1.32D-01 0.00138822 0.00046881 0.00091005 0.00030131    0.0361234 ----
    71   0   0   F    T  3.28D+00 0.00073067 0.00029649 0.00560989 0.00197931    0.0361233 ----
    72   0   0   F    F -8.67D-02 0.00073067 0.00029649 0.00048636 0.00017160    0.0361194 ---+
    73   0   0   F    T  1.60D+00 0.00111043 0.00039177 0.00554465 0.00180771    0.0361194 ----
    74   0   0   F    F  2.82D-01 0.00111043 0.00039177 0.00156562 0.00051044    0.0361149 ----
    75   0   0   F    T  1.00D+00 0.00178601 0.00055288 0.00741965 0.00232189    0.0361146 ----
    76   0   0   F    F  1.30D+00 0.00178601 0.00055288 0.00966164 0.00302349    0.0361074 ----
    77   0   0   F    T  4.16D+00 0.00123733 0.00040093 0.01680457 0.00534538    0.0361040 ----
    78   0   0   F    F -3.91D-01 0.00123733 0.00040093 0.00657802 0.00209241    0.0361005 ----
    79   0   0   F    T  1.41D+00 0.00115086 0.00053232 0.00975605 0.00325297    0.0360979 ----
    80   0   0   F    F  5.72D-01 0.00115086 0.00053232 0.00557945 0.00186036    0.0360897 ----
    81   0   0   F    T  1.13D+00 0.00225314 0.00074213 0.01492411 0.00511333    0.0360885 ----
    82   0   0   F    F  9.82D-01 0.00225314 0.00074213 0.01465906 0.00502252    0.0360745 ----
    83   0   0   F    T  2.05D+00 0.00207641 0.00076859 0.02831547 0.01013585    0.0360700 ----
    84   0   0   F    F  4.72D-01 0.00207641 0.00076859 0.01336689 0.00478483    0.0360458 ----
    85   0   0   F    T  3.50D+00 0.00164731 0.00071635 0.04128191 0.01492068    0.0360430 ----
    86   0   0   T    F  4.83D-01 0.00164731 0.00071635 0.01992721 0.00720237    0.0360447 ----
    87   0   0   F    T  1.10D+00 0.00288171 0.00088175 0.01931254 0.00720237    0.0360301 ----
    88   0   0   F    F  1.10D+00 0.00288171 0.00088175 0.02125823 0.00792799    0.0360110 ----
    89   0   0   F    T  2.24D+00 0.00167277 0.00083761 0.04249079 0.01513036    0.0360041 ----
    90   0   0   F    F  4.90D-01 0.00167277 0.00083761 0.02080654 0.00740891    0.0359724 ----
    91   0   0   F    F -1.59D-02 0.00167277 0.00083761 0.00033078 0.00011778    0.0359686 --++
    92   0   0   F    T  2.45D+00 0.00264467 0.00092918 0.06479647 0.02242149    0.0359686 ----
    93   0   0   F    F  1.53D-01 0.00264467 0.00092918 0.00989818 0.00342506    0.0359309 ----
    94   0   0   F    T  1.63D+00 0.00415908 0.00129591 0.07288225 0.02584655    0.0359302 ----
    95   0   0   F    F -1.15D-01 0.00415908 0.00129591 0.00835121 0.00296163    0.0358941 ----
    96   0   0   F    T  2.00D+00 0.00321516 0.00121363 0.06514328 0.02288493    0.0358935 ----
    97   0   0   F    F  1.21D-01 0.00321516 0.00121363 0.00786876 0.00276431    0.0358440 ----
    98   0   0   F    T  2.43D+00 0.00248820 0.00119991 0.07127954 0.02564923    0.0358434 ----
    99   0   0   F    F  8.17D-01 0.00248820 0.00119991 0.05820764 0.02094544    0.0357714 ----
   100   0   0   F    F -9.66D-02 0.00248820 0.00119991 0.00562237 0.00202315    0.0357563 ----
   101   0   0   F    T  2.27D+00 0.00318671 0.00161007 0.12743470 0.04457152    0.0357561 ----
   102   0   0   F    F -1.57D-01 0.00318671 0.00161007 0.01998602 0.00699030    0.0356789 ----
   103   0   0   F    F -1.78D-02 0.00318671 0.00161007 0.00035675 0.00012478    0.0356756 --++
   104   0   0   F    T  1.42D+00 0.00529068 0.00196359 0.10413691 0.03770599    0.0356756 ----
   105   0   0   F    F -4.89D-02 0.00529068 0.00196359 0.00508769 0.00184215    0.0355941 ----
   106   0   0   F    T  4.77D+00 0.00353310 0.00154181 0.08996054 0.03586383    0.0355939 ----
   107   0   0   F    F  9.40D-03 0.00353310 0.00154181 0.00084564 0.00033712    0.0354338 ----
   108   0   0   F    T  1.73D+00 0.00570817 0.00250578 0.09404790 0.03620096    0.0354338 ----
   109   0   0   F    F -3.00D-02 0.00570817 0.00250578 0.00282018 0.00108555    0.0352729 ----
   110   0   0   F    T  1.31D+00 0.00727417 0.00265648 0.08509008 0.03511541    0.0352728 ----
   111   0   0   F    F  1.52D-01 0.00727417 0.00265648 0.01293793 0.00533929    0.0351068 ----
   112   0   0   F    T  2.38D+00 0.00616889 0.00250381 0.08983010 0.04045470    0.0351036 ----
   113   0   0   F    F -8.79D-02 0.00616889 0.00250381 0.00789610 0.00355598    0.0348986 ----
   114   0   0   F    T  1.41D+00 0.00925148 0.00326285 0.08271032 0.03689872    0.0348966 ----
   115   0   0   F    F -1.06D-01 0.00925148 0.00326285 0.00875652 0.00390646    0.0346925 ----
   116   0   0   F    T  1.84D+00 0.00733761 0.00291733 0.06810919 0.03299226    0.0346894 ----
   117   0   0   F    F  2.23D-01 0.00733761 0.00291733 0.01519914 0.00736250    0.0344202 ----
   118   0   0   F    T  2.99D+00 0.00758177 0.00253795 0.09269607 0.04035476    0.0344116 ----
   119   0   0   F    F -3.53D-01 0.00758177 0.00253795 0.03275106 0.01425801    0.0342802 ----
   120   0   0   F    T  2.26D+00 0.00619307 0.00215295 0.05169760 0.02609675    0.0342295 ----
   121   0   0   F    F -4.73D-01 0.00619307 0.00215295 0.02444585 0.01234017    0.0342145 ----
   122   0   0   F    T  1.40D+00 0.00445132 0.00193933 0.03019923 0.01375658    0.0341461 ----
   123   0   0   F    F  6.87D-01 0.00445132 0.00193933 0.02074723 0.00945093    0.0340364 ----
   124   0   0   F    T  3.11D+00 0.00407351 0.00165961 0.05265969 0.02320751    0.0340151 ----
   125   0   0   T    F  4.56D-01 0.00407351 0.00165961 0.02400777 0.01058040    0.0340392 ----
   126   0   0   F    T  1.50D+00 0.00400672 0.00157294 0.01922366 0.01058040    0.0339568 ----
   127   0   0   F    F -2.40D-01 0.00400672 0.00157294 0.00461634 0.00254076    0.0339187 ----
   128   0   0   F    T  2.56D+00 0.00285088 0.00103010 0.01510910 0.00803964    0.0339144 ----
   129   0   0   F    F -1.76D-01 0.00285088 0.00103010 0.00265343 0.00141190    0.0338823 ----
   130   0   0   F    T  1.85D+00 0.00259938 0.00107865 0.01542255 0.00662774    0.0338808 ----
   131   0   0   F    F -3.27D-01 0.00259938 0.00107865 0.00503883 0.00216540    0.0338642 ----
   132   0   0   F    T  1.48D+00 0.00243397 0.00096036 0.00998370 0.00446233    0.0338591 ----
   133   0   0   F    F -3.96D-02 0.00243397 0.00096036 0.00039507 0.00017658    0.0338394 --++
   134   0   0   F    T  2.80D+00 0.00178287 0.00065429 0.00992258 0.00428575    0.0338394 ----
   135   0   0   F    F -2.43D-01 0.00178287 0.00065429 0.00240718 0.00103971    0.0338272 ----
   136   0   0   F    T  1.33D+00 0.00239597 0.00080370 0.00797411 0.00324605    0.0338258 ----
   137   0   0   F    F -2.04D-01 0.00239597 0.00080370 0.00162290 0.00066064    0.0338163 ----
   138   0   0   F    T  2.33D+00 0.00111093 0.00050548 0.00767338 0.00258541    0.0338156 ----
   139   0   0   F    F -8.37D-02 0.00111093 0.00050548 0.00064236 0.00021643    0.0338075 ---+
   140   0   0   F    T  1.71D+00 0.00131649 0.00054107 0.00748582 0.00236897    0.0338074 ----
   141   0   0   F    F  5.33D-02 0.00131649 0.00054107 0.00039893 0.00012625    0.0337996 --++
   142   0   0   F    T  1.00D+00 0.00179986 0.00071018 0.00812090 0.00249522    0.0337995 ----
   143   0   0   F    F  7.47D-01 0.00179986 0.00071018 0.00606483 0.00186347    0.0337887 ----
   144   0   0   F    T  3.48D+00 0.00147046 0.00047696 0.01537168 0.00435869    0.0337863 ----
   145   0   0   T    F  4.04D-01 0.00147046 0.00047696 0.00621057 0.00176103    0.0337921 ----
   146   0   0   F    T  1.76D+00 0.00087338 0.00040899 0.00621640 0.00176103    0.0337815 ----
   147   0   0   F    F -3.10D-01 0.00087338 0.00040899 0.00192835 0.00054628    0.0337791 ----
   148   0   0   F    T  1.34D+00 0.00091423 0.00037192 0.00413136 0.00121475    0.0337785 ----
   149   0   0   F    F  6.44D-01 0.00091423 0.00037192 0.00265992 0.00078210    0.0337746 ----
   150   0   0   F    T  2.94D+00 0.00066070 0.00030484 0.00698982 0.00199685    0.0337739 ----
   151   0   0   T    F  4.66D-01 0.00066070 0.00030484 0.00325660 0.00093035    0.0337745 ----
   152   0   0   F    T  1.15D+00 0.00083512 0.00031941 0.00319696 0.00093035    0.0337720 ----
   153   0   0   F    F  2.58D-01 0.00083512 0.00031941 0.00082439 0.00023991    0.0337699 ---+
   154   0   0   F    T  2.71D+00 0.00065582 0.00021716 0.00332106 0.00117025    0.0337698 ----
   155   0   0   F    F -2.21D-01 0.00065582 0.00021716 0.00073285 0.00025824    0.0337684 ---+
   156   0   0   F    T  1.25D+00 0.00074246 0.00027209 0.00250063 0.00091202    0.0337683 ----
   157   0   0   F    F  3.31D-01 0.00074246 0.00027209 0.00082755 0.00030182    0.0337666 ----
   158   0   0   F    T  1.24D+00 0.00064676 0.00030711 0.00336434 0.00121384    0.0337665 ----
   159   0   0   F    F  3.42D-01 0.00064676 0.00030711 0.00115151 0.00041546    0.0337643 ----
   160   0   0   F    T  4.18D+00 0.00039097 0.00018088 0.00418509 0.00162930    0.0337641 ----
   161   0   0   T    F  3.40D-01 0.00039097 0.00018088 0.00142215 0.00055366    0.0337660 ----
   162   0   0   F    T  1.08D+00 0.00052994 0.00019948 0.00138680 0.00055366    0.0337634 ----
   163   0   0   F    F  6.11D-01 0.00052994 0.00019948 0.00084766 0.00033841    0.0337625 ----
   164   0   0   F    T  1.63D+00 0.00051157 0.00019928 0.00221619 0.00089207    0.0337624 ----
   165   0   0   F    F  5.01D-01 0.00051157 0.00019928 0.00110973 0.00044669    0.0337611 ----
   166   0   0   F    T  2.27D+00 0.00048311 0.00020010 0.00281271 0.00133876    0.0337609 ----
   167   0   0   T    F  4.77D-01 0.00048311 0.00020010 0.00134257 0.00063902    0.0337610 ----
   168   0   0   F    T  1.26D+00 0.00047502 0.00017958 0.00145250 0.00063902    0.0337603 ----
   169   0   0   F    F  1.05D+00 0.00047502 0.00017958 0.00152974 0.00067300    0.0337593 ----
   170   0   0   F    T  1.87D+00 0.00063544 0.00020654 0.00318152 0.00131203    0.0337590 ----
   171   0   0   F    F  1.44D-01 0.00063544 0.00020654 0.00045717 0.00018853    0.0337577 ---+
   172   0   0   F    T  1.29D+00 0.00074629 0.00026174 0.00305905 0.00150056    0.0337576 ----
   173   0   0   F    T  1.75D+00 0.00058915 0.00022705 0.00326219 0.00150056    0.0337563 ----
   174   0   0   F    F  3.99D-01 0.00058915 0.00022705 0.00130046 0.00059819    0.0337544 ----
   175   0   0   F    T  1.92D+00 0.00066554 0.00024292 0.00482607 0.00209875    0.0337543 ----
   176   0   0   F    F -1.20D-01 0.00066554 0.00024292 0.00058101 0.00025267    0.0337528 ---+
   177   0   0   F    T  1.09D+00 0.00080821 0.00030430 0.00410154 0.00184608    0.0337528 ----
   178   0   0   F    F  5.60D-01 0.00080821 0.00030430 0.00229781 0.00103423    0.0337507 ----
   179   0   0   F    T  2.48D+00 0.00060488 0.00024736 0.00637955 0.00288031    0.0337504 ----
   180   0   0   F    F  7.00D-02 0.00060488 0.00024736 0.00044662 0.00020165    0.0337480 --++
   181   0   0   F    T  1.31D+00 0.00100449 0.00035041 0.00689127 0.00308196    0.0337480 ----
   182   0   0   F    F -6.94D-02 0.00100449 0.00035041 0.00047834 0.00021393    0.0337457 ---+
   183   0   0   F    T  1.97D+00 0.00074882 0.00027407 0.00653658 0.00286803    0.0337457 ----
   184   0   0   F    F -1.58D-01 0.00074882 0.00027407 0.00103250 0.00045302    0.0337439 ----
   185   0   0   F    T  2.88D+00 0.00050140 0.00020389 0.00536935 0.00241501    0.0337439 ----
   186   0   0   F    F -4.51D-01 0.00050140 0.00020389 0.00241927 0.00108813    0.0337435 ----
   187   0   0   F    T  1.39D+00 0.00047948 0.00021517 0.00325319 0.00132688    0.0337429 ----
   188   0   0   F    F -1.15D-01 0.00047948 0.00021517 0.00037521 0.00015304    0.0337420 --++
   189   0   0   F    T  2.04D+00 0.00045589 0.00016273 0.00252264 0.00117384    0.0337420 ----
   190   0   0   F    F  8.46D-01 0.00045589 0.00016273 0.00213333 0.00099268    0.0337408 ----
   191   0   0   F    T  1.62D+00 0.00062674 0.00024620 0.00409972 0.00216652    0.0337405 ----
   192   0   0   F    F -3.91D-01 0.00062674 0.00024620 0.00160231 0.00084675    0.0337400 ----
   193   0   0   F    T  2.31D+00 0.00038388 0.00015857 0.00268878 0.00131977    0.0337396 ----
   194   0   0   F    F -3.62D-01 0.00038388 0.00015857 0.00097435 0.00047825    0.0337393 ----
   195   0   0   F    T  2.06D+00 0.00024228 0.00013071 0.00189543 0.00084152    0.0337391 ----
   196   0   0   F    F  4.48D-01 0.00024228 0.00013071 0.00084860 0.00037675    0.0337384 ----
   197   0   0   F    T  1.15D+00 0.00060838 0.00020831 0.00297228 0.00121827    0.0337383 ----
   198   0   0   F    T  2.96D+00 0.00031939 0.00011686 0.00292628 0.00121827    0.0337376 ----
   199   0   0   F    F -3.71D-01 0.00031939 0.00011686 0.00108694 0.00045252    0.0337374 ----
   200   0   0   F    T  1.96D+00 0.00029222 0.00011764 0.00164675 0.00076576    0.0337373 ----
   201   0   0   F    T  1.00D+00 0.00047463 0.00017610 0.00206465 0.00098161    0.0337369 ----
   202   0   0   F    F  5.81D-01 0.00047463 0.00017610 0.00120004 0.00057054    0.0337364 ----
   203   0   0   F    T  5.77D+00 0.00044198 0.00016176 0.00382361 0.00155215    0.0337363 ----
   204   0   0   T    F  1.18D-01 0.00044198 0.00016176 0.00045118 0.00018315    0.0337510 ---+
   205   0   0   F    T  1.79D+00 0.00020777 0.00007898 0.00048709 0.00018315    0.0337361 ---+
   206   0   0   F    T  2.26D+00 0.00017362 0.00005955 0.00043826 0.00018315    0.0337359 -+++
   207   0   0   F    T  1.30D+00 0.00016994 0.00007021 0.00035925 0.00018315    0.0337358 -+++
   208   0   0   F    F  9.29D-01 0.00016994 0.00007021 0.00033389 0.00017022    0.0337356 -+++
   209   0   0   F    T  1.29D+00 0.00022814 0.00009853 0.00076599 0.00035337    0.0337356 ----
   210   0   0   F    T  3.74D+00 0.00010828 0.00004785 0.00077035 0.00035337    0.0337354 ++--
   211   0   0   F    F  4.28D-01 0.00010828 0.00004785 0.00032983 0.00015130    0.0337353 ++++
   212   0   0   F    T  2.81D+00 0.00015273 0.00006685 0.00119265 0.00050468    0.0337352 -+--
   213   0   0   F    F -3.98D-01 0.00015273 0.00006685 0.00047504 0.00020101    0.0337352 -+-+
   214   0   0   F    T  1.47D+00 0.00016493 0.00006840 0.00074504 0.00030366    0.0337351 -+--
   215   0   0   F    T  1.95D+00 0.00011977 0.00005724 0.00062732 0.00030366    0.0337350 -+--
   216   0   0   F    F  4.86D-01 0.00011977 0.00005724 0.00030492 0.00014760    0.0337349 -+++
   217   0   0   F    T  1.88D+00 0.00014148 0.00006949 0.00102564 0.00045126    0.0337349 -+--
   218   0   0   F    F  7.04D-01 0.00014148 0.00006949 0.00072251 0.00031789    0.0337347 -+--
   219   0   0   F    T  3.13D+00 0.00020017 0.00006903 0.00183081 0.00076915    0.0337346 -+--
   220   0   0   T    F  3.01D-01 0.00020017 0.00006903 0.00055027 0.00023118    0.0337349 -+-+
   221   0   0   F    T  1.68D+00 0.00011840 0.00004977 0.00048735 0.00023118    0.0337346 -+-+
   222   0   0   F    F  1.12D+00 0.00011840 0.00004977 0.00054704 0.00025949    0.0337345 -+-+
   223   0   0   F    T  1.95D+00 0.00019568 0.00006614 0.00111565 0.00049066    0.0337344 -+--
   224   0   0   F    F  4.12D-01 0.00019568 0.00006614 0.00045955 0.00020211    0.0337343 -+-+
   225   0   0   F    T  3.43D+00 0.00014268 0.00005801 0.00177277 0.00069278    0.0337343 -+--
   226   0   0   T    F  3.66D-01 0.00014268 0.00005801 0.00064870 0.00025350    0.0337344 -+-+
   227   0   0   F    T  1.43D+00 0.00014615 0.00005308 0.00049352 0.00025350    0.0337342 -+-+
   228   0   0   F    T  3.26D+00 0.00010083 0.00004348 0.00050466 0.00025350    0.0337341 ++-+
   229   0   0   F    T  1.00D+00 0.00015901 0.00007226 0.00054478 0.00025561    0.0337340 -+-+
   230   0   0   F    F  8.21D-01 0.00015901 0.00007226 0.00044751 0.00020997    0.0337339 -+++
   231   0   0   F    T  1.80D+00 0.00024712 0.00009498 0.00108824 0.00046558    0.0337339 ----
   232   0   0   F    T  1.60D+00 0.00023221 0.00007958 0.00117861 0.00046558    0.0337337 ----
   233   0   0   F    T  2.77D+00 0.00028076 0.00009744 0.00095931 0.00046558    0.0337337 ----
   234   0   0   T    F  3.86D-01 0.00028076 0.00009744 0.00037015 0.00017965    0.0337339 --++
   235   0   0   F    T  3.02D+00 0.00010253 0.00004563 0.00043163 0.00017965    0.0337336 ====
 ****************************
 MOLECULAR MECHANICS FUNCTION
 ****************************
 Atomic parameters:
 Center  VDW
      1 1.9080 0.0860000
      2 1.7210 0.2104000
      3 1.9080 0.1094000
      4 1.4870 0.0157000
      5 1.4870 0.0157000
      6 1.8750 0.1700000
      7 0.6000 0.0157000
      8 0.6000 0.0157000
      9 1.6612 0.2100000
     10 0.0000 0.0000000
 Molecular mechanics terms:
 NBDir 3 1      0      0
 HrmStr1  1- 2  431.53 1.3510
 HrmStr1  1- 3  294.15 1.5090
 HrmStr1  1- 9  946.08 1.2030
 HrmStr1  2-10  566.76 0.9680
 HrmStr1  3- 4  358.05 1.0960
 HrmStr1  3- 5  358.05 1.0960
 HrmStr1  3- 6  380.82 1.4520
 HrmStr1  6- 7  506.01 1.0110
 HrmStr1  6- 8  506.01 1.0110
 HrmBnd1  1- 2-10  56.55 107.23
 HrmBnd1  1- 3- 4  46.41 106.89
 HrmBnd1  1- 3- 5  46.41 106.89
 HrmBnd1  1- 3- 6  59.93 110.61
 HrmBnd1  2- 1- 3  67.92 111.72
 HrmBnd1  2- 1- 9  91.40 123.02
 HrmBnd1  3- 1- 9  62.83 125.24
 HrmBnd1  3- 6- 7  52.60 110.71
 HrmBnd1  3- 6- 8  52.60 110.71
 HrmBnd1  4- 3- 5  44.68 106.22
 HrmBnd1  4- 3- 6  52.45 112.94
 HrmBnd1  5- 3- 6  52.45 112.94
 HrmBnd1  7- 6- 8  47.09 108.63
 AmbTrs  3- 1- 2-10   0 180   0   0  0.0000 14.5000  0.0000  0.0000  2.0
 AmbTrs  9- 1- 2-10   0   0   0   0  0.0000  0.0000  0.0000  0.0000  2.0
 AmbTrs  2- 1- 3- 4   0   0   0   0  0.0000 14.5000  0.0000  0.0000  6.0
 AmbTrs  2- 1- 3- 5   0   0   0   0  0.0000 14.5000  0.0000  0.0000  6.0
 AmbTrs  2- 1- 3- 6   0   0   0   0  0.0000 14.5000  0.0000  0.0000  6.0
 AmbTrs  9- 1- 3- 4   0   0   0   0  0.0000 14.5000  0.0000  0.0000  6.0
 AmbTrs  9- 1- 3- 5   0   0   0   0  0.0000 14.5000  0.0000  0.0000  6.0
 AmbTrs  9- 1- 3- 6   0   0   0   0  0.0000 14.5000  0.0000  0.0000  6.0
 AmbTrs  1- 3- 6- 7   0 180   0   0  0.0000 25.6300  0.0000  0.0000  6.0
 AmbTrs  1- 3- 6- 8   0 180   0   0  0.0000 25.6300  0.0000  0.0000  6.0
 AmbTrs  4- 3- 6- 7   0   0   0   0  0.0000 16.9300  0.0000  0.0000  6.0
 AmbTrs  4- 3- 6- 8   0   0   0   0  0.0000 16.9300  0.0000  0.0000  6.0
 AmbTrs  5- 3- 6- 7   0   0   0   0  0.0000 16.9300  0.0000  0.0000  6.0
 AmbTrs  5- 3- 6- 8   0   0   0   0  0.0000 16.9300  0.0000  0.0000  6.0
 NBPair  2- 1 3 1      0      0 -1.000 -1.000
 NBPair  3- 2 3 1      0      0 -1.000 -1.000
 NBPair 10- 3 3 1      0      0 -0.500 -0.167
 NBPair  9- 2 3 1      0      0 -1.000 -1.000
 NBPair 10- 9 3 1      0      0 -0.500 -0.167
 NBPair  3- 1 3 1      0      0 -1.000 -1.000
 NBPair  4- 2 3 1      0      0 -0.500 -0.167
 NBPair  5- 2 3 1      0      0 -0.500 -0.167
 NBPair  6- 2 3 1      0      0 -0.500 -0.167
 NBPair  9- 3 3 1      0      0 -1.000 -1.000
 NBPair  9- 4 3 1      0      0 -0.500 -0.167
 NBPair  9- 5 3 1      0      0 -0.500 -0.167
 NBPair  9- 6 3 1      0      0 -0.500 -0.167
 NBPair  9- 1 3 1      0      0 -1.000 -1.000
 NBPair 10- 1 3 1      0      0 -1.000 -1.000
 NBPair 10- 2 3 1      0      0 -1.000 -1.000
 NBPair  4- 1 3 1      0      0 -1.000 -1.000
 NBPair  5- 1 3 1      0      0 -1.000 -1.000
 NBPair  6- 1 3 1      0      0 -1.000 -1.000
 NBPair  4- 3 3 1      0      0 -1.000 -1.000
 NBPair  5- 4 3 1      0      0 -1.000 -1.000
 NBPair  6- 4 3 1      0      0 -1.000 -1.000
 NBPair  5- 3 3 1      0      0 -1.000 -1.000
 NBPair  6- 5 3 1      0      0 -1.000 -1.000
 NBPair  6- 3 3 1      0      0 -1.000 -1.000
 NBPair  7- 1 3 1      0      0 -0.500 -0.167
 NBPair  8- 1 3 1      0      0 -0.500 -0.167
 NBPair  7- 4 3 1      0      0 -0.500 -0.167
 NBPair  8- 4 3 1      0      0 -0.500 -0.167
 NBPair  7- 5 3 1      0      0 -0.500 -0.167
 NBPair  8- 5 3 1      0      0 -0.500 -0.167
 NBPair  7- 3 3 1      0      0 -1.000 -1.000
 NBPair  8- 3 3 1      0      0 -1.000 -1.000
 NBPair  7- 6 3 1      0      0 -1.000 -1.000
 NBPair  8- 7 3 1      0      0 -1.000 -1.000
 NBPair  8- 6 3 1      0      0 -1.000 -1.000
 Energy per function type:
 Direct Coulomb + vdW (small)                           0.001978943
 Direct Coulomb (large)                                -0.132408612
 Direct vdW (large)                                   270.332779798
 Non-direct Coulomb + vdW (small)                      -0.011333591
 Non-direct Coulomb (large)                             0.138455126
 Non-direct vdW (large)                              -270.332779798
 Harmonic stretch I                                     0.000076178
 Harmonic bend I                                        0.008188300
 Amber torsion                                          0.028777213
 Energy per function class:
        Coulomb              -0.004186694
    Vanderwaals               0.000878560
     Stretching               0.000076178
        Bending               0.008188300
        Torsion               0.028777213
 Energy=    3.373355694E-02 NIter=   0.
 Dipole moment=       0.273181      -0.422107      -0.195809
 Leave Link  402 at Wed Nov 29 12:05:22 2023, MaxMem=   134217728 cpu:               0.4 elap:               0.4
 (Enter /home/emanuele/chem_software/gaussian//gdv/l716.exe)
 Dipole        = 2.73180764D-01-4.22106884D-01-1.95809298D-01
 -------------------------------------------------------------------
 Center     Atomic                   Forces (Hartrees/Bohr)
 Number     Number              X              Y              Z
 -------------------------------------------------------------------
      1        6           0.000055651   -0.000064504   -0.000057485
      2        8           0.000010064    0.000004615   -0.000017955
      3        6           0.000006887    0.000073142   -0.000082670
      4        1           0.000022342   -0.000006044    0.000000892
      5        1           0.000007872    0.000039124    0.000070671
      6        7           0.000093798   -0.000040317    0.000039786
      7        1          -0.000102533    0.000024989    0.000011483
      8        1          -0.000052561   -0.000057077   -0.000000752
      9        8          -0.000025151   -0.000001729    0.000033700
     10        1          -0.000016368    0.000027800    0.000002330
 -------------------------------------------------------------------
 Cartesian Forces:  Max     0.000102533 RMS     0.000045635
 Z-matrix is all fixed cartesians, so copy forces.
 Leave Link  716 at Wed Nov 29 12:05:22 2023, MaxMem=   134217728 cpu:               0.0 elap:               0.0
 (Enter /home/emanuele/chem_software/gaussian//gdv/l103.exe)

 GradGradGradGradGradGradGradGradGradGradGradGradGradGradGradGradGradGrad
 Berny optimization.
 Search for a local minimum.
 Step number   1 out of a maximum of    2
 All quantities printed in internal units (Hartrees-Bohrs-Radians)
 RMS Force = .45635D-04 SwitMx=.10000D-02 MixMth= 2
 Mixed Optimization -- En-DIIS/RFO-DIIS
 Second derivative matrix not updated -- unit matrix used.
 ITU=  0
 RFO step:  Lambda=-6.24764679D-08 EMin= 1.00000000D+00
 Linear search not attempted -- first point.
 Variable       Old X    -DE/DX   Delta X   Delta X   Delta X     New X
                                 (Linear)    (Quad)   (Total)
    X1       -1.11568   0.00006   0.00000   0.00006   0.00006  -1.11562
    Y1       -0.01528  -0.00006   0.00000  -0.00006  -0.00006  -0.01535
    Z1        0.63585  -0.00006   0.00000  -0.00006  -0.00006   0.63580
    X2       -2.40430   0.00001   0.00000   0.00001   0.00001  -2.40429
    Y2       -0.50280   0.00000   0.00000   0.00000   0.00000  -0.50280
    Z2       -1.50838  -0.00002   0.00000  -0.00002  -0.00002  -1.50840
    X3        1.40261   0.00001   0.00000   0.00001   0.00001   1.40262
    Y3       -1.38428   0.00007   0.00000   0.00007   0.00007  -1.38420
    Z3        0.75979  -0.00008   0.00000  -0.00008  -0.00008   0.75971
    X4        1.67372   0.00002   0.00000   0.00002   0.00002   1.67374
    Y4       -1.66429  -0.00001   0.00000  -0.00001  -0.00001  -1.66429
    Z4        2.79504   0.00000   0.00000   0.00000   0.00000   2.79504
    X5        1.00246   0.00001   0.00000   0.00001   0.00001   1.00247
    Y5       -3.26068   0.00004   0.00000   0.00004   0.00004  -3.26064
    Z5       -0.02539   0.00007   0.00000   0.00007   0.00007  -0.02532
    X6        3.37256   0.00009   0.00000   0.00009   0.00009   3.37265
    Y6        0.07480  -0.00004   0.00000  -0.00004  -0.00004   0.07476
    Z6       -0.50200   0.00004   0.00000   0.00004   0.00004  -0.50196
    X7        2.97864  -0.00010   0.00000  -0.00010  -0.00010   2.97854
    Y7        1.81098   0.00002   0.00000   0.00002   0.00002   1.81101
    Z7       -1.19929   0.00001   0.00000   0.00001   0.00001  -1.19928
    X8        5.19065  -0.00005   0.00000  -0.00005  -0.00005   5.19059
    Y8       -0.51245  -0.00006   0.00000  -0.00006  -0.00006  -0.51251
    Z8       -0.44916  -0.00000   0.00000  -0.00000  -0.00000  -0.44916
    X9       -1.94787  -0.00003   0.00000  -0.00003  -0.00003  -1.94789
    Y9        1.35470  -0.00000   0.00000  -0.00000  -0.00000   1.35470
    Z9        2.24541   0.00003   0.00000   0.00003   0.00003   2.24544
   X10       -3.95066  -0.00002   0.00000  -0.00002  -0.00002  -3.95067
   Y10        0.46425   0.00003   0.00000   0.00003   0.00003   0.46427
   Z10       -1.38191   0.00000   0.00000   0.00000   0.00000  -1.38191
         Item               Value     Threshold  Converged?
 Maximum Force            0.000103     0.000450     YES
 RMS     Force            0.000046     0.000300     YES
 Maximum Displacement     0.000103     0.001800     YES
 RMS     Displacement     0.000046     0.001200     YES
 Predicted change in Energy=-3.123823D-08
 Optimization completed.
    -- Stationary point found.
 Largest change from initial coordinates is atom    9       0.729 Angstoms.
 GradGradGradGradGradGradGradGradGradGradGradGradGradGradGradGradGradGrad

 Leave Link  103 at Wed Nov 29 12:05:22 2023, MaxMem=   134217728 cpu:               0.0 elap:               0.0
 (Enter /home/emanuele/chem_software/gaussian//gdv/l202.exe)
                          Input orientation:                          
 ---------------------------------------------------------------------
 Center     Atomic      Atomic             Coordinates (Angstroms)
 Number     Number       Type             X           Y           Z
 ---------------------------------------------------------------------
      1          6    20001002       -0.590391   -0.008088    0.336479
      2          8    20001022       -1.272300   -0.266070   -0.798202
      3          6    20001001        0.742229   -0.732528    0.402065
      4          1    20001034        0.885692   -0.880702    1.479070
      5          1    20001034        0.530479   -1.725479   -0.013438
      6          7    20001020        1.784681    0.039580   -0.265648
      7          1    20001029        1.576231    0.958330   -0.634636
      8          1    20001029        2.746771   -0.271177   -0.237684
      9          8    20001025       -1.030768    0.716877    1.188219
     10          1    20001031       -2.090597    0.245668   -0.731275
 ---------------------------------------------------------------------
                    Distance matrix (angstroms):
                    1          2          3          4          5
     1  C    0.000000
     2  O    1.348724   0.000000
     3  C    1.518219   2.390931   0.000000
     4  H    2.060532   3.196978   1.096575   0.000000
     5  H    2.080438   2.448620   1.097011   1.751401   0.000000
     6  N    2.450672   3.118039   1.459005   2.167750   2.179924
     7  H    2.563451   3.104841   2.151582   2.885591   2.946577
     8  H    3.396400   4.057972   2.154139   2.604301   2.660307
     9  O    1.202068   2.229438   2.421225   2.511906   3.137925
    10  H    1.858792   0.967453   3.204095   3.874614   3.357193
                    6          7          8          9         10
     6  N    0.000000
     7  H    1.011783   0.000000
     8  H    1.011420   1.743394   0.000000
     9  O    3.240249   3.190226   4.156832   0.000000
    10  H    3.908587   3.736690   4.889876   2.242707   0.000000
 Symmetry turned off by external request.
 Stoichiometry    C2H5NO2
 Framework group  C1[X(C2H5NO2)]
 Deg. of freedom    24
 Full point group                 C1      NOp   1
 Rotational constants (GHZ):           8.9765669           3.8859713           3.1869516
 Leave Link  202 at Wed Nov 29 12:05:22 2023, MaxMem=   134217728 cpu:               0.0 elap:               0.0
 (Enter /home/emanuele/chem_software/gaussian//gdv/l9999.exe)
 Unable to Open any file for archive entry.
 1\1\GINC-EMANUELE-XPS-13-9343\FOpt\AMBER\ZDO\C2H5N1O2\EMANUELE\29-Nov-
 2023\0\\#p Amber=(SoftFirst,Print) geom=nocrowd nosymm opt=(maxcycle=3
 00)\\Title\\0,1\C,-0.5903913653,-0.0080880912,0.3364791673\O,-1.272299
 8401,-0.2660701779,-0.7982022837\C,0.7422286804,-0.7325275051,0.402065
 1845\H,0.8856919878,-0.880702238,1.4790698072\H,0.5304786236,-1.725479
 194,-0.0134379642\N,1.7846805155,0.0395804311,-0.2656476387\H,1.576230
 8612,0.9583296593,-0.6346360457\H,2.7467712456,-0.2711768766,-0.237684
 229\O,-1.0307679983,0.716876976,1.1882194902\H,-2.0905967103,0.2456680
 163,-0.7312754879\\Version=ES64L-GDVRevJ.14\HF=0.0337336\RMSD=0.000e+0
 0\RMSF=4.563e-05\Dipole=0.2731808,-0.4221069,-0.1958093\PG=C01 [X(C2H5
 N1O2)]\\@
 The archive entry for this job was punched.


 IT WAS A GAME, A VERY INTERESTING GAME ONE COULD
 PLAY.  WHENEVER ONE SOLVED ONE OF THE LITTLE PROBLEMS,
 ONE COULD WRITE A PAPER ABOUT IT.  IT WAS VERY EASY IN
 THOSE DAYS FOR ANY SECOND-RATE PHYSICIST TO DO
 FIRST-RATE WORK.  THERE HAS NOT BEEN SUCH A GLORIOUS
 TIME SINCE.  IT IS VERY DIFFICULT NOW FOR A FIRST-RATE
 PHYSICIST TO DO SECOND-RATE WORK.
     P.A.M. DIRAC, ON THE EARLY DAYS OF QUANTUM MECHANICS
                   DIRECTIONS IN PHYSICS, 1978, P. 7
 Job cpu time:       0 days  0 hours  0 minutes  1.0 seconds.
 Elapsed time:       0 days  0 hours  0 minutes  0.9 seconds.
 File lengths (MBytes):  RWF=      6 Int=      0 D2E=      0 Chk=      1 Scr=      1
 Normal termination of Gaussian DV at Wed Nov 29 12:05:22 2023.
