 Entering Gaussian System, Link 0=/home/emanuele/chem_software/gaussian//g09/g09
 Input=1_mm_50.gjf
 Output=1_mm_50.log
 Initial command:
 /home/emanuele/chem_software/gaussian//gdv/l1.exe "/home/emanuele/chem_software/gaussian/scratch/Gau-13834.inp" -scrdir="/home/emanuele/chem_software/gaussian/scratch/"
 Entering Link 1 = /home/emanuele/chem_software/gaussian//gdv/l1.exe PID=     13836.
  
 Copyright (c) 1988-2020, Gaussian, Inc.  All Rights Reserved.
  
 This is the private, development version of
 the Gaussian(R) DV system of programs. It is based on
 the Gaussian(R) 16 system (copyright 2016, Gaussian, Inc.),
 the Gaussian(R) 09 system (copyright 2009, Gaussian, Inc.),
 the Gaussian(R) 03 system (copyright 2003, Gaussian, Inc.),
 the Gaussian(R) 98 system (copyright 1998, Gaussian, Inc.),
 the Gaussian(R) 94 system (copyright 1995, Gaussian, Inc.),
 the Gaussian 92(TM) system (copyright 1992, Gaussian, Inc.),
 the Gaussian 90(TM) system (copyright 1990, Gaussian, Inc.),
 the Gaussian 88(TM) system (copyright 1988, Gaussian, Inc.),
 the Gaussian 86(TM) system (copyright 1986, Carnegie Mellon
 University), and the Gaussian 82(TM) system (copyright 1983,
 Carnegie Mellon University). Gaussian is a federally registered
 trademark of Gaussian, Inc.
  
 This software contains proprietary and confidential information,
 including trade secrets, belonging to Gaussian, Inc.
  
 This software is provided under written license and may be
 used, copied, transmitted, or stored only in accord with that
 written license.
  
 The following legend is applicable only to US Government
 contracts under FAR:
  
                    RESTRICTED RIGHTS LEGEND
  
 Use, reproduction and disclosure by the US Government is
 subject to restrictions as set forth in subparagraphs (a)
 and (c) of the Commercial Computer Software - Restricted
 Rights clause in FAR 52.227-19.
  
 Gaussian, Inc.
 340 Quinnipiac St., Bldg. 40, Wallingford CT 06492
  
  
 ---------------------------------------------------------------
 Warning -- This program may not be used in any manner that
 competes with the business of Gaussian, Inc. or will provide
 assistance to any competitor of Gaussian, Inc.  The licensee
 of this program is prohibited from giving any competitor of
 Gaussian, Inc. access to this program.  By using this program,
 the user acknowledges that Gaussian, Inc. is engaged in the
 business of creating and licensing software in the field of
 computational chemistry and represents and warrants to the
 licensee that it is not a competitor of Gaussian, Inc. and that
 it will not use this program in any manner prohibited above.
 ---------------------------------------------------------------
  

 Cite this work as:
 Gaussian Development Version, Revision J.14,
 M. J. Frisch, G. W. Trucks, H. B. Schlegel, G. E. Scuseria, 
 M. A. Robb, J. R. Cheeseman, G. Scalmani, V. Barone, 
 G. A. Petersson, H. Nakatsuji, X. Li, A. V. Marenich, M. Caricato, 
 J. Bloino, B. G. Janesko, J. Zheng, R. Gomperts, B. Mennucci, 
 H. P. Hratchian, J. V. Ortiz, A. F. Izmaylov, J. L. Sonnenberg, 
 D. Williams-Young, F. Ding, F. Lipparini, F. Egidi, J. Goings, 
 B. Peng, A. Petrone, T. Henderson, D. Ranasinghe, V. G. Zakrzewski, 
 J. Gao, N. Rega, G. Zheng, W. Liang, M. Hada, M. Ehara, K. Toyota, 
 R. Fukuda, J. Hasegawa, M. Ishida, T. Nakajima, Y. Honda, O. Kitao, 
 H. Nakai, T. Vreven, K. Throssell, J. A. Montgomery, Jr., 
 J. E. Peralta, F. Ogliaro, M. J. Bearpark, J. J. Heyd, 
 E. N. Brothers, K. N. Kudin, V. N. Staroverov, T. A. Keith, 
 R. Kobayashi, J. Normand, K. Raghavachari, A. P. Rendell, 
 J. C. Burant, S. S. Iyengar, J. Tomasi, M. Cossi, J. M. Millam, 
 M. Klene, C. Adamo, R. Cammi, J. W. Ochterski, R. L. Martin, 
 K. Morokuma, O. Farkas, J. B. Foresman, and D. J. Fox, 
 Gaussian, Inc., Wallingford CT, 2020.
 
 ******************************************
 Gaussian DV:  ES64L-GDVRevJ.14 29-Dec-2020
                29-Nov-2023 
 ******************************************
 %mem=1GB
 %nprocshared=1
 Will use up to    1 processors via shared memory.
 %chk=1_mm_50.chk
 -----------------------------------------------------------------
 #p Amber=(SoftFirst,Print) geom=nocrowd nosymm opt=(maxcycle=300)
 -----------------------------------------------------------------
 1/6=300,10=10,18=4000020,19=15,37=210000000,38=1,56=2,64=203/1,3;
 2/9=110,12=1,15=1,40=1/2;
 3/5=30,11=9,25=1,30=1,41=10030000,43=2,71=1/1;
 4/20=11,22=1001,24=3,119=11/2;
 7/30=1,44=-1/16;
 1/6=300,10=10,18=4000020,19=15,64=203/3(2);
 2/9=110,12=1,15=1/2;
 99//99;
 2/9=110,12=1,15=1/2;
 3/5=30,11=9,25=1,30=1,41=10030000,43=2,71=1/1;
 4/16=2,20=11,22=1001,24=3,119=11/2;
 7/30=1,44=-1/16;
 1/6=300,10=10,18=4000020,19=15,64=203/3(-4);
 2/9=110,12=1,15=1/2;
 99/9=10/99;
 Leave Link    1 at Wed Nov 29 12:05:26 2023, MaxMem=   134217728 cpu:               0.0 elap:               0.1
 (Enter /home/emanuele/chem_software/gaussian//gdv/l101.exe)
 -----
 Title
 -----
 Symbolic Z-matrix:
 Charge =  0 Multiplicity = 1
 C-C-+0.299289        -0.6254   -0.05279   0.34351 
 O-OH--0.289770       -0.70739  -0.21008  -1.02421 
 C-CT--0.035454        0.78416  -0.29087   0.8291 
 H-HC-+0.090426        1.13521   0.03829   1.84616 
 H-HC-+0.095387        0.68459  -1.40281   0.86167 
 N-N3--0.336253        1.78862   0.17053  -0.1701 
 H-H-+0.142619         2.19933  -0.69621  -0.54082 
 H-H-+0.128282         1.2634    0.36036  -1.02545 
 O-O2--0.308037       -1.6171    0.20127   0.98055 
 H-HO-+0.213510       -1.6234   -0.04128  -1.37545 
 
 ITRead=  3  3  3  3  3  3  3  3  3  3
 MicOpt=  0  0  0  0  0  0  0  0  0  0
 NAtoms=     10 NQM=        0 NQMF=       0 NMMI=      0 NMMIF=      0
                NMic=      10 NMicF=      0.
                    Isotopes and Nuclear Properties:
 (Nuclear quadrupole moments (NQMom) in fm**2, nuclear magnetic moments (NMagM)
  in nuclear magnetons)

  Atom         1           2           3           4           5           6           7           8           9          10
 IAtWgt=          12          16          12           1           1          14           1           1          16           1
 AtmWgt=  12.0000000  15.9949146  12.0000000   1.0078250   1.0078250  14.0030740   1.0078250   1.0078250  15.9949146   1.0078250
 NucSpn=           0           0           0           1           1           2           1           1           0           1
 AtZEff=  -0.0000000  -0.0000000  -0.0000000  -0.0000000  -0.0000000  -0.0000000  -0.0000000  -0.0000000  -0.0000000  -0.0000000
 NQMom=    0.0000000   0.0000000   0.0000000   0.0000000   0.0000000   2.0440000   0.0000000   0.0000000   0.0000000   0.0000000
 NMagM=    0.0000000   0.0000000   0.0000000   2.7928460   2.7928460   0.4037610   2.7928460   2.7928460   0.0000000   2.7928460
 AtZNuc=   6.0000000   8.0000000   6.0000000   1.0000000   1.0000000   7.0000000   1.0000000   1.0000000   8.0000000   1.0000000
 Generating MM parameters.
 I=    1 IAn=  6 Valence= 5.
          JB=  1 J=    2 IAn=  8 IBT=12 Dist= 1.38D+00
          JB=  2 J=    3 IAn=  6 IBT= 1 Dist= 1.51D+00
          JB=  3 J=    9 IAn=  8 IBT= 2 Dist= 1.21D+00
 I=    2 IAn=  8 Valence= 3.
          JB=  1 J=    1 IAn=  6 IBT=12 Dist= 1.38D+00
          JB=  2 J=   10 IAn=  1 IBT= 1 Dist= 9.95D-01
 Read MM parameter file:
 Include all MM classes

 MM sanity checks:
 All charges sum to:               -0.00000100
 Charges of atoms sum to:          -0.00000100
 WARNING -- The following centers have non-zero partial charges, but zero Vanderwaals
 parameters.  These centers can collapse onto other centers with non-zero charge.
   Center  Layer   Charge
     10 H    R    0.213510
 MMInit generated parameter data with length LenPar=        2069.
 MM Charge=             -0.0000 electrons
 MM Dipole moment (Debye):
    X=              0.8827    Y=             -1.2305    Z=             -0.6142  Tot=              1.6342
 MM Quadrupole moment (Debye-Ang):
   XX=             -1.5008   YY=              1.1373   ZZ=              1.7322
   XY=             -1.2524   XZ=              3.2669   YZ=             -0.9643
 MM Traceless Quadrupole moment (Debye-Ang):
   XX=             -1.9570   YY=              0.6811   ZZ=              1.2759
   XY=             -1.2524   XZ=              3.2669   YZ=             -0.9643
 MM Octapole moment (Debye-Ang**2):
  XXX=              1.9988  YYY=             -1.4704  ZZZ=             -0.3456  XYY=              1.4890
  XXY=             -3.8566  XXZ=             -7.3949  XZZ=              3.0748  YZZ=             -0.3691
  YYZ=              0.5156  XYZ=              0.6571
 MM Hexadecapole moment (Debye-Ang**3):
 XXXX=             -1.2984 YYYY=              1.9379 ZZZZ=              6.7472 XXXY=             -5.0044
 XXXZ=              9.1327 YYYX=             -1.3382 YYYZ=             -1.0145 ZZZX=              7.6570
 ZZZY=             -0.9288 XXYY=              1.8168 XXZZ=              4.5779 YYZZ=              0.7233
 XXYZ=              0.0692 YYXZ=              0.0931 ZZXY=              0.1199
 Leave Link  101 at Wed Nov 29 12:05:26 2023, MaxMem=   134217728 cpu:               0.3 elap:               0.3
 (Enter /home/emanuele/chem_software/gaussian//gdv/l103.exe)

 GradGradGradGradGradGradGradGradGradGradGradGradGradGradGradGradGradGrad
 Berny optimization.
 Initialization pass.
 No Z-matrix variables, so optimization will use Cartesian coordinates.
 Trust Radius=1.00D-01 FncErr=1.00D-07 GrdErr=1.00D-07 EigMax=2.50D+02 EigMin=1.00D-04
 Number of steps in this run=      2 maximum allowed number of steps=      2.
 GradGradGradGradGradGradGradGradGradGradGradGradGradGradGradGradGradGrad

 Leave Link  103 at Wed Nov 29 12:05:26 2023, MaxMem=   134217728 cpu:               0.0 elap:               0.0
 (Enter /home/emanuele/chem_software/gaussian//gdv/l202.exe)
                          Input orientation:                          
 ---------------------------------------------------------------------
 Center     Atomic      Atomic             Coordinates (Angstroms)
 Number     Number       Type             X           Y           Z
 ---------------------------------------------------------------------
      1          6    20001002       -0.625396   -0.052789    0.343514
      2          8    20001022       -0.707387   -0.210079   -1.024214
      3          6    20001001        0.784156   -0.290869    0.829104
      4          1    20001034        1.135210    0.038290    1.846155
      5          1    20001034        0.684592   -1.402813    0.861668
      6          7    20001020        1.788620    0.170533   -0.170102
      7          1    20001029        2.199327   -0.696210   -0.540824
      8          1    20001029        1.263402    0.360361   -1.025452
      9          8    20001025       -1.617101    0.201265    0.980548
     10          1    20001031       -1.623396   -0.041277   -1.375446
 ---------------------------------------------------------------------
                    Distance matrix (angstroms):
                    1          2          3          4          5
     1  C    0.000000
     2  O    1.379182   0.000000
     3  C    1.509741   2.380339   0.000000
     4  H    2.316454   3.419922   1.125157   0.000000
     5  H    1.951183   2.629975   1.116867   1.802512   0.000000
     6  N    2.478134   2.665412   1.490051   2.123611   2.181478
     7  H    3.029043   2.986465   2.010899   2.714683   2.181901
     8  H    2.369033   2.051685   2.023155   2.892454   2.646701
     9  O    1.205751   2.239610   2.455843   2.889819   2.808022
    10  H    1.987702   0.995455   3.273934   4.242046   3.490740
                    6          7          8          9         10
     6  N    0.000000
     7  H    1.028279   0.000000
     8  H    1.021524   1.492368   0.000000
     9  O    3.594979   4.205372   3.513779   0.000000
    10  H    3.624855   3.967208   2.935543   2.368454   0.000000
 Symmetry turned off by external request.
 Stoichiometry    C2H5NO2
 Framework group  C1[X(C2H5NO2)]
 Deg. of freedom    24
 Full point group                 C1      NOp   1
 Rotational constants (GHZ):           9.7188751           4.0940259           3.0558465
 Leave Link  202 at Wed Nov 29 12:05:26 2023, MaxMem=   134217728 cpu:               0.0 elap:               0.0
 (Enter /home/emanuele/chem_software/gaussian//gdv/l301.exe)
 Standard basis: Dummy (5D, 7F)
    10 basis functions,    10 primitive gaussians,    10 cartesian basis functions
     7 alpha electrons        7 beta electrons
       nuclear repulsion energy        22.9233213872 Hartrees.
 IExCor=       0 DFT=F Ex=HF Corr=None N6=None ScaHFX=  1.000000
 ScaDFX=  1.000000  1.000000  1.000000  1.000000  1.000000  0.000000
 ScaDFX=  0.000000  0.000000  0.000000  0.000000  0.000000  0.000000
 IRadAn=      5 IRanWt=     -1 IRanGd=            0 ICorTp=0 IEmpDi=  4
 NAtoms=   10 NActive=   10 NUniq=   10 SFac= 1.00D+00 NAtFMM=   60 NAOKFM=F Big=F
 Integral buffers will be    131072 words long.
 Raffenetti 1 integral format.
 Two-electron integral symmetry is turned off.
 Leave Link  301 at Wed Nov 29 12:05:26 2023, MaxMem=   134217728 cpu:               0.1 elap:               0.1
 (Enter /home/emanuele/chem_software/gaussian//gdv/l402.exe)
 AMBER calculation of energy and first derivatives.
 NRF= 0 NRA=   0 NVA=  10 HaveQM=F NVQ=       0
 Convergence limit is  0.750E-04 MaxStp= 10000 StMxLn= 3.00D-04 StpMin= 1.00D-06.
 Convergence criteria             0.00011250 0.00007500 0.00045000 0.00030000
  Step  NS  ND Rises OKQ   Scale  Max. Force  RMS Force Max. Disp.  RMS Disp.     Energy   Flag
     1   0   0   F    T  1.00D+00 0.04745488 0.01963230 0.04745488 0.01963230    0.0757337 ----
     2   0   0   F    F  7.67D-01 0.04745488 0.01963230 0.03637843 0.01504993    0.0675537 ----
     3   0   0   F    T  2.05D+00 0.03845200 0.01383864 0.07525331 0.03468223    0.0657013 ----
     4   0   0   F    F -8.40D-02 0.03845200 0.01383864 0.00631976 0.00291261    0.0603312 ----
     5   0   0   F    T  1.00D+00 0.04605283 0.01761463 0.08416634 0.03299227    0.0602853 ----
     6   0   0   F    F  6.72D-01 0.04605283 0.01761463 0.05658315 0.02217997    0.0536668 ----
     7   0   0   F    T  4.39D+00 0.02313559 0.00983043 0.12399473 0.05517224    0.0523587 ----
     8   0   0   T    F  3.68D-01 0.02313559 0.00983043 0.04567868 0.02032502    0.0568125 ----
     9   0   0   F    T  2.36D+00 0.01460482 0.00654858 0.04746940 0.02032502    0.0500192 ----
    10   0   0   F    F -7.85D-02 0.01460482 0.00654858 0.00372569 0.00159523    0.0486317 ----
    11   0   0   F    T  1.00D+00 0.02499097 0.00904730 0.03492379 0.01883161    0.0486215 ----
    12   0   0   F    F  6.78D-01 0.02499097 0.00904730 0.02368846 0.01277330    0.0468925 ----
    13   0   0   F    T  2.52D+00 0.01677937 0.00679576 0.05918874 0.03160491    0.0465532 ----
    14   0   0   F    F -1.55D-01 0.01677937 0.00679576 0.00915521 0.00488859    0.0451257 ----
    15   0   0   F    T  3.13D+00 0.01295397 0.00510977 0.07073153 0.02671632    0.0450760 ----
    16   0   0   F    F -2.60D-01 0.01295397 0.00510977 0.01840809 0.00695300    0.0442768 ----
    17   0   0   F    T  1.16D+00 0.02216487 0.00690978 0.05456738 0.01976332    0.0441612 ----
    18   0   0   F    F  4.32D-01 0.02216487 0.00690978 0.02354814 0.00852871    0.0430876 ----
    19   0   0   F    T  1.67D+00 0.01485165 0.00675551 0.07195608 0.02829203    0.0429811 ----
    20   0   0   F    F  7.74D-01 0.01485165 0.00675551 0.05566251 0.02188564    0.0413871 ----
    21   0   0   F    F -1.61D-02 0.01485165 0.00675551 0.00089417 0.00035158    0.0410356 ----
    22   0   0   F    T  4.86D+00 0.00901820 0.00451712 0.13395656 0.04982609    0.0410355 ----
    23   0   0   F    F -3.54D-01 0.00901820 0.00451712 0.04740249 0.01763169    0.0403717 ----
    24   0   0   F    T  1.37D+00 0.02028525 0.00675923 0.08202476 0.03219440    0.0400425 ----
    25   0   0   F    F -4.98D-02 0.02028525 0.00675923 0.00408171 0.00160206    0.0391352 ----
    26   0   0   F    T  2.38D+00 0.01194688 0.00534172 0.07734926 0.03059234    0.0391326 ----
    27   0   0   F    F -3.08D-01 0.01194688 0.00534172 0.02382298 0.00942221    0.0385664 ----
    28   0   0   F    T  2.26D+00 0.01012078 0.00436111 0.05406361 0.02117014    0.0384277 ----
    29   0   0   F    F  8.43D-01 0.01012078 0.00436111 0.04555642 0.01783890    0.0374971 ----
    30   0   0   F    F -2.15D-02 0.01012078 0.00436111 0.00097752 0.00038278    0.0372598 ----
    31   0   0   F    T  3.45D+00 0.00997712 0.00447939 0.10552441 0.03862626    0.0372596 ----
    32   0   0   T    F  4.34D-01 0.00997712 0.00447939 0.04580424 0.01676623    0.0375854 ----
    33   0   0   F    T  1.67D+00 0.01068958 0.00404849 0.04654713 0.01676623    0.0368086 ----
    34   0   0   F    F -2.93D-01 0.01068958 0.00404849 0.01363636 0.00491181    0.0365684 ----
    35   0   0   F    T  2.75D+00 0.00611563 0.00240684 0.03060576 0.01185443    0.0365189 ----
    36   0   0   F    F -9.55D-02 0.00611563 0.00240684 0.00292274 0.00113206    0.0363053 ----
    37   0   0   F    T  3.65D+00 0.00496555 0.00175947 0.02286832 0.01072237    0.0363029 ----
    38   0   0   T    F  4.70D-01 0.00496555 0.00175947 0.01074682 0.00503891    0.0363245 ----
    39   0   0   F    T  1.85D+00 0.00471553 0.00154051 0.01043432 0.00503891    0.0362232 ----
    40   0   0   F    F -9.71D-02 0.00471553 0.00154051 0.00101357 0.00048947    0.0361645 ----
    41   0   0   F    T  1.28D+00 0.00382975 0.00165225 0.00875338 0.00454944    0.0361638 ----
    42   0   0   F    F  3.68D-01 0.00382975 0.00165225 0.00321735 0.00167217    0.0360973 ----
    43   0   0   F    T  2.71D+00 0.00345586 0.00122288 0.01470411 0.00622161    0.0360921 ----
    44   0   0   F    T  3.71D+00 0.00245741 0.00094169 0.01828326 0.00622161    0.0360320 ----
    45   0   0   F    F -4.11D-01 0.00245741 0.00094169 0.00751473 0.00255719    0.0360174 ----
    46   0   0   F    T  1.09D+00 0.00359619 0.00128904 0.01024407 0.00366442    0.0360032 ----
    47   0   0   F    F  5.72D-01 0.00359619 0.00128904 0.00585732 0.00209523    0.0359663 ----
    48   0   0   F    T  2.23D+00 0.00293660 0.00107126 0.01804997 0.00575965    0.0359607 ----
    49   0   0   F    F  1.32D-01 0.00293660 0.00107126 0.00238589 0.00076133    0.0359178 ----
    50   0   0   F    T  2.70D+00 0.00241377 0.00098282 0.02265303 0.00652098    0.0359172 ----
    51   0   0   F    T  2.12D+00 0.00211624 0.00107843 0.02344701 0.00652098    0.0358777 ----
    52   0   0   F    F  9.35D-01 0.00211624 0.00107843 0.02191299 0.00609435    0.0358235 ----
    53   0   0   F    T  1.00D+00 0.00678355 0.00223000 0.05120450 0.01355568    0.0358076 ----
    54   0   0   F    F  5.68D-01 0.00678355 0.00223000 0.02908832 0.00770073    0.0357012 ----
    55   0   0   F    T  2.64D+00 0.00479946 0.00166942 0.07808793 0.02125640    0.0356838 ----
    56   0   0   F    F -1.19D-02 0.00479946 0.00166942 0.00092845 0.00025273    0.0355755 ---+
    57   0   0   F    T  2.71D+00 0.00595219 0.00177552 0.07366409 0.02100367    0.0355754 ----
    58   0   0   F    F -1.62D-01 0.00595219 0.00177552 0.01195510 0.00340873    0.0354775 ----
    59   0   0   F    T  1.25D+00 0.00568122 0.00225904 0.06490161 0.01759494    0.0354742 ----
    60   0   0   F    F  6.33D-02 0.00568122 0.00225904 0.00410628 0.00111322    0.0353668 ----
    61   0   0   F    T  1.88D+00 0.00508562 0.00183897 0.06675448 0.01870816    0.0353664 ----
    62   0   0   F    F  1.79D-01 0.00508562 0.00183897 0.01193983 0.00334618    0.0352544 ----
    63   0   0   F    T  1.76D+00 0.00654364 0.00227692 0.07401230 0.02205433    0.0352517 ----
    64   0   0   F    F  5.65D-01 0.00654364 0.00227692 0.04185059 0.01247072    0.0350886 ----
    65   0   0   F    F -4.25D-02 0.00654364 0.00227692 0.00177907 0.00053013    0.0350703 ----
    66   0   0   F    T  1.03D+00 0.00950921 0.00352185 0.11793724 0.03399493    0.0350703 ----
    67   0   0   F    F -9.10D-02 0.00950921 0.00352185 0.01073333 0.00309384    0.0348714 ----
    68   0   0   F    T  3.99D+00 0.00589211 0.00199617 0.08980857 0.03090109    0.0348686 ----
    69   0   0   F    F -3.04D-01 0.00589211 0.00199617 0.02730389 0.00939465    0.0347338 ----
    70   0   0   F    T  2.73D+00 0.00453611 0.00218141 0.05535510 0.02150644    0.0347013 ----
    71   0   0   T    F  3.92D-01 0.00453611 0.00218141 0.02167563 0.00842137    0.0347928 ----
    72   0   0   F    T  1.97D+00 0.00384299 0.00144337 0.02096358 0.00842137    0.0346261 ----
    73   0   0   F    F -2.39D-01 0.00384299 0.00144337 0.00500098 0.00200896    0.0345838 ----
    74   0   0   F    T  2.24D+00 0.00262813 0.00111164 0.01423928 0.00641240    0.0345791 ----
    75   0   0   F    F  2.08D-01 0.00262813 0.00111164 0.00295516 0.00133080    0.0345305 ----
    76   0   0   F    T  2.42D+00 0.00251122 0.00114118 0.01673248 0.00774320    0.0345290 ----
    77   0   0   F    F -3.59D-01 0.00251122 0.00114118 0.00599962 0.00277641    0.0345081 ----
    78   0   0   F    T  1.33D+00 0.00370966 0.00119893 0.01037180 0.00496679    0.0344987 ----
    79   0   0   F    F  2.30D-01 0.00370966 0.00119893 0.00238261 0.00114097    0.0344646 ----
    80   0   0   F    T  1.89D+00 0.00235333 0.00108654 0.01196223 0.00610776    0.0344634 ----
    81   0   0   F    F  4.15D-01 0.00235333 0.00108654 0.00496149 0.00253328    0.0344202 ----
    82   0   0   F    T  3.21D+00 0.00232129 0.00095754 0.01635554 0.00864104    0.0344161 ----
    83   0   0   F    F -3.32D-01 0.00232129 0.00095754 0.00542796 0.00286773    0.0343939 ----
    84   0   0   F    T  1.00D+00 0.00386825 0.00158698 0.01577739 0.00758055    0.0343866 ----
    85   0   0   F    F  2.49D+00 0.00386825 0.00158698 0.03925569 0.01886115    0.0343214 ----
    86   0   0   F    T  4.75D+00 0.00349431 0.00139023 0.05046811 0.02644170    0.0342525 ----
    87   0   0   T    F  4.04D-01 0.00349431 0.00139023 0.02037916 0.01067723    0.0343141 ----
    88   0   0   F    T  1.42D+00 0.00363810 0.00159339 0.01892143 0.01067723    0.0341974 ----
    89   0   0   F    F -1.41D-01 0.00363810 0.00159339 0.00267342 0.00150859    0.0341525 ----
    90   0   0   F    T  2.10D+00 0.00261111 0.00115276 0.01643573 0.00916864    0.0341513 ----
    91   0   0   F    F  3.73D-01 0.00261111 0.00115276 0.00613292 0.00342124    0.0340981 ----
    92   0   0   F    T  2.21D+00 0.00302780 0.00127750 0.02660600 0.01258987    0.0340939 ----
    93   0   0   F    F -4.21D-02 0.00302780 0.00127750 0.00112010 0.00053003    0.0340416 ----
    94   0   0   F    T  1.32D+00 0.00427140 0.00161411 0.02217985 0.01205985    0.0340415 ----
    95   0   0   F    F -1.15D-01 0.00427140 0.00161411 0.00255142 0.00138728    0.0339965 ----
    96   0   0   F    T  3.81D+00 0.00185501 0.00091185 0.02068051 0.01067257    0.0339957 ----
    97   0   0   T    F  3.98D-01 0.00185501 0.00091185 0.00822742 0.00424592    0.0340197 ----
    98   0   0   F    T  2.49D+00 0.00158171 0.00067823 0.00912741 0.00424592    0.0339768 ----
    99   0   0   F    F -1.10D-01 0.00158171 0.00067823 0.00100362 0.00046686    0.0339618 ----
   100   0   0   F    T  1.10D+00 0.00271128 0.00094068 0.00862289 0.00377905    0.0339615 ----
   101   0   0   F    F  2.10D-01 0.00271128 0.00094068 0.00181218 0.00079420    0.0339443 ----
   102   0   0   F    T  3.70D+00 0.00156023 0.00053839 0.01029203 0.00457325    0.0339438 ----
   103   0   0   F    F -3.60D-01 0.00156023 0.00053839 0.00370168 0.00164484    0.0339367 ----
   104   0   0   F    T  2.13D+00 0.00112875 0.00054418 0.00640936 0.00292842    0.0339335 ----
   105   0   0   F    F -4.91D-01 0.00112875 0.00054418 0.00314463 0.00143677    0.0339331 ----
   106   0   0   F    T  1.53D+00 0.00121774 0.00043449 0.00378872 0.00149164    0.0339287 ----
   107   0   0   F    F  4.21D-01 0.00121774 0.00043449 0.00159516 0.00062802    0.0339230 ----
   108   0   0   F    T  1.71D+00 0.00134099 0.00047084 0.00516872 0.00211967    0.0339225 ----
   109   0   0   F    F  5.13D-01 0.00134099 0.00047084 0.00265332 0.00108811    0.0339149 ----
   110   0   0   F    T  2.06D+00 0.00141072 0.00051409 0.00851962 0.00320778    0.0339139 ----
   111   0   0   F    F -3.76D-01 0.00141072 0.00051409 0.00320100 0.00120523    0.0339107 ----
   112   0   0   F    T  1.46D+00 0.00115540 0.00046588 0.00557792 0.00200255    0.0339088 ----
   113   0   0   F    F  1.26D-01 0.00115540 0.00046588 0.00070449 0.00025292    0.0339035 ---+
   114   0   0   F    T  2.41D+00 0.00096971 0.00036933 0.00510152 0.00225547    0.0339035 ----
   115   0   0   F    F  4.57D-01 0.00096971 0.00036933 0.00233388 0.00103185    0.0338970 ----
   116   0   0   F    T  1.63D+00 0.00149710 0.00053411 0.00762707 0.00328733    0.0338963 ----
   117   0   0   F    F -3.52D-01 0.00149710 0.00053411 0.00268245 0.00115616    0.0338931 ----
   118   0   0   F    T  1.84D+00 0.00082883 0.00039191 0.00488781 0.00213117    0.0338917 ----
   119   0   0   F    F  2.97D-01 0.00082883 0.00039191 0.00145254 0.00063333    0.0338866 ----
   120   0   0   F    T  3.06D+00 0.00078248 0.00032898 0.00751265 0.00276450    0.0338863 ----
   121   0   0   F    F -3.07D-01 0.00078248 0.00032898 0.00230800 0.00084930    0.0338835 ----
   122   0   0   F    T  1.23D+00 0.00122053 0.00042269 0.00529905 0.00191520    0.0338828 ----
   123   0   0   F    T  2.87D+00 0.00070653 0.00026365 0.00471218 0.00191520    0.0338796 ----
   124   0   0   F    F -3.31D-01 0.00070653 0.00026365 0.00156182 0.00063478    0.0338781 ----
   125   0   0   F    T  2.26D+00 0.00061769 0.00023643 0.00287234 0.00128042    0.0338776 ----
   126   0   0   F    F -2.53D-01 0.00061769 0.00023643 0.00072803 0.00032454    0.0338764 ----
   127   0   0   F    T  1.41D+00 0.00072112 0.00024742 0.00200822 0.00095588    0.0338762 ----
   128   0   0   F    T  1.50D+00 0.00091375 0.00023277 0.00183176 0.00095588    0.0338749 ----
   129   0   0   F    F  2.00D+00 0.00091375 0.00023277 0.00366819 0.00191420    0.0338729 ----
   130   0   0   F    T  2.90D+00 0.00064342 0.00028125 0.00628546 0.00287008    0.0338712 ----
   131   0   0   T    F  3.35D-01 0.00064342 0.00028125 0.00210794 0.00096253    0.0338746 ----
   132   0   0   F    T  1.61D+00 0.00051278 0.00021182 0.00159747 0.00096253    0.0338701 ----
   133   0   0   F    T  2.78D+00 0.00036888 0.00016688 0.00194785 0.00096253    0.0338688 ----
   134   0   0   F    F  1.84D-01 0.00036888 0.00016688 0.00035866 0.00017723    0.0338674 --++
   135   0   0   F    T  1.04D+00 0.00081116 0.00028234 0.00240216 0.00113976    0.0338673 ----
   136   0   0   F    F  2.89D-01 0.00081116 0.00028234 0.00069338 0.00032899    0.0338658 ----
   137   0   0   F    T  1.77D+00 0.00058257 0.00026000 0.00311500 0.00146875    0.0338657 ----
   138   0   0   F    F  6.85D-01 0.00058257 0.00026000 0.00213528 0.00100680    0.0338632 ----
   139   0   0   F    T  1.95D+00 0.00070765 0.00031620 0.00522517 0.00247555    0.0338627 ----
   140   0   0   F    F -4.41D-01 0.00070765 0.00031620 0.00230458 0.00109185    0.0338621 ----
   141   0   0   F    T  1.53D+00 0.00063178 0.00026228 0.00285809 0.00138370    0.0338611 ----
   142   0   0   F    F  2.38D-01 0.00063178 0.00026228 0.00068119 0.00032979    0.0338592 ----
   143   0   0   F    T  1.98D+00 0.00060917 0.00025109 0.00334452 0.00171349    0.0338591 ----
   144   0   0   F    F  1.57D-01 0.00060917 0.00025109 0.00052356 0.00026823    0.0338570 ---+
   145   0   0   F    T  1.66D+00 0.00091325 0.00029039 0.00378736 0.00198172    0.0338569 ----
   146   0   0   F    F -3.93D-01 0.00091325 0.00029039 0.00148820 0.00077869    0.0338562 ----
   147   0   0   F    T  2.14D+00 0.00043522 0.00019250 0.00233444 0.00120303    0.0338557 ----
   148   0   0   F    F -1.61D-01 0.00043522 0.00019250 0.00037684 0.00019420    0.0338547 --++
   149   0   0   F    T  2.58D+00 0.00030249 0.00015366 0.00211697 0.00100883    0.0338547 ----
   150   0   0   F    F -3.35D-01 0.00030249 0.00015366 0.00070990 0.00033830    0.0338542 ----
   151   0   0   F    T  1.03D+00 0.00057047 0.00019409 0.00115727 0.00067053    0.0338541 ----
   152   0   0   F    F  4.99D-01 0.00057047 0.00019409 0.00057705 0.00033435    0.0338533 ----
   153   0   0   F    T  2.81D+00 0.00027537 0.00013801 0.00186143 0.00100488    0.0338532 ----
   154   0   0   F    T  1.27D+00 0.00064383 0.00020557 0.00209367 0.00100488    0.0338523 ----
   155   0   0   F    T  1.58D+00 0.00036322 0.00016034 0.00208368 0.00100488    0.0338514 ----
   156   0   0   F    F  7.13D-01 0.00036322 0.00016034 0.00148649 0.00071688    0.0338506 ----
   157   0   0   F    T  2.54D+00 0.00039089 0.00017532 0.00347510 0.00172176    0.0338504 ----
   158   0   0   F    F -4.45D-01 0.00039089 0.00017532 0.00154808 0.00076700    0.0338501 ----
   159   0   0   F    T  1.17D+00 0.00044848 0.00019039 0.00206225 0.00095475    0.0338497 ----
   160   0   0   F    F  6.85D-01 0.00044848 0.00019039 0.00141266 0.00065401    0.0338488 ----
   161   0   0   F    T  1.68D+00 0.00056589 0.00020383 0.00315301 0.00160877    0.0338487 ----
   162   0   0   F    F  6.04D-01 0.00056589 0.00020383 0.00190380 0.00097138    0.0338472 ----
   163   0   0   F    T  2.01D+00 0.00060232 0.00023239 0.00512253 0.00258015    0.0338470 ----
   164   0   0   F    F -1.60D-01 0.00060232 0.00023239 0.00082204 0.00041405    0.0338457 ----
   165   0   0   F    T  1.05D+00 0.00088112 0.00029327 0.00407540 0.00216610    0.0338456 ----
   166   0   0   F    F  1.01D+00 0.00088112 0.00029327 0.00410643 0.00218259    0.0338436 ----
   167   0   0   F    T  2.86D+00 0.00048456 0.00024350 0.00928912 0.00434869    0.0338429 ----
   168   0   0   F    T  1.40D+00 0.00096724 0.00034216 0.00913025 0.00434869    0.0338404 ----
   169   0   0   F    F -2.77D-01 0.00096724 0.00034216 0.00252597 0.00120310    0.0338390 ----
   170   0   0   F    T  2.53D+00 0.00043919 0.00023665 0.00641409 0.00314558    0.0338387 ----
   171   0   0   F    F -2.24D-01 0.00043919 0.00023665 0.00143447 0.00070349    0.0338372 ----
   172   0   0   F    T  2.56D+00 0.00045628 0.00020279 0.00552285 0.00244209    0.0338371 ----
   173   0   0   F    F -4.20D-01 0.00045628 0.00020279 0.00232006 0.00102588    0.0338366 ----
   174   0   0   F    T  1.15D+00 0.00062887 0.00022740 0.00289836 0.00141621    0.0338362 ----
   175   0   0   F    F  5.95D-01 0.00062887 0.00022740 0.00172345 0.00084212    0.0338349 ----
   176   0   0   F    T  2.68D+00 0.00046980 0.00018548 0.00447181 0.00225833    0.0338347 ----
   177   0   0   T    F  4.92D-01 0.00046980 0.00018548 0.00220191 0.00111200    0.0338348 ----
   178   0   0   F    T  3.31D+00 0.00027227 0.00011404 0.00244534 0.00111200    0.0338340 ----
   179   0   0   T    F  3.43D-01 0.00027227 0.00011404 0.00083897 0.00038151    0.0338346 ----
   180   0   0   F    T  1.14D+00 0.00030530 0.00011056 0.00079054 0.00038151    0.0338338 ----
   181   0   0   F    F  1.49D+00 0.00030530 0.00011056 0.00117808 0.00056853    0.0338335 ----
   182   0   0   F    T  2.46D+00 0.00027453 0.00011579 0.00183221 0.00095005    0.0338333 ----
   183   0   0   F    F -3.74D-01 0.00027453 0.00011579 0.00068465 0.00035501    0.0338331 ----
   184   0   0   F    T  1.85D+00 0.00027728 0.00010317 0.00118533 0.00059504    0.0338330 ----
   185   0   0   F    F -4.86D-01 0.00027728 0.00010317 0.00057571 0.00028901    0.0338330 ---+
   186   0   0   F    T  2.33D+00 0.00014435 0.00006186 0.00055420 0.00030603    0.0338328 -+--
   187   0   0   F    T  2.02D+00 0.00020323 0.00006535 0.00069348 0.00030603    0.0338327 -+--
   188   0   0   F    T  1.00D+00 0.00031061 0.00009830 0.00078092 0.00043182    0.0338326 ----
   189   0   0   F    F -4.17D-01 0.00031061 0.00009830 0.00032534 0.00017990    0.0338326 --++
   190   0   0   F    T  1.65D+00 0.00032084 0.00011202 0.00056348 0.00025192    0.0338326 ---+
   191   0   0   T    T  1.00D+00 0.00063403 0.00020272 0.00063403 0.00020272    0.0338327 ---+
   192   0   0   T    F  5.00D-01 0.00063403 0.00020272 0.00031702 0.00010136    0.0338343 --++
   193   0   0   T    F  5.00D-01 0.00063403 0.00020272 0.00015851 0.00005068    0.0338331 --++
   194   0   0   T    F  5.00D-01 0.00063403 0.00020272 0.00007925 0.00002534    0.0338328 --++
   195   0   0   T    F  5.00D-01 0.00063403 0.00020272 0.00003963 0.00001267    0.0338327 --++
   196   0   0   T    F  5.00D-01 0.00063403 0.00020272 0.00001981 0.00000633    0.0338326 --++
   197   0   0   T    F  5.00D-01 0.00063403 0.00020272 0.00000991 0.00000317    0.0338326 --++
   198   0   0   T    F  5.00D-01 0.00063403 0.00020272 0.00000495 0.00000158    0.0338326 --++
   199   0   0   T    F  5.00D-01 0.00063403 0.00020272 0.00000248 0.00000079    0.0338326 --++
   200   0   0   T    F  5.00D-01 0.00063403 0.00020272 0.00000124 0.00000040    0.0338326 --++
   201   0   0   T    F  5.00D-01 0.00063403 0.00020272 0.00000062 0.00000020    0.0338326 --++
   202   0   0   T    T  1.00D+00 0.00032208 0.00011234 0.00016896 0.00007058    0.0338326 --++
   203   0   0   F    T  1.00D+00 0.00028389 0.00008467 0.00030089 0.00008889    0.0338325 --++
   204   0   0   F    T  1.00D+00 0.00027021 0.00009080 0.00034483 0.00010942    0.0338325 --++
   205   0   0   T    F  5.00D-01 0.00027021 0.00009080 0.00017242 0.00005471    0.0338329 --++
   206   0   0   T    F  5.00D-01 0.00027021 0.00009080 0.00008621 0.00002735    0.0338326 --++
   207   0   0   T    F  5.00D-01 0.00027021 0.00009080 0.00004310 0.00001368    0.0338325 --++
   208   0   0   T    F  5.00D-01 0.00027021 0.00009080 0.00002155 0.00000684    0.0338325 --++
   209   0   0   T    F  5.00D-01 0.00027021 0.00009080 0.00001078 0.00000342    0.0338325 --++
   210   0   0   T    F  5.00D-01 0.00027021 0.00009080 0.00000539 0.00000171    0.0338325 --++
   211   0   0   T    F  5.00D-01 0.00027021 0.00009080 0.00000269 0.00000085    0.0338325 --++
   212   0   0   T    F  5.00D-01 0.00027021 0.00009080 0.00000135 0.00000043    0.0338325 --++
   213   0   0   T    F  5.00D-01 0.00027021 0.00009080 0.00000067 0.00000021    0.0338325 --++
   214   0   0   T    T  1.00D+00 0.00027133 0.00009112 0.00016904 0.00006963    0.0338325 --++
   215   0   0   F    T  4.20D+00 0.00005216 0.00002020 0.00013790 0.00006963    0.0338324 ====
 ****************************
 MOLECULAR MECHANICS FUNCTION
 ****************************
 Atomic parameters:
 Center  VDW
      1 1.9080 0.0860000
      2 1.7210 0.2104000
      3 1.9080 0.1094000
      4 1.4870 0.0157000
      5 1.4870 0.0157000
      6 1.8750 0.1700000
      7 0.6000 0.0157000
      8 0.6000 0.0157000
      9 1.6612 0.2100000
     10 0.0000 0.0000000
 Molecular mechanics terms:
 NBDir 3 1      0      0
 HrmStr1  1- 2  431.53 1.3510
 HrmStr1  1- 3  294.15 1.5090
 HrmStr1  1- 9  946.08 1.2030
 HrmStr1  2-10  566.76 0.9680
 HrmStr1  3- 4  358.05 1.0960
 HrmStr1  3- 5  358.05 1.0960
 HrmStr1  3- 6  380.82 1.4520
 HrmStr1  6- 7  506.01 1.0110
 HrmStr1  6- 8  506.01 1.0110
 HrmBnd1  1- 2-10  56.55 107.23
 HrmBnd1  1- 3- 4  46.41 106.89
 HrmBnd1  1- 3- 5  46.41 106.89
 HrmBnd1  1- 3- 6  59.93 110.61
 HrmBnd1  2- 1- 3  67.92 111.72
 HrmBnd1  2- 1- 9  91.40 123.02
 HrmBnd1  3- 1- 9  62.83 125.24
 HrmBnd1  3- 6- 7  52.60 110.71
 HrmBnd1  3- 6- 8  52.60 110.71
 HrmBnd1  4- 3- 5  44.68 106.22
 HrmBnd1  4- 3- 6  52.45 112.94
 HrmBnd1  5- 3- 6  52.45 112.94
 HrmBnd1  7- 6- 8  47.09 108.63
 AmbTrs  3- 1- 2-10   0 180   0   0  0.0000 14.5000  0.0000  0.0000  2.0
 AmbTrs  9- 1- 2-10   0   0   0   0  0.0000  0.0000  0.0000  0.0000  2.0
 AmbTrs  2- 1- 3- 4   0   0   0   0  0.0000 14.5000  0.0000  0.0000  6.0
 AmbTrs  2- 1- 3- 5   0   0   0   0  0.0000 14.5000  0.0000  0.0000  6.0
 AmbTrs  2- 1- 3- 6   0   0   0   0  0.0000 14.5000  0.0000  0.0000  6.0
 AmbTrs  9- 1- 3- 4   0   0   0   0  0.0000 14.5000  0.0000  0.0000  6.0
 AmbTrs  9- 1- 3- 5   0   0   0   0  0.0000 14.5000  0.0000  0.0000  6.0
 AmbTrs  9- 1- 3- 6   0   0   0   0  0.0000 14.5000  0.0000  0.0000  6.0
 AmbTrs  1- 3- 6- 7   0 180   0   0  0.0000 25.6300  0.0000  0.0000  6.0
 AmbTrs  1- 3- 6- 8   0 180   0   0  0.0000 25.6300  0.0000  0.0000  6.0
 AmbTrs  4- 3- 6- 7   0   0   0   0  0.0000 16.9300  0.0000  0.0000  6.0
 AmbTrs  4- 3- 6- 8   0   0   0   0  0.0000 16.9300  0.0000  0.0000  6.0
 AmbTrs  5- 3- 6- 7   0   0   0   0  0.0000 16.9300  0.0000  0.0000  6.0
 AmbTrs  5- 3- 6- 8   0   0   0   0  0.0000 16.9300  0.0000  0.0000  6.0
 NBPair  2- 1 3 1      0      0 -1.000 -1.000
 NBPair  3- 2 3 1      0      0 -1.000 -1.000
 NBPair 10- 3 3 1      0      0 -0.500 -0.167
 NBPair  9- 2 3 1      0      0 -1.000 -1.000
 NBPair 10- 9 3 1      0      0 -0.500 -0.167
 NBPair  3- 1 3 1      0      0 -1.000 -1.000
 NBPair  4- 2 3 1      0      0 -0.500 -0.167
 NBPair  5- 2 3 1      0      0 -0.500 -0.167
 NBPair  6- 2 3 1      0      0 -0.500 -0.167
 NBPair  9- 3 3 1      0      0 -1.000 -1.000
 NBPair  9- 4 3 1      0      0 -0.500 -0.167
 NBPair  9- 5 3 1      0      0 -0.500 -0.167
 NBPair  9- 6 3 1      0      0 -0.500 -0.167
 NBPair  9- 1 3 1      0      0 -1.000 -1.000
 NBPair 10- 1 3 1      0      0 -1.000 -1.000
 NBPair 10- 2 3 1      0      0 -1.000 -1.000
 NBPair  4- 1 3 1      0      0 -1.000 -1.000
 NBPair  5- 1 3 1      0      0 -1.000 -1.000
 NBPair  6- 1 3 1      0      0 -1.000 -1.000
 NBPair  4- 3 3 1      0      0 -1.000 -1.000
 NBPair  5- 4 3 1      0      0 -1.000 -1.000
 NBPair  6- 4 3 1      0      0 -1.000 -1.000
 NBPair  5- 3 3 1      0      0 -1.000 -1.000
 NBPair  6- 5 3 1      0      0 -1.000 -1.000
 NBPair  6- 3 3 1      0      0 -1.000 -1.000
 NBPair  7- 1 3 1      0      0 -0.500 -0.167
 NBPair  8- 1 3 1      0      0 -0.500 -0.167
 NBPair  7- 4 3 1      0      0 -0.500 -0.167
 NBPair  8- 4 3 1      0      0 -0.500 -0.167
 NBPair  7- 5 3 1      0      0 -0.500 -0.167
 NBPair  8- 5 3 1      0      0 -0.500 -0.167
 NBPair  7- 3 3 1      0      0 -1.000 -1.000
 NBPair  8- 3 3 1      0      0 -1.000 -1.000
 NBPair  7- 6 3 1      0      0 -1.000 -1.000
 NBPair  8- 7 3 1      0      0 -1.000 -1.000
 NBPair  8- 6 3 1      0      0 -1.000 -1.000
 Energy per function type:
 Direct Coulomb + vdW (small)                           0.001986651
 Direct Coulomb (large)                                -0.132365472
 Direct vdW (large)                                   270.396994899
 Non-direct Coulomb + vdW (small)                      -0.011300324
 Non-direct Coulomb (large)                             0.138461158
 Non-direct vdW (large)                              -270.396994899
 Harmonic stretch I                                     0.000074317
 Harmonic bend I                                        0.008540525
 Amber torsion                                          0.028435519
 Energy per function class:
        Coulomb              -0.004103364
    Vanderwaals               0.000885376
     Stretching               0.000074317
        Bending               0.008540525
        Torsion               0.028435519
 Energy=    3.383237315E-02 NIter=   0.
 Dipole moment=       0.344157      -0.482172      -0.026687
 Leave Link  402 at Wed Nov 29 12:05:27 2023, MaxMem=   134217728 cpu:               0.4 elap:               0.4
 (Enter /home/emanuele/chem_software/gaussian//gdv/l716.exe)
 Dipole        = 3.44156670D-01-4.82172453D-01-2.66873438D-02
 -------------------------------------------------------------------
 Center     Atomic                   Forces (Hartrees/Bohr)
 Number     Number              X              Y              Z
 -------------------------------------------------------------------
      1        6           0.000026657   -0.000017589   -0.000026378
      2        8          -0.000006606   -0.000009215    0.000002584
      3        6          -0.000006881   -0.000025923   -0.000021290
      4        1          -0.000014275    0.000009014   -0.000010924
      5        1           0.000012330   -0.000020724   -0.000012674
      6        7           0.000028791   -0.000023004   -0.000001202
      7        1          -0.000004198    0.000027372    0.000033117
      8        1          -0.000000061    0.000012267    0.000004197
      9        8          -0.000002437    0.000052158    0.000004245
     10        1          -0.000033320   -0.000004354    0.000028326
 -------------------------------------------------------------------
 Cartesian Forces:  Max     0.000052158 RMS     0.000020197
 Z-matrix is all fixed cartesians, so copy forces.
 Leave Link  716 at Wed Nov 29 12:05:27 2023, MaxMem=   134217728 cpu:               0.0 elap:               0.0
 (Enter /home/emanuele/chem_software/gaussian//gdv/l103.exe)

 GradGradGradGradGradGradGradGradGradGradGradGradGradGradGradGradGradGrad
 Berny optimization.
 Search for a local minimum.
 Step number   1 out of a maximum of    2
 All quantities printed in internal units (Hartrees-Bohrs-Radians)
 RMS Force = .20197D-04 SwitMx=.10000D-02 MixMth= 2
 Mixed Optimization -- En-DIIS/RFO-DIIS
 Second derivative matrix not updated -- unit matrix used.
 ITU=  0
 RFO step:  Lambda=-1.22373428D-08 EMin= 1.00000000D+00
 Linear search not attempted -- first point.
 Variable       Old X    -DE/DX   Delta X   Delta X   Delta X     New X
                                 (Linear)    (Quad)   (Total)
    X1       -1.16175   0.00003   0.00000   0.00003   0.00003  -1.16172
    Y1        0.03777  -0.00002   0.00000  -0.00002  -0.00002   0.03776
    Z1        0.39445  -0.00003   0.00000  -0.00003  -0.00003   0.39442
    X2       -2.22674  -0.00001   0.00000  -0.00001  -0.00001  -2.22675
    Y2       -1.23626  -0.00001   0.00000  -0.00001  -0.00001  -1.23627
    Z2       -1.53919   0.00000   0.00000   0.00000   0.00000  -1.53919
    X3        1.39464  -0.00001   0.00000  -0.00001  -0.00001   1.39464
    Y3       -1.02122  -0.00003   0.00000  -0.00003  -0.00003  -1.02125
    Z3        1.15184  -0.00002   0.00000  -0.00002  -0.00002   1.15182
    X4        1.51869  -0.00001   0.00000  -0.00001  -0.00001   1.51868
    Y4       -0.52583   0.00001   0.00000   0.00001   0.00001  -0.52582
    Z4        3.16026  -0.00001   0.00000  -0.00001  -0.00001   3.16025
    X5        1.13424   0.00001   0.00000   0.00001   0.00001   1.13425
    Y5       -3.07635  -0.00002   0.00000  -0.00002  -0.00002  -3.07637
    Z5        1.08222  -0.00001   0.00000  -0.00001  -0.00001   1.08221
    X6        3.39275   0.00003   0.00000   0.00003   0.00003   3.39278
    Y6        0.02079  -0.00002   0.00000  -0.00002  -0.00002   0.02076
    Z6       -0.43645  -0.00000   0.00000  -0.00000  -0.00000  -0.43645
    X7        5.21622  -0.00000   0.00000  -0.00000  -0.00000   5.21621
    Y7       -0.48053   0.00003   0.00000   0.00003   0.00003  -0.48050
    Z7       -0.15922   0.00003   0.00000   0.00003   0.00003  -0.15919
    X8        2.96838  -0.00000   0.00000  -0.00000  -0.00000   2.96838
    Y8        1.26430   0.00001   0.00000   0.00001   0.00001   1.26431
    Z8       -1.82529   0.00000   0.00000   0.00000   0.00000  -1.82528
    X9       -2.21460  -0.00000   0.00000  -0.00000  -0.00000  -2.21460
    Y9        1.78070   0.00005   0.00000   0.00005   0.00005   1.78075
    Z9        1.40138   0.00000   0.00000   0.00000   0.00000   1.40138
   X10       -3.81969  -0.00003   0.00000  -0.00003  -0.00003  -3.81972
   Y10       -0.39843  -0.00000   0.00000  -0.00000  -0.00000  -0.39843
   Z10       -1.86004   0.00003   0.00000   0.00003   0.00003  -1.86001
         Item               Value     Threshold  Converged?
 Maximum Force            0.000052     0.000450     YES
 RMS     Force            0.000020     0.000300     YES
 Maximum Displacement     0.000052     0.001800     YES
 RMS     Displacement     0.000020     0.001200     YES
 Predicted change in Energy=-6.118671D-09
 Optimization completed.
    -- Stationary point found.
 Largest change from initial coordinates is atom    9       0.583 Angstoms.
 GradGradGradGradGradGradGradGradGradGradGradGradGradGradGradGradGradGrad

 Leave Link  103 at Wed Nov 29 12:05:27 2023, MaxMem=   134217728 cpu:               0.0 elap:               0.0
 (Enter /home/emanuele/chem_software/gaussian//gdv/l202.exe)
                          Input orientation:                          
 ---------------------------------------------------------------------
 Center     Atomic      Atomic             Coordinates (Angstroms)
 Number     Number       Type             X           Y           Z
 ---------------------------------------------------------------------
      1          6    20001002       -0.614771    0.019990    0.208733
      2          8    20001022       -1.178343   -0.654203   -0.814507
      3          6    20001001        0.738014   -0.540408    0.609529
      4          1    20001034        0.803657   -0.278255    1.672336
      5          1    20001034        0.600212   -1.627932    0.572687
      6          7    20001020        1.795364    0.011000   -0.230957
      7          1    20001029        2.760304   -0.254284   -0.084257
      8          1    20001029        1.570798    0.669038   -0.965901
      9          8    20001025       -1.171915    0.942306    0.741577
     10          1    20001031       -2.021293   -0.210839   -0.984289
 ---------------------------------------------------------------------
                    Distance matrix (angstroms):
                    1          2          3          4          5
     1  C    0.000000
     2  O    1.348766   0.000000
     3  C    1.518127   2.390240   0.000000
     4  H    2.059859   3.202194   1.096628   0.000000
     5  H    2.079493   2.456768   1.096839   1.752783   0.000000
     6  N    2.449931   3.102572   1.458923   2.165566   2.181818
     7  H    3.398853   4.025685   2.157049   2.629574   2.642817
     8  H    2.564711   3.054777   2.153664   2.906229   2.930079
     9  O    1.202082   2.229412   2.421510   2.501793   3.126513
    10  H    1.858733   0.967452   3.203537   3.878472   3.362234
                    6          7          8          9         10
     6  N    0.000000
     7  H    1.011438   0.000000
     8  H    1.011725   1.744920   0.000000
     9  O    3.258512   4.192395   3.242319   0.000000
    10  H    3.896613   4.865760   3.698329   2.242721   0.000000
 Symmetry turned off by external request.
 Stoichiometry    C2H5NO2
 Framework group  C1[X(C2H5NO2)]
 Deg. of freedom    24
 Full point group                 C1      NOp   1
 Rotational constants (GHZ):           8.9895631           3.8879118           3.1824755
 Leave Link  202 at Wed Nov 29 12:05:27 2023, MaxMem=   134217728 cpu:               0.0 elap:               0.0
 (Enter /home/emanuele/chem_software/gaussian//gdv/l9999.exe)
 Unable to Open any file for archive entry.
 1\1\GINC-EMANUELE-XPS-13-9343\FOpt\AMBER\ZDO\C2H5N1O2\EMANUELE\29-Nov-
 2023\0\\#p Amber=(SoftFirst,Print) geom=nocrowd nosymm opt=(maxcycle=3
 00)\\Title\\0,1\C,-0.6147710286,0.0199895231,0.2087333252\O,-1.1783425
 451,-0.6542031369,-0.8145066494\C,0.7380141387,-0.5404080829,0.6095287
 349\H,0.8036570282,-0.2782548657,1.6723360058\H,0.6002119109,-1.627932
 2998,0.5726869951\N,1.7953639843,0.0109995707,-0.2309573381\H,2.760304
 1768,-0.2542838915,-0.0842565998\H,1.5707977484,0.6690380378,-0.965901
 1676\O,-1.171915396,0.9423063917,0.7415766943\H,-2.0212930176,-0.21083
 92465,-0.9842890003\\Version=ES64L-GDVRevJ.14\HF=0.0338324\RMSD=0.000e
 +00\RMSF=2.020e-05\Dipole=0.3441567,-0.4821725,-0.0266873\PG=C01 [X(C2
 H5N1O2)]\\@
 The archive entry for this job was punched.


 ACCORDING TO HEN3RY, LIFE IS MUCH LIKE A SEWER........
 YOU GET OUT OF IT JUST WHAT YOU PUT INTO IT...........
                         TOM LEHRER - (THE 3 IS SILENT)
 Job cpu time:       0 days  0 hours  0 minutes  1.1 seconds.
 Elapsed time:       0 days  0 hours  0 minutes  1.0 seconds.
 File lengths (MBytes):  RWF=      6 Int=      0 D2E=      0 Chk=      1 Scr=      1
 Normal termination of Gaussian DV at Wed Nov 29 12:05:27 2023.
