 Entering Gaussian System, Link 0=/home/emanuele/chem_software/gaussian//g09/g09
 Input=1_mm_20.gjf
 Output=1_mm_20.log
 Initial command:
 /home/emanuele/chem_software/gaussian//gdv/l1.exe "/home/emanuele/chem_software/gaussian/scratch/Gau-13825.inp" -scrdir="/home/emanuele/chem_software/gaussian/scratch/"
 Entering Link 1 = /home/emanuele/chem_software/gaussian//gdv/l1.exe PID=     13827.
  
 Copyright (c) 1988-2020, Gaussian, Inc.  All Rights Reserved.
  
 This is the private, development version of
 the Gaussian(R) DV system of programs. It is based on
 the Gaussian(R) 16 system (copyright 2016, Gaussian, Inc.),
 the Gaussian(R) 09 system (copyright 2009, Gaussian, Inc.),
 the Gaussian(R) 03 system (copyright 2003, Gaussian, Inc.),
 the Gaussian(R) 98 system (copyright 1998, Gaussian, Inc.),
 the Gaussian(R) 94 system (copyright 1995, Gaussian, Inc.),
 the Gaussian 92(TM) system (copyright 1992, Gaussian, Inc.),
 the Gaussian 90(TM) system (copyright 1990, Gaussian, Inc.),
 the Gaussian 88(TM) system (copyright 1988, Gaussian, Inc.),
 the Gaussian 86(TM) system (copyright 1986, Carnegie Mellon
 University), and the Gaussian 82(TM) system (copyright 1983,
 Carnegie Mellon University). Gaussian is a federally registered
 trademark of Gaussian, Inc.
  
 This software contains proprietary and confidential information,
 including trade secrets, belonging to Gaussian, Inc.
  
 This software is provided under written license and may be
 used, copied, transmitted, or stored only in accord with that
 written license.
  
 The following legend is applicable only to US Government
 contracts under FAR:
  
                    RESTRICTED RIGHTS LEGEND
  
 Use, reproduction and disclosure by the US Government is
 subject to restrictions as set forth in subparagraphs (a)
 and (c) of the Commercial Computer Software - Restricted
 Rights clause in FAR 52.227-19.
  
 Gaussian, Inc.
 340 Quinnipiac St., Bldg. 40, Wallingford CT 06492
  
  
 ---------------------------------------------------------------
 Warning -- This program may not be used in any manner that
 competes with the business of Gaussian, Inc. or will provide
 assistance to any competitor of Gaussian, Inc.  The licensee
 of this program is prohibited from giving any competitor of
 Gaussian, Inc. access to this program.  By using this program,
 the user acknowledges that Gaussian, Inc. is engaged in the
 business of creating and licensing software in the field of
 computational chemistry and represents and warrants to the
 licensee that it is not a competitor of Gaussian, Inc. and that
 it will not use this program in any manner prohibited above.
 ---------------------------------------------------------------
  

 Cite this work as:
 Gaussian Development Version, Revision J.14,
 M. J. Frisch, G. W. Trucks, H. B. Schlegel, G. E. Scuseria, 
 M. A. Robb, J. R. Cheeseman, G. Scalmani, V. Barone, 
 G. A. Petersson, H. Nakatsuji, X. Li, A. V. Marenich, M. Caricato, 
 J. Bloino, B. G. Janesko, J. Zheng, R. Gomperts, B. Mennucci, 
 H. P. Hratchian, J. V. Ortiz, A. F. Izmaylov, J. L. Sonnenberg, 
 D. Williams-Young, F. Ding, F. Lipparini, F. Egidi, J. Goings, 
 B. Peng, A. Petrone, T. Henderson, D. Ranasinghe, V. G. Zakrzewski, 
 J. Gao, N. Rega, G. Zheng, W. Liang, M. Hada, M. Ehara, K. Toyota, 
 R. Fukuda, J. Hasegawa, M. Ishida, T. Nakajima, Y. Honda, O. Kitao, 
 H. Nakai, T. Vreven, K. Throssell, J. A. Montgomery, Jr., 
 J. E. Peralta, F. Ogliaro, M. J. Bearpark, J. J. Heyd, 
 E. N. Brothers, K. N. Kudin, V. N. Staroverov, T. A. Keith, 
 R. Kobayashi, J. Normand, K. Raghavachari, A. P. Rendell, 
 J. C. Burant, S. S. Iyengar, J. Tomasi, M. Cossi, J. M. Millam, 
 M. Klene, C. Adamo, R. Cammi, J. W. Ochterski, R. L. Martin, 
 K. Morokuma, O. Farkas, J. B. Foresman, and D. J. Fox, 
 Gaussian, Inc., Wallingford CT, 2020.
 
 ******************************************
 Gaussian DV:  ES64L-GDVRevJ.14 29-Dec-2020
                29-Nov-2023 
 ******************************************
 %mem=1GB
 %nprocshared=1
 Will use up to    1 processors via shared memory.
 %chk=1_mm_20.chk
 -----------------------------------------------------------------
 #p Amber=(SoftFirst,Print) geom=nocrowd nosymm opt=(maxcycle=300)
 -----------------------------------------------------------------
 1/6=300,10=10,18=4000020,19=15,37=210000000,38=1,56=2,64=203/1,3;
 2/9=110,12=1,15=1,40=1/2;
 3/5=30,11=9,25=1,30=1,41=10030000,43=2,71=1/1;
 4/20=11,22=1001,24=3,119=11/2;
 7/30=1,44=-1/16;
 1/6=300,10=10,18=4000020,19=15,64=203/3(2);
 2/9=110,12=1,15=1/2;
 99//99;
 2/9=110,12=1,15=1/2;
 3/5=30,11=9,25=1,30=1,41=10030000,43=2,71=1/1;
 4/16=2,20=11,22=1001,24=3,119=11/2;
 7/30=1,44=-1/16;
 1/6=300,10=10,18=4000020,19=15,64=203/3(-4);
 2/9=110,12=1,15=1/2;
 99/9=10/99;
 Leave Link    1 at Wed Nov 29 12:05:23 2023, MaxMem=   134217728 cpu:               0.0 elap:               0.0
 (Enter /home/emanuele/chem_software/gaussian//gdv/l101.exe)
 -----
 Title
 -----
 Symbolic Z-matrix:
 Charge =  0 Multiplicity = 1
 C-C-+0.299289        -0.63468   0.14201   0.25675 
 O-OH--0.289770       -1.30163  -0.64275  -0.65864 
 C-CT--0.035454        0.72186  -0.47948   0.55415 
 H-HC-+0.090426        1.06463  -0.71017   1.58976 
 H-HC-+0.095387        0.48269  -1.44666   0.04887 
 N-N3--0.336253        1.68427   0.30659  -0.2543 
 H-H-+0.142619         2.52823   0.39362   0.32055 
 H-H-+0.128282         2.08059  -0.3437   -0.92579 
 O-O2--0.308037       -1.16012   1.12459   0.71475 
 H-HO-+0.213510       -2.18382  -0.26764  -0.92116 
 
 ITRead=  3  3  3  3  3  3  3  3  3  3
 MicOpt=  0  0  0  0  0  0  0  0  0  0
 NAtoms=     10 NQM=        0 NQMF=       0 NMMI=      0 NMMIF=      0
                NMic=      10 NMicF=      0.
                    Isotopes and Nuclear Properties:
 (Nuclear quadrupole moments (NQMom) in fm**2, nuclear magnetic moments (NMagM)
  in nuclear magnetons)

  Atom         1           2           3           4           5           6           7           8           9          10
 IAtWgt=          12          16          12           1           1          14           1           1          16           1
 AtmWgt=  12.0000000  15.9949146  12.0000000   1.0078250   1.0078250  14.0030740   1.0078250   1.0078250  15.9949146   1.0078250
 NucSpn=           0           0           0           1           1           2           1           1           0           1
 AtZEff=  -0.0000000  -0.0000000  -0.0000000  -0.0000000  -0.0000000  -0.0000000  -0.0000000  -0.0000000  -0.0000000  -0.0000000
 NQMom=    0.0000000   0.0000000   0.0000000   0.0000000   0.0000000   2.0440000   0.0000000   0.0000000   0.0000000   0.0000000
 NMagM=    0.0000000   0.0000000   0.0000000   2.7928460   2.7928460   0.4037610   2.7928460   2.7928460   0.0000000   2.7928460
 AtZNuc=   6.0000000   8.0000000   6.0000000   1.0000000   1.0000000   7.0000000   1.0000000   1.0000000   8.0000000   1.0000000
 Generating MM parameters.
 I=    1 IAn=  6 Valence= 5.
          JB=  1 J=    2 IAn=  8 IBT=12 Dist= 1.38D+00
          JB=  2 J=    3 IAn=  6 IBT= 1 Dist= 1.52D+00
          JB=  3 J=    9 IAn=  8 IBT= 2 Dist= 1.20D+00
 I=    2 IAn=  8 Valence= 3.
          JB=  1 J=    1 IAn=  6 IBT=12 Dist= 1.38D+00
          JB=  2 J=   10 IAn=  1 IBT= 1 Dist= 9.94D-01
 Read MM parameter file:
 Include all MM classes

 MM sanity checks:
 All charges sum to:               -0.00000100
 Charges of atoms sum to:          -0.00000100
 WARNING -- The following centers have non-zero partial charges, but zero Vanderwaals
 parameters.  These centers can collapse onto other centers with non-zero charge.
   Center  Layer   Charge
     10 H    R    0.213510
 MMInit generated parameter data with length LenPar=        2069.
 MM Charge=             -0.0000 electrons
 MM Dipole moment (Debye):
    X=              1.2304    Y=             -2.1665    Z=             -0.0380  Tot=              2.4918
 MM Quadrupole moment (Debye-Ang):
   XX=              4.0951   YY=             -1.1779   ZZ=              1.1459
   XY=              0.0534   XZ=              2.6003   YZ=             -1.5423
 MM Traceless Quadrupole moment (Debye-Ang):
   XX=              2.7408   YY=             -2.5323   ZZ=             -0.2085
   XY=              0.0534   XZ=              2.6003   YZ=             -1.5423
 MM Octapole moment (Debye-Ang**2):
  XXX=              3.7460  YYY=             -3.3040  ZZZ=              0.3565  XYY=              3.5723
  XXY=             -3.0099  XXZ=             -3.3887  XZZ=              1.9345  YZZ=             -1.6233
  YYZ=             -0.6403  XYZ=              1.8948
 MM Hexadecapole moment (Debye-Ang**3):
 XXXX=             43.9567 YYYY=             -0.4793 ZZZZ=              3.3079 XXXY=              3.0997
 XXXZ=             10.5474 YYYX=              1.1541 YYYZ=             -1.9846 ZZZX=              2.7658
 ZZZY=             -1.6856 XXYY=             -2.1165 XXZZ=              5.8049 YYZZ=             -0.5338
 XXYZ=             -0.1534 YYXZ=              1.5902 ZZXY=             -0.1931
 Leave Link  101 at Wed Nov 29 12:05:23 2023, MaxMem=   134217728 cpu:               0.2 elap:               0.2
 (Enter /home/emanuele/chem_software/gaussian//gdv/l103.exe)

 GradGradGradGradGradGradGradGradGradGradGradGradGradGradGradGradGradGrad
 Berny optimization.
 Initialization pass.
 No Z-matrix variables, so optimization will use Cartesian coordinates.
 Trust Radius=1.00D-01 FncErr=1.00D-07 GrdErr=1.00D-07 EigMax=2.50D+02 EigMin=1.00D-04
 Number of steps in this run=      2 maximum allowed number of steps=      2.
 GradGradGradGradGradGradGradGradGradGradGradGradGradGradGradGradGradGrad

 Leave Link  103 at Wed Nov 29 12:05:23 2023, MaxMem=   134217728 cpu:               0.0 elap:               0.0
 (Enter /home/emanuele/chem_software/gaussian//gdv/l202.exe)
                          Input orientation:                          
 ---------------------------------------------------------------------
 Center     Atomic      Atomic             Coordinates (Angstroms)
 Number     Number       Type             X           Y           Z
 ---------------------------------------------------------------------
      1          6    20001002       -0.634680    0.142007    0.256753
      2          8    20001022       -1.301625   -0.642754   -0.658638
      3          6    20001001        0.721858   -0.479479    0.554152
      4          1    20001034        1.064626   -0.710166    1.589761
      5          1    20001034        0.482694   -1.446658    0.048872
      6          7    20001020        1.684270    0.306590   -0.254302
      7          1    20001029        2.528229    0.393619    0.320553
      8          1    20001029        2.080592   -0.343699   -0.925791
      9          8    20001025       -1.160122    1.124589    0.714753
     10          1    20001031       -2.183817   -0.267638   -0.921162
 ---------------------------------------------------------------------
                    Distance matrix (angstroms):
                    1          2          3          4          5
     1  C    0.000000
     2  O    1.377899   0.000000
     3  C    1.521475   2.364741   0.000000
     4  H    2.321799   3.264810   1.114985   0.000000
     5  H    1.953355   2.081016   1.117113   1.804274   0.000000
     6  N    2.380293   3.159163   1.482477   2.195067   2.146993
     7  H    3.173543   4.086645   2.019863   2.229656   2.764895
     8  H    3.001170   3.405906   2.013660   2.737606   2.172502
     9  O    1.204708   2.242705   2.478039   3.013548   3.123068
    10  H    1.988748   0.993928   3.265635   4.129521   3.072676
                    6          7          8          9         10
     6  N    0.000000
     7  H    1.024841   0.000000
     8  H    1.015305   1.515714   0.000000
     9  O    3.114283   3.780694   3.917841   0.000000
    10  H    3.966930   4.917570   4.265090   2.379594   0.000000
 Symmetry turned off by external request.
 Stoichiometry    C2H5NO2
 Framework group  C1[X(C2H5NO2)]
 Deg. of freedom    24
 Full point group                 C1      NOp   1
 Rotational constants (GHZ):           8.7830137           3.9319644           3.1691139
 Leave Link  202 at Wed Nov 29 12:05:23 2023, MaxMem=   134217728 cpu:               0.0 elap:               0.0
 (Enter /home/emanuele/chem_software/gaussian//gdv/l301.exe)
 Standard basis: Dummy (5D, 7F)
    10 basis functions,    10 primitive gaussians,    10 cartesian basis functions
     7 alpha electrons        7 beta electrons
       nuclear repulsion energy        22.5479386499 Hartrees.
 IExCor=       0 DFT=F Ex=HF Corr=None N6=None ScaHFX=  1.000000
 ScaDFX=  1.000000  1.000000  1.000000  1.000000  1.000000  0.000000
 ScaDFX=  0.000000  0.000000  0.000000  0.000000  0.000000  0.000000
 IRadAn=      5 IRanWt=     -1 IRanGd=            0 ICorTp=0 IEmpDi=  4
 NAtoms=   10 NActive=   10 NUniq=   10 SFac= 1.00D+00 NAtFMM=   60 NAOKFM=F Big=F
 Integral buffers will be    131072 words long.
 Raffenetti 1 integral format.
 Two-electron integral symmetry is turned off.
 Leave Link  301 at Wed Nov 29 12:05:23 2023, MaxMem=   134217728 cpu:               0.0 elap:               0.1
 (Enter /home/emanuele/chem_software/gaussian//gdv/l402.exe)
 AMBER calculation of energy and first derivatives.
 NRF= 0 NRA=   0 NVA=  10 HaveQM=F NVQ=       0
 Convergence limit is  0.750E-04 MaxStp= 10000 StMxLn= 3.00D-04 StpMin= 1.00D-06.
 Convergence criteria             0.00011250 0.00007500 0.00045000 0.00030000
  Step  NS  ND Rises OKQ   Scale  Max. Force  RMS Force Max. Disp.  RMS Disp.     Energy   Flag
     1   0   0   F    T  1.00D+00 0.04339252 0.01775976 0.04339252 0.01775976    0.0819106 ----
     2   0   0   F    F  6.90D-01 0.04339252 0.01775976 0.02994028 0.01225400    0.0752966 ----
     3   0   0   F    T  2.14D+00 0.02561547 0.01169883 0.08578104 0.03001376    0.0739921 ----
     4   0   0   F    F  6.58D-01 0.02561547 0.01169883 0.05645217 0.01975194    0.0678874 ----
     5   0   0   F    T  2.35D+00 0.02861475 0.01257984 0.14179503 0.04976570    0.0667617 ----
     6   0   0   F    F -3.81D-01 0.02861475 0.01257984 0.05395778 0.01893752    0.0646015 ----
     7   0   0   F    T  2.82D+00 0.02424149 0.00743178 0.07468906 0.03082817    0.0633383 ----
     8   0   0   T    F  3.42D-01 0.02424149 0.00743178 0.02557143 0.01055470    0.0654786 ----
     9   0   0   F    T  1.44D+00 0.01243124 0.00509931 0.02713366 0.01055470    0.0625384 ----
    10   0   0   F    F  1.59D+00 0.01243124 0.00509931 0.04313247 0.01677806    0.0616283 ----
    11   0   0   F    T  3.16D+00 0.01114134 0.00499548 0.06023541 0.02733276    0.0610772 ----
    12   0   0   F    F -4.01D-01 0.01114134 0.00499548 0.02413486 0.01095157    0.0606852 ----
    13   0   0   F    T  2.29D+00 0.01049658 0.00411667 0.04274033 0.01638119    0.0603713 ----
    14   0   0   F    F  4.73D-02 0.01049658 0.00411667 0.00202197 0.00077497    0.0597602 ----
    15   0   0   F    T  1.24D+00 0.01598802 0.00547542 0.04555797 0.01715616    0.0597590 ----
    16   0   0   F    F -8.24D-03 0.01598802 0.00547542 0.00037533 0.00014134    0.0592041 --++
    17   0   0   F    T  3.79D+00 0.00716442 0.00287046 0.04101046 0.01701482    0.0592041 ----
    18   0   0   T    F  4.89D-01 0.00716442 0.00287046 0.02005051 0.00831875    0.0592234 ----
    19   0   0   F    T  3.30D+00 0.00479101 0.00178357 0.01694119 0.00831875    0.0589754 ----
    20   0   0   F    F -3.48D-02 0.00479101 0.00178357 0.00058957 0.00028950    0.0588227 ---+
    21   0   0   F    T  1.00D+00 0.01032394 0.00333126 0.02062407 0.00939135    0.0588225 ----
    22   0   0   F    F  1.13D+00 0.01032394 0.00333126 0.02329983 0.01060978    0.0585691 ----
    23   0   0   F    T  2.63D+00 0.00568774 0.00296008 0.04292115 0.02000113    0.0584712 ----
    24   0   0   F    F -3.29D-01 0.00568774 0.00296008 0.01411047 0.00657544    0.0582952 ----
    25   0   0   F    T  3.53D+00 0.00418646 0.00190796 0.02861230 0.01342569    0.0582401 ----
    26   0   0   F    F -1.97D-01 0.00418646 0.00190796 0.00563132 0.00264237    0.0580947 ----
    27   0   0   F    T  1.34D+00 0.00756610 0.00269294 0.02454837 0.01078332    0.0580854 ----
    28   0   0   F    F  9.64D-01 0.00756610 0.00269294 0.02366011 0.01039314    0.0578742 ----
    29   0   0   F    T  1.02D+00 0.00889730 0.00419356 0.05039138 0.02117646    0.0578109 ----
    30   0   0   F    F  1.07D+00 0.00889730 0.00419356 0.05405313 0.02271527    0.0573713 ----
    31   0   0   F    F -2.60D-02 0.00889730 0.00419356 0.00140393 0.00058999    0.0571901 ----
    32   0   0   F    T  2.04D+00 0.01175599 0.00418105 0.10975510 0.04330174    0.0571900 ----
    33   0   0   F    F  1.24D-01 0.01175599 0.00418105 0.01360103 0.00536602    0.0565307 ----
    34   0   0   F    F -3.34D-02 0.01175599 0.00418105 0.00045415 0.00017918    0.0565213 ---+
    35   0   0   F    T  2.43D+00 0.01230144 0.00539037 0.13039007 0.04848859    0.0565213 ----
    36   0   0   F    F -3.28D-01 0.01230144 0.00539037 0.04270924 0.01588242    0.0559802 ----
    37   0   0   F    T  1.50D+00 0.01456471 0.00548665 0.09276388 0.03260616    0.0558336 ----
    38   0   0   F    F  4.44D-01 0.01456471 0.00548665 0.04116758 0.01447025    0.0549221 ----
    39   0   0   F    F -2.71D-02 0.01456471 0.00548665 0.00111755 0.00039281    0.0548245 ----
    40   0   0   F    T  1.40D+00 0.01552538 0.00666905 0.13769417 0.04668360    0.0548244 ----
    41   0   0   F    F  7.90D-01 0.01552538 0.00666905 0.10878429 0.03688204    0.0533944 ----
    42   0   0   F    F -1.27D-01 0.01552538 0.00666905 0.01376456 0.00466671    0.0530567 ----
    43   0   0   F    T  3.03D+00 0.01737696 0.00741790 0.23670945 0.07889893    0.0530484 ----
    44   0   0   F    F -7.20D-02 0.01737696 0.00741790 0.01703229 0.00567713    0.0507298 ----
    45   0   0   F    F -4.72D-02 0.01737696 0.00741790 0.00080310 0.00026769    0.0507163 ---+
    46   0   0   F    T  1.77D+00 0.02875836 0.00971298 0.21634277 0.07348950    0.0507163 ----
    47   0   0   F    F -3.08D-01 0.02875836 0.00971298 0.06669871 0.02265689    0.0493113 ----
    48   0   0   F    F -6.16D-03 0.02875836 0.00971298 0.00041092 0.00013959    0.0489130 --++
    49   0   0   F    T  2.06D+00 0.01723075 0.00821312 0.13603381 0.05097219    0.0489130 ----
    50   0   0   F    F  6.12D-02 0.01723075 0.00821312 0.00832283 0.00311858    0.0467088 ----
    51   0   0   F    T  2.86D+00 0.01366175 0.00724200 0.13798265 0.05409077    0.0467016 ----
    52   0   0   F    F  1.13D-01 0.01366175 0.00724200 0.01563940 0.00613082    0.0443270 ----
    53   0   0   F    F -1.97D-02 0.01366175 0.00724200 0.00030843 0.00012091    0.0443045 --++
    54   0   0   F    T  2.18D+00 0.02452759 0.00816212 0.15964565 0.06010069    0.0443044 ----
    55   0   0   F    F -4.94D-02 0.02452759 0.00816212 0.00788575 0.00296870    0.0421581 ----
    56   0   0   F    T  2.13D+00 0.02041956 0.00784346 0.14892503 0.05713200    0.0421518 ----
    57   0   0   F    F -4.90D-01 0.02041956 0.00784346 0.07302962 0.02801630    0.0421342 ----
    58   0   0   F    T  2.56D+00 0.01151707 0.00543923 0.06136568 0.02911570    0.0411357 ----
    59   0   0   F    F  5.51D-01 0.01151707 0.00543923 0.03379240 0.01603322    0.0396327 ----
    60   0   0   F    T  3.43D+00 0.01359649 0.00549793 0.10140456 0.04514891    0.0394257 ----
    61   0   0   F    F -2.95D-01 0.01359649 0.00549793 0.02990574 0.01331510    0.0385166 ----
    62   0   0   F    T  3.44D+00 0.01176249 0.00429112 0.07449311 0.03183382    0.0383160 ----
    63   0   0   F    F -3.66D-01 0.01176249 0.00429112 0.02723155 0.01163710    0.0379122 ----
    64   0   0   F    T  3.44D+00 0.00751423 0.00311337 0.04840135 0.02019671    0.0377158 ----
    65   0   0   F    F -3.84D-01 0.00751423 0.00311337 0.01856355 0.00774612    0.0375263 ----
    66   0   0   F    T  1.23D+00 0.00921534 0.00391595 0.03448145 0.01245059    0.0374076 ----
    67   0   0   F    F  3.01D-01 0.00921534 0.00391595 0.01036293 0.00374186    0.0370575 ----
    68   0   0   F    T  2.31D+00 0.00574091 0.00308534 0.04800779 0.01619245    0.0370376 ----
    69   0   0   F    F -2.01D-02 0.00574091 0.00308534 0.00096505 0.00032550    0.0367145 ----
    70   0   0   F    T  2.09D+00 0.00735865 0.00308364 0.04881763 0.01586695    0.0367144 ----
    71   0   0   F    F  1.23D+00 0.00735865 0.00308364 0.05989041 0.01946588    0.0362528 ----
    72   0   0   F    F -7.03D-03 0.00735865 0.00308364 0.00042079 0.00013677    0.0360530 --++
    73   0   0   F    T  2.90D+00 0.00859335 0.00384650 0.09467264 0.03519606    0.0360529 ----
    74   0   0   F    F -2.70D-01 0.00859335 0.00384650 0.02559036 0.00951362    0.0356436 ----
    75   0   0   F    T  2.12D+00 0.00942569 0.00382406 0.06485679 0.02568244    0.0355742 ----
    76   0   0   F    F -1.93D-01 0.00942569 0.00382406 0.01254052 0.00496588    0.0352293 ----
    77   0   0   F    T  1.56D+00 0.01091373 0.00385583 0.05710929 0.02071656    0.0352098 ----
    78   0   0   F    F -7.24D-02 0.01091373 0.00385583 0.00413263 0.00149912    0.0348880 ----
    79   0   0   F    T  3.69D+00 0.00355573 0.00203639 0.04979716 0.01921743    0.0348860 ----
    80   0   0   F    F -3.02D-01 0.00355573 0.00203639 0.01504931 0.00580774    0.0347557 ----
    81   0   0   F    T  3.60D+00 0.00351572 0.00165867 0.03236375 0.01340969    0.0347256 ----
    82   0   0   F    F -2.64D-01 0.00351572 0.00165867 0.00853956 0.00353831    0.0346298 ----
    83   0   0   F    T  1.63D+00 0.00560530 0.00206346 0.02275434 0.00987139    0.0346153 ----
    84   0   0   F    F  1.22D-01 0.00560530 0.00206346 0.00277741 0.00120491    0.0345022 ----
    85   0   0   F    T  1.90D+00 0.00480408 0.00193147 0.02705915 0.01107629    0.0345009 ----
    86   0   0   F    F -3.13D-01 0.00480408 0.00193147 0.00847714 0.00347000    0.0344429 ----
    87   0   0   F    T  3.25D+00 0.00264794 0.00114414 0.01435116 0.00760629    0.0344271 ----
    88   0   0   F    F -2.53D-02 0.00264794 0.00114414 0.00036251 0.00019213    0.0343653 --++
    89   0   0   F    T  2.12D+00 0.00323680 0.00134958 0.01499702 0.00741416    0.0343652 ----
    90   0   0   F    T  2.16D+00 0.00313249 0.00129050 0.01588200 0.00741416    0.0343064 ----
    91   0   0   F    F -3.61D-01 0.00313249 0.00129050 0.00573536 0.00267742    0.0342825 ----
    92   0   0   F    T  1.81D+00 0.00229370 0.00105598 0.01189800 0.00473673    0.0342715 ----
    93   0   0   F    F  9.30D-02 0.00229370 0.00105598 0.00110663 0.00044056    0.0342385 ----
    94   0   0   F    T  2.67D+00 0.00148103 0.00086663 0.01486368 0.00517730    0.0342383 ----
    95   0   0   F    F  9.34D-02 0.00148103 0.00086663 0.00138753 0.00048330    0.0342057 ----
    96   0   0   F    T  2.15D+00 0.00205049 0.00097482 0.01555935 0.00566060    0.0342055 ----
    97   0   0   F    F -9.92D-02 0.00205049 0.00097482 0.00154278 0.00056127    0.0341782 ----
    98   0   0   F    T  2.81D+00 0.00174039 0.00077030 0.01394797 0.00509932    0.0341778 ----
    99   0   0   T    F  4.01D-01 0.00174039 0.00077030 0.00558642 0.00204237    0.0341902 ----
   100   0   0   F    T  1.70D+00 0.00131169 0.00058486 0.00586428 0.00204237    0.0341678 ----
   101   0   0   F    F  1.00D+00 0.00131169 0.00058486 0.00588209 0.00204858    0.0341547 ----
   102   0   0   F    T  2.19D+00 0.00181368 0.00070250 0.01218249 0.00409095    0.0341503 ----
   103   0   0   F    F  2.70D-01 0.00181368 0.00070250 0.00328479 0.00110305    0.0341306 ----
   104   0   0   F    T  3.76D+00 0.00113173 0.00057898 0.01338265 0.00519401    0.0341297 ----
   105   0   0   T    F  3.48D-01 0.00113173 0.00057898 0.00465897 0.00180822    0.0341462 ----
   106   0   0   F    T  1.61D+00 0.00119403 0.00049549 0.00418661 0.00180822    0.0341231 ----
   107   0   0   F    F  1.71D-01 0.00119403 0.00049549 0.00071498 0.00030880    0.0341163 ----
   108   0   0   F    T  1.89D+00 0.00122700 0.00047066 0.00476038 0.00211702    0.0341162 ----
   109   0   0   F    F  6.14D-01 0.00122700 0.00047066 0.00292159 0.00129928    0.0341075 ----
   110   0   0   F    T  2.18D+00 0.00103327 0.00053850 0.00799632 0.00341630    0.0341060 ----
   111   0   0   F    F  1.57D-01 0.00103327 0.00053850 0.00125445 0.00053594    0.0340952 ----
   112   0   0   F    T  2.26D+00 0.00121344 0.00055466 0.00932749 0.00395224    0.0340950 ----
   113   0   0   F    F -5.90D-02 0.00121344 0.00055466 0.00055027 0.00023316    0.0340852 ---+
   114   0   0   F    T  1.26D+00 0.00238599 0.00071131 0.00804198 0.00371908    0.0340852 ----
   115   0   0   F    F  6.88D-01 0.00238599 0.00071131 0.00553574 0.00256005    0.0340718 ----
   116   0   0   F    T  2.38D+00 0.00154168 0.00065804 0.01193826 0.00627913    0.0340691 ----
   117   0   0   F    T  2.76D+00 0.00144198 0.00060857 0.01227750 0.00627913    0.0340535 ----
   118   0   0   F    F  1.21D-01 0.00144198 0.00060857 0.00148826 0.00076115    0.0340365 ----
   119   0   0   F    T  2.10D+00 0.00175204 0.00072926 0.01389128 0.00704028    0.0340363 ----
   120   0   0   F    F -2.98D-01 0.00175204 0.00072926 0.00414647 0.00210148    0.0340267 ----
   121   0   0   F    T  1.57D+00 0.00188121 0.00069478 0.00957249 0.00493880    0.0340246 ----
   122   0   0   F    F  5.95D-01 0.00188121 0.00069478 0.00569228 0.00293685    0.0340090 ----
   123   0   0   F    T  2.39D+00 0.00148627 0.00069002 0.01631085 0.00787565    0.0340065 ----
   124   0   0   F    F -1.95D-02 0.00148627 0.00069002 0.00031846 0.00015377    0.0339896 --++
   125   0   0   F    T  2.75D+00 0.00143769 0.00064173 0.01605286 0.00772188    0.0339896 ----
   126   0   0   F    F  3.63D-02 0.00143769 0.00064173 0.00058262 0.00028026    0.0339719 ---+
   127   0   0   F    T  1.96D+00 0.00249878 0.00078264 0.01816792 0.00800214    0.0339719 ----
   128   0   0   F    F -3.60D-01 0.00249878 0.00078264 0.00654870 0.00288440    0.0339640 ----
   129   0   0   F    T  2.46D+00 0.00108961 0.00053465 0.01148877 0.00511774    0.0339605 ----
   130   0   0   F    F -5.33D-02 0.00108961 0.00053465 0.00061253 0.00027285    0.0339506 ---+
   131   0   0   F    T  1.75D+00 0.00190121 0.00060119 0.01109148 0.00484488    0.0339505 ----
   132   0   0   F    F  4.59D-01 0.00190121 0.00060119 0.00508797 0.00222248    0.0339380 ----
   133   0   0   F    T  4.39D+00 0.00111702 0.00044978 0.01640314 0.00706736    0.0339366 ----
   134   0   0   T    F  3.33D-01 0.00111702 0.00044978 0.00545657 0.00235099    0.0339503 ----
   135   0   0   F    T  1.86D+00 0.00133988 0.00039261 0.00535218 0.00235099    0.0339322 ----
   136   0   0   F    F -1.45D-01 0.00133988 0.00039261 0.00077640 0.00034104    0.0339286 ----
   137   0   0   F    T  2.15D+00 0.00079808 0.00032664 0.00557001 0.00200995    0.0339285 ----
   138   0   0   F    F  1.55D-01 0.00079808 0.00032664 0.00086179 0.00031098    0.0339246 ----
   139   0   0   F    T  2.64D+00 0.00075028 0.00030545 0.00529508 0.00232093    0.0339245 ----
   140   0   0   F    F -2.08D-01 0.00075028 0.00030545 0.00110351 0.00048369    0.0339218 ----
   141   0   0   F    T  2.07D+00 0.00068032 0.00029770 0.00439859 0.00183724    0.0339216 ----
   142   0   0   F    F -1.84D-01 0.00068032 0.00029770 0.00080902 0.00033792    0.0339195 ----
   143   0   0   F    T  1.35D+00 0.00082158 0.00032669 0.00310507 0.00149932    0.0339194 ----
   144   0   0   F    F  2.07D+00 0.00082158 0.00032669 0.00641834 0.00309917    0.0339158 ----
   145   0   0   F    T  1.99D+00 0.00096326 0.00046622 0.01018118 0.00459849    0.0339127 ----
   146   0   0   F    T  2.79D+00 0.00084814 0.00038714 0.00977032 0.00459849    0.0339063 ----
   147   0   0   F    F -1.95D-01 0.00084814 0.00038714 0.00190251 0.00089543    0.0339014 ----
   148   0   0   F    T  1.44D+00 0.00145978 0.00047611 0.00867412 0.00370305    0.0339011 ----
   149   0   0   F    F  2.15D-01 0.00145978 0.00047611 0.00186669 0.00079691    0.0338954 ----
   150   0   0   F    T  2.27D+00 0.00097958 0.00042056 0.01079462 0.00449996    0.0338952 ----
   151   0   0   F    F  4.79D-01 0.00097958 0.00042056 0.00516551 0.00215335    0.0338872 ----
   152   0   0   F    T  2.95D+00 0.00123729 0.00044079 0.01587806 0.00665331    0.0338862 ----
   153   0   0   F    F -4.88D-01 0.00123729 0.00044079 0.00774176 0.00324399    0.0338857 ----
   154   0   0   F    T  2.61D+00 0.00070241 0.00032574 0.00833749 0.00340931    0.0338819 ----
   155   0   0   F    F -3.46D-01 0.00070241 0.00032574 0.00288762 0.00118079    0.0338799 ----
   156   0   0   F    T  1.32D+00 0.00077930 0.00036669 0.00571889 0.00222852    0.0338791 ----
   157   0   0   F    F  1.58D+00 0.00077930 0.00036669 0.00903742 0.00352168    0.0338748 ----
   158   0   0   F    T  3.53D+00 0.00099078 0.00036422 0.01414877 0.00575021    0.0338723 ----
   159   0   0   F    F -4.28D-01 0.00099078 0.00036422 0.00605404 0.00246042    0.0338706 ----
   160   0   0   F    T  2.35D+00 0.00074698 0.00033572 0.00836857 0.00328978    0.0338683 ----
   161   0   0   F    F -1.08D-01 0.00074698 0.00033572 0.00090683 0.00035649    0.0338648 ----
   162   0   0   F    T  1.46D+00 0.00106531 0.00039600 0.00665605 0.00293330    0.0338648 ----
   163   0   0   F    F  1.70D-01 0.00106531 0.00039600 0.00113397 0.00049974    0.0338608 ----
   164   0   0   F    T  2.50D+00 0.00080335 0.00031611 0.00827561 0.00343303    0.0338607 ----
   165   0   0   F    F -6.89D-02 0.00080335 0.00031611 0.00057009 0.00023649    0.0338572 ---+
   166   0   0   F    T  3.90D+00 0.00041897 0.00023963 0.00796136 0.00319654    0.0338572 ----
   167   0   0   F    F -4.77D-01 0.00041897 0.00023963 0.00379652 0.00152433    0.0338569 ----
   168   0   0   F    T  1.57D+00 0.00065681 0.00027032 0.00456013 0.00167221    0.0338555 ----
   169   0   0   F    F  4.28D-01 0.00065681 0.00027032 0.00195154 0.00071563    0.0338532 ----
   170   0   0   F    T  1.55D+00 0.00064226 0.00031979 0.00702371 0.00238784    0.0338530 ----
   171   0   0   F    F  2.69D-01 0.00064226 0.00031979 0.00189232 0.00064333    0.0338501 ----
   172   0   0   F    T  2.46D+00 0.00058718 0.00027925 0.00924396 0.00303117    0.0338500 ----
   173   0   0   F    F  2.61D-01 0.00058718 0.00027925 0.00240898 0.00078993    0.0338465 ----
   174   0   0   F    T  2.59D+00 0.00075102 0.00030444 0.01152410 0.00382110    0.0338464 ----
   175   0   0   F    F -3.93D-01 0.00075102 0.00030444 0.00453091 0.00150234    0.0338451 ----
   176   0   0   F    T  2.06D+00 0.00068859 0.00026401 0.00678835 0.00231876    0.0338442 ----
   177   0   0   F    F -2.24D-01 0.00068859 0.00026401 0.00152183 0.00051983    0.0338426 ----
   178   0   0   F    T  2.08D+00 0.00052784 0.00022681 0.00503780 0.00179894    0.0338425 ----
   179   0   0   F    T  3.66D+00 0.00041290 0.00016868 0.00465382 0.00179894    0.0338408 ----
   180   0   0   F    F -2.93D-01 0.00041290 0.00016868 0.00136255 0.00052670    0.0338399 ----
   181   0   0   F    T  1.63D+00 0.00051787 0.00020540 0.00312896 0.00127224    0.0338397 ----
   182   0   0   F    F -1.85D-01 0.00051787 0.00020540 0.00057805 0.00023503    0.0338389 ---+
   183   0   0   F    T  2.98D+00 0.00032792 0.00013579 0.00228312 0.00103721    0.0338389 ----
   184   0   0   F    F -4.63D-01 0.00032792 0.00013579 0.00105817 0.00048072    0.0338388 ----
   185   0   0   F    T  2.71D+00 0.00027468 0.00009806 0.00115029 0.00055649    0.0338384 ----
   186   0   0   F    T  2.53D+00 0.00022535 0.00010137 0.00130119 0.00055649    0.0338380 ----
   187   0   0   F    T  1.00D+00 0.00043737 0.00015696 0.00159060 0.00065635    0.0338377 ----
   188   0   0   F    F -1.98D-01 0.00043737 0.00015696 0.00031571 0.00013028    0.0338375 --++
   189   0   0   F    T  2.76D+00 0.00044656 0.00016233 0.00128077 0.00052608    0.0338375 ----
   190   0   0   T    F  3.13D-01 0.00044656 0.00016233 0.00040028 0.00016441    0.0338388 --++
   191   0   0   F    T  1.30D+00 0.00035457 0.00010141 0.00038831 0.00016441    0.0338371 --++
   192   0   0   F    T  1.77D+00 0.00017339 0.00007225 0.00034524 0.00016441    0.0338369 -+++
   193   0   0   F    F  1.18D+00 0.00017339 0.00007225 0.00040819 0.00019439    0.0338367 -+++
   194   0   0   F    T  1.51D+00 0.00031995 0.00010475 0.00085235 0.00035881    0.0338366 ----
   195   0   0   F    T  1.83D+00 0.00024022 0.00009887 0.00086030 0.00035881    0.0338363 ----
   196   0   0   F    T  1.12D+00 0.00032502 0.00011027 0.00087964 0.00035881    0.0338361 ----
   197   0   0   F    F  9.64D-01 0.00032502 0.00011027 0.00084795 0.00034588    0.0338358 ----
   198   0   0   F    T  2.50D+00 0.00042032 0.00014034 0.00173380 0.00070469    0.0338358 ----
   199   0   0   F    F -4.30D-01 0.00042032 0.00014034 0.00074503 0.00030281    0.0338356 ----
   200   0   0   F    T  1.89D+00 0.00026429 0.00010835 0.00093372 0.00040188    0.0338353 ----
   201   0   0   F    T  1.00D+00 0.00034354 0.00014154 0.00109217 0.00044501    0.0338351 ----
   202   0   0   F    T  2.12D+00 0.00046776 0.00015971 0.00095492 0.00044501    0.0338350 ----
   203   0   0   T    F  4.21D-01 0.00046776 0.00015971 0.00040219 0.00018743    0.0338353 --++
   204   0   0   F    T  1.61D+00 0.00024888 0.00009070 0.00039519 0.00018743    0.0338346 --++
   205   0   0   F    T  1.19D+00 0.00022643 0.00008829 0.00046848 0.00018743    0.0338345 ---+
   206   0   0   T    T  1.00D+00 0.00033372 0.00013627 0.00033372 0.00013627    0.0338346 --++
   207   0   0   F    T  1.26D+00 0.00032946 0.00010367 0.00036534 0.00013627    0.0338345 --++
   208   0   0   T    F  5.00D-01 0.00032946 0.00010367 0.00018267 0.00006813    0.0338347 --++
   209   0   0   T    F  5.00D-01 0.00032946 0.00010367 0.00009133 0.00003407    0.0338346 --++
   210   0   0   T    F  5.00D-01 0.00032946 0.00010367 0.00004567 0.00001703    0.0338345 --++
   211   0   0   T    F  5.00D-01 0.00032946 0.00010367 0.00002283 0.00000852    0.0338345 --++
   212   0   0   T    F  5.00D-01 0.00032946 0.00010367 0.00001142 0.00000426    0.0338345 --++
   213   0   0   T    F  5.00D-01 0.00032946 0.00010367 0.00000571 0.00000213    0.0338345 --++
   214   0   0   T    F  5.00D-01 0.00032946 0.00010367 0.00000285 0.00000106    0.0338345 --++
   215   0   0   T    F  5.00D-01 0.00032946 0.00010367 0.00000143 0.00000053    0.0338345 --++
   216   0   0   T    F  5.00D-01 0.00032946 0.00010367 0.00000071 0.00000027    0.0338345 --++
   217   0   0   T    T  1.00D+00 0.00032932 0.00010368 0.00032956 0.00010366    0.0338345 --++
   218   0   0   F    T  1.01D+00 0.00030686 0.00009245 0.00021864 0.00010366    0.0338345 --++
   219   0   0   T    F  5.00D-01 0.00030686 0.00009245 0.00010932 0.00005183    0.0338346 --++
   220   0   0   T    F  5.00D-01 0.00030686 0.00009245 0.00005466 0.00002592    0.0338345 --++
   221   0   0   T    F  5.00D-01 0.00030686 0.00009245 0.00002733 0.00001296    0.0338345 --++
   222   0   0   T    F  5.00D-01 0.00030686 0.00009245 0.00001366 0.00000648    0.0338345 --++
   223   0   0   T    F  5.00D-01 0.00030686 0.00009245 0.00000683 0.00000324    0.0338345 --++
   224   0   0   T    F  5.00D-01 0.00030686 0.00009245 0.00000342 0.00000162    0.0338345 --++
   225   0   0   T    F  5.00D-01 0.00030686 0.00009245 0.00000171 0.00000081    0.0338345 --++
   226   0   0   T    F  5.00D-01 0.00030686 0.00009245 0.00000085 0.00000040    0.0338345 --++
   227   0   0   T    T  1.00D+00 0.00030820 0.00009279 0.00027467 0.00009070    0.0338345 --++
   228   0   0   F    T  1.30D+00 0.00022316 0.00007069 0.00020184 0.00009070    0.0338344 -+++
   229   0   0   T    F  5.00D-01 0.00022316 0.00007069 0.00010092 0.00004535    0.0338345 -+++
   230   0   0   T    F  5.00D-01 0.00022316 0.00007069 0.00005046 0.00002267    0.0338344 -+++
   231   0   0   T    F  5.00D-01 0.00022316 0.00007069 0.00002523 0.00001134    0.0338344 -+++
   232   0   0   T    F  5.00D-01 0.00022316 0.00007069 0.00001262 0.00000567    0.0338344 -+++
   233   0   0   T    F  5.00D-01 0.00022316 0.00007069 0.00000631 0.00000283    0.0338344 -+++
   234   0   0   T    F  5.00D-01 0.00022316 0.00007069 0.00000315 0.00000142    0.0338344 -+++
   235   0   0   T    F  5.00D-01 0.00022316 0.00007069 0.00000158 0.00000071    0.0338344 -+++
   236   0   0   T    F  5.00D-01 0.00022316 0.00007069 0.00000079 0.00000035    0.0338344 -+++
   237   0   0   T    T  1.00D+00 0.00022448 0.00007103 0.00019680 0.00006962    0.0338344 -+++
   238   0   0   F    T  1.22D+00 0.00016422 0.00005361 0.00014286 0.00006962    0.0338344 -+++
   239   0   0   T    T  1.00D+00 0.00034419 0.00010363 0.00034419 0.00010363    0.0338344 --++
   240   0   0   T    T  1.00D+00 0.00050900 0.00014979 0.00058868 0.00017217    0.0338345 ---+
   241   0   0   T    F  5.00D-01 0.00050900 0.00014979 0.00029434 0.00008609    0.0338354 --++
   242   0   0   T    F  5.00D-01 0.00050900 0.00014979 0.00014717 0.00004304    0.0338347 --++
   243   0   0   T    F  5.00D-01 0.00050900 0.00014979 0.00007358 0.00002152    0.0338345 --++
   244   0   0   T    F  5.00D-01 0.00050900 0.00014979 0.00003679 0.00001076    0.0338344 --++
   245   0   0   T    F  5.00D-01 0.00050900 0.00014979 0.00001840 0.00000538    0.0338344 --++
   246   0   0   T    F  5.00D-01 0.00050900 0.00014979 0.00000920 0.00000269    0.0338344 --++
   247   0   0   T    F  5.00D-01 0.00050900 0.00014979 0.00000460 0.00000135    0.0338344 --++
   248   0   0   T    F  5.00D-01 0.00050900 0.00014979 0.00000230 0.00000067    0.0338344 --++
   249   0   0   T    F  5.00D-01 0.00050900 0.00014979 0.00000115 0.00000034    0.0338344 --++
   250   0   0   T    F  5.00D-01 0.00050900 0.00014979 0.00000057 0.00000017    0.0338344 --++
   251   0   0   T    T  1.00D+00 0.00016534 0.00005390 0.00006942 0.00003013    0.0338344 -+++
   252   0   0   F    F  1.72D+01 0.00016534 0.00005390 0.00119573 0.00051902    0.0338343 -+--
   253   0   0   F    T  2.38D+00 0.00027246 0.00009425 0.00142487 0.00054915    0.0338341 ----
   254   0   0   T    T  1.00D+00 0.00244859 0.00071024 0.00244859 0.00071024    0.0338378 ----
   255   0   0   T    F  5.00D-01 0.00244859 0.00071024 0.00122430 0.00035512    0.0338503 ----
   256   0   0   T    F  5.00D-01 0.00244859 0.00071024 0.00061215 0.00017756    0.0338386 ---+
   257   0   0   T    F  5.00D-01 0.00244859 0.00071024 0.00030607 0.00008878    0.0338354 --++
   258   0   0   T    F  5.00D-01 0.00244859 0.00071024 0.00015304 0.00004439    0.0338345 --++
   259   0   0   T    F  5.00D-01 0.00244859 0.00071024 0.00007652 0.00002219    0.0338343 --++
   260   0   0   T    F  5.00D-01 0.00244859 0.00071024 0.00003826 0.00001110    0.0338342 --++
   261   0   0   T    F  5.00D-01 0.00244859 0.00071024 0.00001913 0.00000555    0.0338341 --++
   262   0   0   T    F  5.00D-01 0.00244859 0.00071024 0.00000956 0.00000277    0.0338341 --++
   263   0   0   T    F  5.00D-01 0.00244859 0.00071024 0.00000478 0.00000139    0.0338341 --++
   264   0   0   T    F  5.00D-01 0.00244859 0.00071024 0.00000239 0.00000069    0.0338341 --++
   265   0   0   T    F  5.00D-01 0.00244859 0.00071024 0.00000120 0.00000035    0.0338341 --++
   266   0   0   T    F  5.00D-01 0.00244859 0.00071024 0.00000060 0.00000017    0.0338341 --++
   267   0   0   T    T  1.00D+00 0.00027363 0.00009452 0.00013478 0.00005710    0.0338341 --++
   268   0   0   F    T  1.00D+00 0.00026920 0.00007983 0.00026958 0.00007984    0.0338340 --++
   269   0   0   F    T  1.00D+00 0.00024312 0.00007521 0.00020203 0.00008302    0.0338340 --++
   270   0   0   T    F  5.00D-01 0.00024312 0.00007521 0.00010102 0.00004151    0.0338342 --++
   271   0   0   T    F  5.00D-01 0.00024312 0.00007521 0.00005051 0.00002076    0.0338341 --++
   272   0   0   T    F  5.00D-01 0.00024312 0.00007521 0.00002525 0.00001038    0.0338340 --++
   273   0   0   T    F  5.00D-01 0.00024312 0.00007521 0.00001263 0.00000519    0.0338340 --++
   274   0   0   T    F  5.00D-01 0.00024312 0.00007521 0.00000631 0.00000259    0.0338340 --++
   275   0   0   T    F  5.00D-01 0.00024312 0.00007521 0.00000316 0.00000130    0.0338340 --++
   276   0   0   T    F  5.00D-01 0.00024312 0.00007521 0.00000158 0.00000065    0.0338340 --++
   277   0   0   T    F  5.00D-01 0.00024312 0.00007521 0.00000079 0.00000032    0.0338340 --++
   278   0   0   T    T  1.00D+00 0.00024454 0.00007560 0.00017306 0.00006966    0.0338340 --++
   279   0   0   F    T -2.08D-04 0.00011378 0.00003807 0.00011378 0.00003807    0.0338340 -+++
   280   0   0   F    T -1.98D-04 0.00009480 0.00003622 0.00009480 0.00003622    0.0338339 ====
 ****************************
 MOLECULAR MECHANICS FUNCTION
 ****************************
 Atomic parameters:
 Center  VDW
      1 1.9080 0.0860000
      2 1.7210 0.2104000
      3 1.9080 0.1094000
      4 1.4870 0.0157000
      5 1.4870 0.0157000
      6 1.8750 0.1700000
      7 0.6000 0.0157000
      8 0.6000 0.0157000
      9 1.6612 0.2100000
     10 0.0000 0.0000000
 Molecular mechanics terms:
 NBDir 3 1      0      0
 HrmStr1  1- 2  431.53 1.3510
 HrmStr1  1- 3  294.15 1.5090
 HrmStr1  1- 9  946.08 1.2030
 HrmStr1  2-10  566.76 0.9680
 HrmStr1  3- 4  358.05 1.0960
 HrmStr1  3- 5  358.05 1.0960
 HrmStr1  3- 6  380.82 1.4520
 HrmStr1  6- 7  506.01 1.0110
 HrmStr1  6- 8  506.01 1.0110
 HrmBnd1  1- 2-10  56.55 107.23
 HrmBnd1  1- 3- 4  46.41 106.89
 HrmBnd1  1- 3- 5  46.41 106.89
 HrmBnd1  1- 3- 6  59.93 110.61
 HrmBnd1  2- 1- 3  67.92 111.72
 HrmBnd1  2- 1- 9  91.40 123.02
 HrmBnd1  3- 1- 9  62.83 125.24
 HrmBnd1  3- 6- 7  52.60 110.71
 HrmBnd1  3- 6- 8  52.60 110.71
 HrmBnd1  4- 3- 5  44.68 106.22
 HrmBnd1  4- 3- 6  52.45 112.94
 HrmBnd1  5- 3- 6  52.45 112.94
 HrmBnd1  7- 6- 8  47.09 108.63
 AmbTrs  3- 1- 2-10   0 180   0   0  0.0000 14.5000  0.0000  0.0000  2.0
 AmbTrs  9- 1- 2-10   0   0   0   0  0.0000  0.0000  0.0000  0.0000  2.0
 AmbTrs  2- 1- 3- 4   0   0   0   0  0.0000 14.5000  0.0000  0.0000  6.0
 AmbTrs  2- 1- 3- 5   0   0   0   0  0.0000 14.5000  0.0000  0.0000  6.0
 AmbTrs  2- 1- 3- 6   0   0   0   0  0.0000 14.5000  0.0000  0.0000  6.0
 AmbTrs  9- 1- 3- 4   0   0   0   0  0.0000 14.5000  0.0000  0.0000  6.0
 AmbTrs  9- 1- 3- 5   0   0   0   0  0.0000 14.5000  0.0000  0.0000  6.0
 AmbTrs  9- 1- 3- 6   0   0   0   0  0.0000 14.5000  0.0000  0.0000  6.0
 AmbTrs  1- 3- 6- 7   0 180   0   0  0.0000 25.6300  0.0000  0.0000  6.0
 AmbTrs  1- 3- 6- 8   0 180   0   0  0.0000 25.6300  0.0000  0.0000  6.0
 AmbTrs  4- 3- 6- 7   0   0   0   0  0.0000 16.9300  0.0000  0.0000  6.0
 AmbTrs  4- 3- 6- 8   0   0   0   0  0.0000 16.9300  0.0000  0.0000  6.0
 AmbTrs  5- 3- 6- 7   0   0   0   0  0.0000 16.9300  0.0000  0.0000  6.0
 AmbTrs  5- 3- 6- 8   0   0   0   0  0.0000 16.9300  0.0000  0.0000  6.0
 NBPair  2- 1 3 1      0      0 -1.000 -1.000
 NBPair  3- 2 3 1      0      0 -1.000 -1.000
 NBPair 10- 3 3 1      0      0 -0.500 -0.167
 NBPair  9- 2 3 1      0      0 -1.000 -1.000
 NBPair 10- 9 3 1      0      0 -0.500 -0.167
 NBPair  3- 1 3 1      0      0 -1.000 -1.000
 NBPair  4- 2 3 1      0      0 -0.500 -0.167
 NBPair  5- 2 3 1      0      0 -0.500 -0.167
 NBPair  6- 2 3 1      0      0 -0.500 -0.167
 NBPair  9- 3 3 1      0      0 -1.000 -1.000
 NBPair  9- 4 3 1      0      0 -0.500 -0.167
 NBPair  9- 5 3 1      0      0 -0.500 -0.167
 NBPair  9- 6 3 1      0      0 -0.500 -0.167
 NBPair  9- 1 3 1      0      0 -1.000 -1.000
 NBPair 10- 1 3 1      0      0 -1.000 -1.000
 NBPair 10- 2 3 1      0      0 -1.000 -1.000
 NBPair  4- 1 3 1      0      0 -1.000 -1.000
 NBPair  5- 1 3 1      0      0 -1.000 -1.000
 NBPair  6- 1 3 1      0      0 -1.000 -1.000
 NBPair  4- 3 3 1      0      0 -1.000 -1.000
 NBPair  5- 4 3 1      0      0 -1.000 -1.000
 NBPair  6- 4 3 1      0      0 -1.000 -1.000
 NBPair  5- 3 3 1      0      0 -1.000 -1.000
 NBPair  6- 5 3 1      0      0 -1.000 -1.000
 NBPair  6- 3 3 1      0      0 -1.000 -1.000
 NBPair  7- 1 3 1      0      0 -0.500 -0.167
 NBPair  8- 1 3 1      0      0 -0.500 -0.167
 NBPair  7- 4 3 1      0      0 -0.500 -0.167
 NBPair  8- 4 3 1      0      0 -0.500 -0.167
 NBPair  7- 5 3 1      0      0 -0.500 -0.167
 NBPair  8- 5 3 1      0      0 -0.500 -0.167
 NBPair  7- 3 3 1      0      0 -1.000 -1.000
 NBPair  8- 3 3 1      0      0 -1.000 -1.000
 NBPair  7- 6 3 1      0      0 -1.000 -1.000
 NBPair  8- 7 3 1      0      0 -1.000 -1.000
 NBPair  8- 6 3 1      0      0 -1.000 -1.000
 Energy per function type:
 Direct Coulomb + vdW (small)                           0.001984958
 Direct Coulomb (large)                                -0.132352812
 Direct vdW (large)                                   270.387705654
 Non-direct Coulomb + vdW (small)                      -0.011305357
 Non-direct Coulomb (large)                             0.138464590
 Non-direct vdW (large)                              -270.387705654
 Harmonic stretch I                                     0.000074445
 Harmonic bend I                                        0.008530125
 Amber torsion                                          0.028437999
 Energy per function class:
        Coulomb              -0.004092748
    Vanderwaals               0.000884128
     Stretching               0.000074445
        Bending               0.008530125
        Torsion               0.028437999
 Energy=    3.383394933E-02 NIter=   0.
 Dipole moment=       0.337277      -0.495726       0.013726
 Leave Link  402 at Wed Nov 29 12:05:24 2023, MaxMem=   134217728 cpu:               0.5 elap:               0.5
 (Enter /home/emanuele/chem_software/gaussian//gdv/l716.exe)
 Dipole        = 3.37277025D-01-4.95725559D-01 1.37264198D-02
 -------------------------------------------------------------------
 Center     Atomic                   Forces (Hartrees/Bohr)
 Number     Number              X              Y              Z
 -------------------------------------------------------------------
      1        6           0.000055764   -0.000094799   -0.000071407
      2        8          -0.000019629    0.000009921    0.000016779
      3        6          -0.000014243    0.000010697   -0.000025396
      4        1           0.000015078    0.000008777   -0.000040447
      5        1          -0.000019423    0.000007058    0.000022713
      6        7           0.000007702   -0.000042000   -0.000032536
      7        1           0.000003350    0.000013818    0.000041992
      8        1           0.000035221    0.000034087    0.000017250
      9        8          -0.000046480    0.000061720    0.000059229
     10        1          -0.000017339   -0.000009279    0.000011824
 -------------------------------------------------------------------
 Cartesian Forces:  Max     0.000094799 RMS     0.000036221
 Z-matrix is all fixed cartesians, so copy forces.
 Leave Link  716 at Wed Nov 29 12:05:24 2023, MaxMem=   134217728 cpu:               0.0 elap:               0.0
 (Enter /home/emanuele/chem_software/gaussian//gdv/l103.exe)

 GradGradGradGradGradGradGradGradGradGradGradGradGradGradGradGradGradGrad
 Berny optimization.
 Search for a local minimum.
 Step number   1 out of a maximum of    2
 All quantities printed in internal units (Hartrees-Bohrs-Radians)
 RMS Force = .36221D-04 SwitMx=.10000D-02 MixMth= 2
 Mixed Optimization -- En-DIIS/RFO-DIIS
 Second derivative matrix not updated -- unit matrix used.
 ITU=  0
 RFO step:  Lambda=-3.93580020D-08 EMin= 1.00000000D+00
 Linear search not attempted -- first point.
 Variable       Old X    -DE/DX   Delta X   Delta X   Delta X     New X
                                 (Linear)    (Quad)   (Total)
    X1       -1.16169   0.00006   0.00000   0.00006   0.00006  -1.16163
    Y1        0.06831  -0.00009   0.00000  -0.00009  -0.00009   0.06821
    Z1        0.34398  -0.00007   0.00000  -0.00007  -0.00007   0.34391
    X2       -2.21468  -0.00002   0.00000  -0.00002  -0.00002  -2.21470
    Y2       -1.34727   0.00001   0.00000   0.00001   0.00001  -1.34726
    Z2       -1.49553   0.00002   0.00000   0.00002   0.00002  -1.49552
    X3        1.37859  -0.00001   0.00000  -0.00001  -0.00001   1.37858
    Y3       -0.94368   0.00001   0.00000   0.00001   0.00001  -0.94367
    Z3        1.21202  -0.00003   0.00000  -0.00003  -0.00003   1.21199
    X4        1.47729   0.00002   0.00000   0.00002   0.00002   1.47731
    Y4       -0.30515   0.00001   0.00000   0.00001   0.00001  -0.30514
    Z4        3.18111  -0.00004   0.00000  -0.00004  -0.00004   3.18107
    X5        1.10899  -0.00002   0.00000  -0.00002  -0.00002   1.10897
    Y5       -2.99749   0.00001   0.00000   0.00001   0.00001  -2.99748
    Z5        1.28762   0.00002   0.00000   0.00002   0.00002   1.28765
    X6        3.40230   0.00001   0.00000   0.00001   0.00001   3.40230
    Y6       -0.02938  -0.00004   0.00000  -0.00004  -0.00004  -0.02942
    Z6       -0.42175  -0.00003   0.00000  -0.00003  -0.00003  -0.42179
    X7        5.21598   0.00000   0.00000   0.00000   0.00000   5.21598
    Y7       -0.54104   0.00001   0.00000   0.00001   0.00001  -0.54102
    Z7       -0.10260   0.00004   0.00000   0.00004   0.00004  -0.10256
    X8        2.99807   0.00004   0.00000   0.00004   0.00004   2.99810
    Y8        1.08545   0.00003   0.00000   0.00003   0.00003   1.08548
    Z8       -1.92146   0.00002   0.00000   0.00002   0.00002  -1.92144
    X9       -2.20477  -0.00005   0.00000  -0.00005  -0.00005  -2.20482
    Y9        1.90221   0.00006   0.00000   0.00006   0.00006   1.90227
    Z9        1.18582   0.00006   0.00000   0.00006   0.00006   1.18588
   X10       -3.79794  -0.00002   0.00000  -0.00002  -0.00002  -3.79796
   Y10       -0.52701  -0.00001   0.00000  -0.00001  -0.00001  -0.52702
   Z10       -1.89925   0.00001   0.00000   0.00001   0.00001  -1.89924
         Item               Value     Threshold  Converged?
 Maximum Force            0.000095     0.000450     YES
 RMS     Force            0.000036     0.000300     YES
 Maximum Displacement     0.000095     0.001800     YES
 RMS     Displacement     0.000036     0.001200     YES
 Predicted change in Energy=-1.967900D-08
 Optimization completed.
    -- Stationary point found.
 Largest change from initial coordinates is atom    8       0.194 Angstoms.
 GradGradGradGradGradGradGradGradGradGradGradGradGradGradGradGradGradGrad

 Leave Link  103 at Wed Nov 29 12:05:24 2023, MaxMem=   134217728 cpu:               0.0 elap:               0.0
 (Enter /home/emanuele/chem_software/gaussian//gdv/l202.exe)
                          Input orientation:                          
 ---------------------------------------------------------------------
 Center     Atomic      Atomic             Coordinates (Angstroms)
 Number     Number       Type             X           Y           Z
 ---------------------------------------------------------------------
      1          6    20001002       -0.614740    0.036147    0.182028
      2          8    20001022       -1.171959   -0.712944   -0.791402
      3          6    20001001        0.729518   -0.499375    0.641371
      4          1    20001034        0.781750   -0.161477    1.683371
      5          1    20001034        0.586851   -1.586204    0.681381
      6          7    20001020        1.800417   -0.015548   -0.223183
      7          1    20001029        2.760177   -0.286305   -0.054295
      8          1    20001029        1.586510    0.574395   -1.016792
      9          8    20001025       -1.166715    1.006604    0.627511
     10          1    20001031       -2.009783   -0.278881   -1.005039
 ---------------------------------------------------------------------
                    Distance matrix (angstroms):
                    1          2          3          4          5
     1  C    0.000000
     2  O    1.348777   0.000000
     3  C    1.518160   2.390412   0.000000
     4  H    2.059919   3.200874   1.096662   0.000000
     5  H    2.079711   2.454605   1.096882   1.752659   0.000000
     6  N    2.449459   3.105520   1.458892   2.166547   2.181270
     7  H    3.398512   4.023313   2.157064   2.636141   2.637102
     8  H    2.563666   3.052408   2.153351   2.912048   2.924260
     9  O    1.202048   2.229392   2.421543   2.505149   3.130583
    10  H    1.858634   0.967471   3.203601   3.877369   3.360895
                    6          7          8          9         10
     6  N    0.000000
     7  H    1.011420   0.000000
     8  H    1.011734   1.744906   0.000000
     9  O    3.251515   4.190102   3.235860   0.000000
    10  H    3.898496   4.863794   3.696153   2.242422   0.000000
 Symmetry turned off by external request.
 Stoichiometry    C2H5NO2
 Framework group  C1[X(C2H5NO2)]
 Deg. of freedom    24
 Full point group                 C1      NOp   1
 Rotational constants (GHZ):           8.9812026           3.8902345           3.1859359
 Leave Link  202 at Wed Nov 29 12:05:24 2023, MaxMem=   134217728 cpu:               0.0 elap:               0.0
 (Enter /home/emanuele/chem_software/gaussian//gdv/l9999.exe)
 Unable to Open any file for archive entry.
 1\1\GINC-EMANUELE-XPS-13-9343\FOpt\AMBER\ZDO\C2H5N1O2\EMANUELE\29-Nov-
 2023\0\\#p Amber=(SoftFirst,Print) geom=nocrowd nosymm opt=(maxcycle=3
 00)\\Title\\0,1\C,-0.6147396183,0.0361472807,0.1820282573\O,-1.1719592
 253,-0.7129443884,-0.7914024188\C,0.7295182681,-0.4993753929,0.6413707
 369\H,0.7817496958,-0.1614772946,1.683370673\H,0.5868505284,-1.5862038
 862,0.6813814774\N,1.8004170702,-0.0155483854,-0.2231827432\H,2.760176
 9399,-0.2863045537,-0.0542945807\H,1.5865100965,0.57439484,-1.01679203
 74\O,-1.1667154735,1.0066039281,0.6275110579\H,-2.0097832818,-0.278881
 1477,-1.0050394224\\Version=ES64L-GDVRevJ.14\HF=0.0338339\RMSD=0.000e+
 00\RMSF=3.622e-05\Dipole=0.337277,-0.4957256,0.0137264\PG=C01 [X(C2H5N
 1O2)]\\@
 The archive entry for this job was punched.


 READER, WHETHER YOU BE DILETTANTE OR PROFESSOR ... SHOW YOURSELF TO BE
 MORE HUMAN THAN CRITICAL, AND THEN YOUR PLEASURE WILL INCREASE.
                                           -- DOMENICO SCARLATTI (1738)
 Job cpu time:       0 days  0 hours  0 minutes  1.0 seconds.
 Elapsed time:       0 days  0 hours  0 minutes  1.0 seconds.
 File lengths (MBytes):  RWF=      6 Int=      0 D2E=      0 Chk=      1 Scr=      1
 Normal termination of Gaussian DV at Wed Nov 29 12:05:24 2023.
