 Entering Gaussian System, Link 0=/home/emanuele/chem_software/gaussian//g09/g09
 Input=1_mm_10.gjf
 Output=1_mm_10.log
 Initial command:
 /home/emanuele/chem_software/gaussian//gdv/l1.exe "/home/emanuele/chem_software/gaussian/scratch/Gau-13822.inp" -scrdir="/home/emanuele/chem_software/gaussian/scratch/"
 Entering Link 1 = /home/emanuele/chem_software/gaussian//gdv/l1.exe PID=     13824.
  
 Copyright (c) 1988-2020, Gaussian, Inc.  All Rights Reserved.
  
 This is the private, development version of
 the Gaussian(R) DV system of programs. It is based on
 the Gaussian(R) 16 system (copyright 2016, Gaussian, Inc.),
 the Gaussian(R) 09 system (copyright 2009, Gaussian, Inc.),
 the Gaussian(R) 03 system (copyright 2003, Gaussian, Inc.),
 the Gaussian(R) 98 system (copyright 1998, Gaussian, Inc.),
 the Gaussian(R) 94 system (copyright 1995, Gaussian, Inc.),
 the Gaussian 92(TM) system (copyright 1992, Gaussian, Inc.),
 the Gaussian 90(TM) system (copyright 1990, Gaussian, Inc.),
 the Gaussian 88(TM) system (copyright 1988, Gaussian, Inc.),
 the Gaussian 86(TM) system (copyright 1986, Carnegie Mellon
 University), and the Gaussian 82(TM) system (copyright 1983,
 Carnegie Mellon University). Gaussian is a federally registered
 trademark of Gaussian, Inc.
  
 This software contains proprietary and confidential information,
 including trade secrets, belonging to Gaussian, Inc.
  
 This software is provided under written license and may be
 used, copied, transmitted, or stored only in accord with that
 written license.
  
 The following legend is applicable only to US Government
 contracts under FAR:
  
                    RESTRICTED RIGHTS LEGEND
  
 Use, reproduction and disclosure by the US Government is
 subject to restrictions as set forth in subparagraphs (a)
 and (c) of the Commercial Computer Software - Restricted
 Rights clause in FAR 52.227-19.
  
 Gaussian, Inc.
 340 Quinnipiac St., Bldg. 40, Wallingford CT 06492
  
  
 ---------------------------------------------------------------
 Warning -- This program may not be used in any manner that
 competes with the business of Gaussian, Inc. or will provide
 assistance to any competitor of Gaussian, Inc.  The licensee
 of this program is prohibited from giving any competitor of
 Gaussian, Inc. access to this program.  By using this program,
 the user acknowledges that Gaussian, Inc. is engaged in the
 business of creating and licensing software in the field of
 computational chemistry and represents and warrants to the
 licensee that it is not a competitor of Gaussian, Inc. and that
 it will not use this program in any manner prohibited above.
 ---------------------------------------------------------------
  

 Cite this work as:
 Gaussian Development Version, Revision J.14,
 M. J. Frisch, G. W. Trucks, H. B. Schlegel, G. E. Scuseria, 
 M. A. Robb, J. R. Cheeseman, G. Scalmani, V. Barone, 
 G. A. Petersson, H. Nakatsuji, X. Li, A. V. Marenich, M. Caricato, 
 J. Bloino, B. G. Janesko, J. Zheng, R. Gomperts, B. Mennucci, 
 H. P. Hratchian, J. V. Ortiz, A. F. Izmaylov, J. L. Sonnenberg, 
 D. Williams-Young, F. Ding, F. Lipparini, F. Egidi, J. Goings, 
 B. Peng, A. Petrone, T. Henderson, D. Ranasinghe, V. G. Zakrzewski, 
 J. Gao, N. Rega, G. Zheng, W. Liang, M. Hada, M. Ehara, K. Toyota, 
 R. Fukuda, J. Hasegawa, M. Ishida, T. Nakajima, Y. Honda, O. Kitao, 
 H. Nakai, T. Vreven, K. Throssell, J. A. Montgomery, Jr., 
 J. E. Peralta, F. Ogliaro, M. J. Bearpark, J. J. Heyd, 
 E. N. Brothers, K. N. Kudin, V. N. Staroverov, T. A. Keith, 
 R. Kobayashi, J. Normand, K. Raghavachari, A. P. Rendell, 
 J. C. Burant, S. S. Iyengar, J. Tomasi, M. Cossi, J. M. Millam, 
 M. Klene, C. Adamo, R. Cammi, J. W. Ochterski, R. L. Martin, 
 K. Morokuma, O. Farkas, J. B. Foresman, and D. J. Fox, 
 Gaussian, Inc., Wallingford CT, 2020.
 
 ******************************************
 Gaussian DV:  ES64L-GDVRevJ.14 29-Dec-2020
                29-Nov-2023 
 ******************************************
 %mem=1GB
 %nprocshared=1
 Will use up to    1 processors via shared memory.
 %chk=1_mm_10.chk
 -----------------------------------------------------------------
 #p Amber=(SoftFirst,Print) geom=nocrowd nosymm opt=(maxcycle=300)
 -----------------------------------------------------------------
 1/6=300,10=10,18=4000020,19=15,37=210000000,38=1,56=2,64=203/1,3;
 2/9=110,12=1,15=1,40=1/2;
 3/5=30,11=9,25=1,30=1,41=10030000,43=2,71=1/1;
 4/20=11,22=1001,24=3,119=11/2;
 7/30=1,44=-1/16;
 1/6=300,10=10,18=4000020,19=15,64=203/3(2);
 2/9=110,12=1,15=1/2;
 99//99;
 2/9=110,12=1,15=1/2;
 3/5=30,11=9,25=1,30=1,41=10030000,43=2,71=1/1;
 4/16=2,20=11,22=1001,24=3,119=11/2;
 7/30=1,44=-1/16;
 1/6=300,10=10,18=4000020,19=15,64=203/3(-4);
 2/9=110,12=1,15=1/2;
 99/9=10/99;
 Leave Link    1 at Wed Nov 29 12:05:22 2023, MaxMem=   134217728 cpu:               0.0 elap:               0.0
 (Enter /home/emanuele/chem_software/gaussian//gdv/l101.exe)
 -----
 Title
 -----
 Symbolic Z-matrix:
 Charge =  0 Multiplicity = 1
 C-C-+0.299289        -0.6077    0.16752   0.17258 
 O-OH--0.289770       -1.4813   -0.70042  -0.44175 
 C-CT--0.035454        0.71297  -0.53717   0.41086 
 H-HC-+0.090426        1.01212  -0.90624   1.42066 
 H-HC-+0.095387        0.44622  -1.43039  -0.21144 
 N-N3--0.336253        1.75267   0.22389  -0.328 
 H-H-+0.142619         2.29088   0.72046   0.39332 
 H-H-+0.128282         2.48425  -0.45303  -0.5309 
 O-O2--0.308037       -0.96133   1.28048   0.47265 
 H-HO-+0.213510       -2.36676  -0.28868  -0.63304 
 
 ITRead=  3  3  3  3  3  3  3  3  3  3
 MicOpt=  0  0  0  0  0  0  0  0  0  0
 NAtoms=     10 NQM=        0 NQMF=       0 NMMI=      0 NMMIF=      0
                NMic=      10 NMicF=      0.
                    Isotopes and Nuclear Properties:
 (Nuclear quadrupole moments (NQMom) in fm**2, nuclear magnetic moments (NMagM)
  in nuclear magnetons)

  Atom         1           2           3           4           5           6           7           8           9          10
 IAtWgt=          12          16          12           1           1          14           1           1          16           1
 AtmWgt=  12.0000000  15.9949146  12.0000000   1.0078250   1.0078250  14.0030740   1.0078250   1.0078250  15.9949146   1.0078250
 NucSpn=           0           0           0           1           1           2           1           1           0           1
 AtZEff=  -0.0000000  -0.0000000  -0.0000000  -0.0000000  -0.0000000  -0.0000000  -0.0000000  -0.0000000  -0.0000000  -0.0000000
 NQMom=    0.0000000   0.0000000   0.0000000   0.0000000   0.0000000   2.0440000   0.0000000   0.0000000   0.0000000   0.0000000
 NMagM=    0.0000000   0.0000000   0.0000000   2.7928460   2.7928460   0.4037610   2.7928460   2.7928460   0.0000000   2.7928460
 AtZNuc=   6.0000000   8.0000000   6.0000000   1.0000000   1.0000000   7.0000000   1.0000000   1.0000000   8.0000000   1.0000000
 Generating MM parameters.
 I=    1 IAn=  6 Valence= 5.
          JB=  1 J=    2 IAn=  8 IBT=12 Dist= 1.38D+00
          JB=  2 J=    3 IAn=  6 IBT= 1 Dist= 1.52D+00
          JB=  3 J=    9 IAn=  8 IBT= 2 Dist= 1.21D+00
 I=    2 IAn=  8 Valence= 3.
          JB=  1 J=    1 IAn=  6 IBT=12 Dist= 1.38D+00
          JB=  2 J=   10 IAn=  1 IBT= 1 Dist= 9.95D-01
 Read MM parameter file:
 Include all MM classes

 MM sanity checks:
 All charges sum to:               -0.00000100
 Charges of atoms sum to:          -0.00000100
 WARNING -- The following centers have non-zero partial charges, but zero Vanderwaals
 parameters.  These centers can collapse onto other centers with non-zero charge.
   Center  Layer   Charge
     10 H    R    0.213510
 MMInit generated parameter data with length LenPar=        2069.
 MM Charge=             -0.0000 electrons
 MM Dipole moment (Debye):
    X=              0.9752    Y=             -2.0796    Z=              0.4367  Tot=              2.3380
 MM Quadrupole moment (Debye-Ang):
   XX=              4.7401   YY=             -1.3369   ZZ=              0.8259
   XY=              0.1094   XZ=              2.4117   YZ=             -1.0192
 MM Traceless Quadrupole moment (Debye-Ang):
   XX=              3.3304   YY=             -2.7466   ZZ=             -0.5838
   XY=              0.1094   XZ=              2.4117   YZ=             -1.0192
 MM Octapole moment (Debye-Ang**2):
  XXX=              1.3362  YYY=             -4.1029  ZZZ=              0.9467  XYY=              4.8479
  XXY=             -1.9117  XXZ=             -1.2423  XZZ=              0.9669  YZZ=             -1.1940
  YYZ=             -0.5045  XYZ=              1.5733
 MM Hexadecapole moment (Debye-Ang**3):
 XXXX=             51.9348 YYYY=             -1.9011 ZZZZ=              1.8511 XXXY=              1.6594
 XXXZ=              8.8560 YYYX=              1.8381 YYYZ=             -1.6904 ZZZX=              1.8001
 ZZZY=             -1.2392 XXYY=             -0.3217 XXZZ=              3.3981 YYZZ=              0.1957
 XXYZ=              1.0642 YYXZ=              1.3895 ZZXY=             -0.4933
 Leave Link  101 at Wed Nov 29 12:05:22 2023, MaxMem=   134217728 cpu:               0.2 elap:               0.3
 (Enter /home/emanuele/chem_software/gaussian//gdv/l103.exe)

 GradGradGradGradGradGradGradGradGradGradGradGradGradGradGradGradGradGrad
 Berny optimization.
 Initialization pass.
 No Z-matrix variables, so optimization will use Cartesian coordinates.
 Trust Radius=1.00D-01 FncErr=1.00D-07 GrdErr=1.00D-07 EigMax=2.50D+02 EigMin=1.00D-04
 Number of steps in this run=      2 maximum allowed number of steps=      2.
 GradGradGradGradGradGradGradGradGradGradGradGradGradGradGradGradGradGrad

 Leave Link  103 at Wed Nov 29 12:05:22 2023, MaxMem=   134217728 cpu:               0.0 elap:               0.0
 (Enter /home/emanuele/chem_software/gaussian//gdv/l202.exe)
                          Input orientation:                          
 ---------------------------------------------------------------------
 Center     Atomic      Atomic             Coordinates (Angstroms)
 Number     Number       Type             X           Y           Z
 ---------------------------------------------------------------------
      1          6    20001002       -0.607703    0.167522    0.172582
      2          8    20001022       -1.481304   -0.700420   -0.441748
      3          6    20001001        0.712973   -0.537172    0.410858
      4          1    20001034        1.012125   -0.906237    1.420658
      5          1    20001034        0.446216   -1.430389   -0.211436
      6          7    20001020        1.752674    0.223887   -0.327998
      7          1    20001029        2.290880    0.720455    0.393322
      8          1    20001029        2.484253   -0.453027   -0.530896
      9          8    20001025       -0.961328    1.280475    0.472645
     10          1    20001031       -2.366760   -0.288682   -0.633035
 ---------------------------------------------------------------------
                    Distance matrix (angstroms):
                    1          2          3          4          5
     1  C    0.000000
     2  O    1.376192   0.000000
     3  C    1.515769   2.359754   0.000000
     4  H    2.309653   3.118991   1.115974   0.000000
     5  H    1.952315   2.073941   1.120824   1.805192   0.000000
     6  N    2.413532   3.365397   1.485294   2.209840   2.111172
     7  H    2.959095   4.116503   2.017851   2.310143   2.897352
     8  H    3.231123   3.974266   2.007838   2.486186   2.282737
     9  O    1.205717   2.242863   2.472032   3.094342   3.130165
    10  H    1.987818   0.995063   3.261321   4.001986   3.064975
                    6          7          8          9         10
     6  N    0.000000
     7  H    1.027885   0.000000
     8  H    1.017147   1.506198   0.000000
     9  O    3.020466   3.301026   3.985493   0.000000
    10  H    4.162392   4.874975   4.854871   2.379080   0.000000
 Symmetry turned off by external request.
 Stoichiometry    C2H5NO2
 Framework group  C1[X(C2H5NO2)]
 Deg. of freedom    24
 Full point group                 C1      NOp   1
 Rotational constants (GHZ):           9.1724107           3.8727466           3.0420961
 Leave Link  202 at Wed Nov 29 12:05:22 2023, MaxMem=   134217728 cpu:               0.0 elap:               0.0
 (Enter /home/emanuele/chem_software/gaussian//gdv/l301.exe)
 Standard basis: Dummy (5D, 7F)
    10 basis functions,    10 primitive gaussians,    10 cartesian basis functions
     7 alpha electrons        7 beta electrons
       nuclear repulsion energy        22.5132139346 Hartrees.
 IExCor=       0 DFT=F Ex=HF Corr=None N6=None ScaHFX=  1.000000
 ScaDFX=  1.000000  1.000000  1.000000  1.000000  1.000000  0.000000
 ScaDFX=  0.000000  0.000000  0.000000  0.000000  0.000000  0.000000
 IRadAn=      5 IRanWt=     -1 IRanGd=            0 ICorTp=0 IEmpDi=  4
 NAtoms=   10 NActive=   10 NUniq=   10 SFac= 1.00D+00 NAtFMM=   60 NAOKFM=F Big=F
 Integral buffers will be    131072 words long.
 Raffenetti 1 integral format.
 Two-electron integral symmetry is turned off.
 Leave Link  301 at Wed Nov 29 12:05:22 2023, MaxMem=   134217728 cpu:               0.0 elap:               0.0
 (Enter /home/emanuele/chem_software/gaussian//gdv/l402.exe)
 AMBER calculation of energy and first derivatives.
 NRF= 0 NRA=   0 NVA=  10 HaveQM=F NVQ=       0
 Convergence limit is  0.750E-04 MaxStp= 10000 StMxLn= 3.00D-04 StpMin= 1.00D-06.
 Convergence criteria             0.00011250 0.00007500 0.00045000 0.00030000
  Step  NS  ND Rises OKQ   Scale  Max. Force  RMS Force Max. Disp.  RMS Disp.     Energy   Flag
     1   0   0   F    T  1.00D+00 0.04540507 0.01914300 0.04540507 0.01914300    0.0789188 ----
     2   0   0   F    F  5.91D-01 0.04540507 0.01914300 0.02682780 0.01131073    0.0714651 ----
     3   0   0   F    T  2.37D+00 0.02384469 0.01111281 0.08336812 0.03045373    0.0702960 ----
     4   0   0   F    F  4.78D-01 0.02384469 0.01111281 0.03984592 0.01455541    0.0644909 ----
     5   0   0   F    T  2.28D+00 0.03017421 0.01197612 0.12171223 0.04500914    0.0638152 ----
     6   0   0   F    F -4.43D-01 0.03017421 0.01197612 0.05397747 0.01996085    0.0627982 ----
     7   0   0   F    T  2.33D+00 0.02491673 0.00739771 0.05443381 0.02504829    0.0611033 ----
     8   0   0   T    F  4.68D-01 0.02491673 0.00739771 0.02546971 0.01172016    0.0613605 ----
     9   0   0   F    T  1.52D+00 0.01183766 0.00530111 0.02705592 0.01172016    0.0602104 ----
    10   0   0   F    F  1.19D+00 0.01183766 0.00530111 0.03222450 0.01395910    0.0592204 ----
    11   0   0   F    T  3.51D+00 0.01177607 0.00455687 0.05181112 0.02567926    0.0588027 ----
    12   0   0   F    F -3.29D-01 0.01177607 0.00455687 0.01706299 0.00845697    0.0582464 ----
    13   0   0   F    T  2.20D+00 0.01199188 0.00430287 0.03002542 0.01722229    0.0580726 ----
    14   0   0   F    F  1.16D-01 0.01199188 0.00430287 0.00348774 0.00200053    0.0573916 ----
    15   0   0   F    T  1.30D+00 0.01691316 0.00568099 0.03295091 0.01922282    0.0573840 ----
    16   0   0   F    F  2.19D-01 0.01691316 0.00568099 0.00721206 0.00420736    0.0566467 ----
    17   0   0   F    T  1.79D+00 0.01572454 0.00521243 0.04210269 0.02343018    0.0566224 ----
    18   0   0   F    F  3.64D-01 0.01572454 0.00521243 0.01530841 0.00851914    0.0557149 ----
    19   0   0   F    T  3.53D+00 0.00836226 0.00378223 0.07322741 0.03194932    0.0556483 ----
    20   0   0   F    F  6.95D-01 0.00836226 0.00378223 0.05089317 0.02220483    0.0545572 ----
    21   0   0   F    F -3.89D-02 0.00836226 0.00378223 0.00198171 0.00086462    0.0543337 ----
    22   0   0   F    T  1.91D+00 0.01685213 0.00645260 0.13466021 0.05328953    0.0543333 ----
    23   0   0   F    F  5.01D-02 0.01685213 0.00645260 0.00675095 0.00267158    0.0529321 ----
    24   0   0   F    T  2.89D+00 0.01741681 0.00696683 0.15598333 0.05596110    0.0529283 ----
    25   0   0   F    F  2.93D-02 0.01741681 0.00696683 0.00456547 0.00163792    0.0508295 ----
    26   0   0   F    T  3.64D+00 0.01238165 0.00649381 0.15356368 0.05759903    0.0508280 ----
    27   0   0   F    F -2.65D-01 0.01238165 0.00649381 0.04076038 0.01528850    0.0493625 ----
    28   0   0   F    F -7.47D-03 0.01238165 0.00649381 0.00030430 0.00011414    0.0491467 --++
    29   0   0   F    T  1.92D+00 0.02112936 0.00721911 0.12087338 0.04242467    0.0491466 ----
    30   0   0   F    F  3.60D-01 0.02112936 0.00721911 0.04347332 0.01525846    0.0470652 ----
    31   0   0   F    F -1.03D-02 0.02112936 0.00721911 0.00044828 0.00015734    0.0468841 --++
    32   0   0   F    T  2.80D+00 0.01556640 0.00757847 0.19261757 0.05752578    0.0468840 ----
    33   0   0   F    F -2.45D-01 0.01556640 0.00757847 0.04719620 0.01409528    0.0452284 ----
    34   0   0   F    F -7.17D-03 0.01556640 0.00757847 0.00033830 0.00010103    0.0450230 --++
    35   0   0   F    T  1.26D+00 0.02468834 0.01030870 0.15620089 0.04353154    0.0450230 ----
    36   0   0   F    F  7.84D-01 0.02468834 0.01030870 0.12251340 0.03414319    0.0422040 ----
    37   0   0   F    F -7.52D-02 0.02468834 0.01030870 0.00921338 0.00256767    0.0415984 ----
    38   0   0   F    T  3.48D+00 0.01988487 0.00823233 0.27307442 0.07510706    0.0415943 ----
    39   0   0   T    F  4.08D-01 0.01988487 0.00823233 0.11147996 0.03066172    0.0431610 ----
    40   0   0   F    T  1.81D+00 0.01363491 0.00682278 0.11006534 0.03066172    0.0401601 ----
    41   0   0   F    F  6.24D-01 0.01363491 0.00682278 0.06867551 0.01913145    0.0384387 ----
    42   0   0   F    F -1.43D-02 0.01363491 0.00682278 0.00097990 0.00027298    0.0381510 ---+
    43   0   0   F    T  2.13D+00 0.02504444 0.00762037 0.17292725 0.04952019    0.0381509 ----
    44   0   0   F    F -4.34D-01 0.02504444 0.00762037 0.07505176 0.02149214    0.0377178 ----
    45   0   0   F    T  3.49D+00 0.00948460 0.00403029 0.08709469 0.02802804    0.0371028 ----
    46   0   0   T    F  4.36D-01 0.00948460 0.00403029 0.03794611 0.01221148    0.0373480 ----
    47   0   0   F    T  3.14D+00 0.00661565 0.00244101 0.03152208 0.01221148    0.0367331 ----
    48   0   0   F    F -4.33D-01 0.00661565 0.00244101 0.01365578 0.00529017    0.0366668 ----
    49   0   0   F    T  1.37D+00 0.00503059 0.00258141 0.01718846 0.00692131    0.0365740 ----
    50   0   0   F    F  6.67D-01 0.00503059 0.00258141 0.01146941 0.00461841    0.0363831 ----
    51   0   0   F    T  2.28D+00 0.00602385 0.00241769 0.02596594 0.01153972    0.0363467 ----
    52   0   0   F    F -3.03D-01 0.00602385 0.00241769 0.00787101 0.00349801    0.0362339 ----
    53   0   0   F    T  2.32D+00 0.00399014 0.00184304 0.01566753 0.00804170    0.0362074 ----
    54   0   0   F    F -6.05D-02 0.00399014 0.00184304 0.00094771 0.00048643    0.0360971 ----
    55   0   0   F    T  1.58D+00 0.00442528 0.00205891 0.01911861 0.00755527    0.0360966 ----
    56   0   0   F    F  7.52D-01 0.00442528 0.00205891 0.01437066 0.00567898    0.0359524 ----
    57   0   0   F    T  1.46D+00 0.00589682 0.00277570 0.03815463 0.01323425    0.0359196 ----
    58   0   0   F    F  3.07D-01 0.00589682 0.00277570 0.01169833 0.00405766    0.0357177 ----
    59   0   0   F    T  3.83D+00 0.00399024 0.00181084 0.05734427 0.01729191    0.0357065 ----
    60   0   0   T    F  3.99D-01 0.00399024 0.00181084 0.02287308 0.00689728    0.0358006 ----
    61   0   0   F    T  1.73D+00 0.00345356 0.00159022 0.02515416 0.00689728    0.0356318 ----
    62   0   0   F    F  5.28D-01 0.00345356 0.00159022 0.01327469 0.00363992    0.0355431 ----
    63   0   0   F    T  1.75D+00 0.00380332 0.00190689 0.04087754 0.01053720    0.0355309 ----
    64   0   0   F    F  7.40D-02 0.00380332 0.00190689 0.00302494 0.00077975    0.0354280 ----
    65   0   0   F    T  2.07D+00 0.00480761 0.00184332 0.04536248 0.01131695    0.0354275 ----
    66   0   0   F    F  1.71D-01 0.00480761 0.00184332 0.00777194 0.00193893    0.0353104 ----
    67   0   0   F    T  2.61D+00 0.00320927 0.00166249 0.05155234 0.01325588    0.0353080 ----
    68   0   0   F    F -3.40D-01 0.00320927 0.00166249 0.01752515 0.00450632    0.0352556 ----
    69   0   0   F    T  1.61D+00 0.00416522 0.00164341 0.03301028 0.00874957    0.0352363 ----
    70   0   0   F    F  5.48D-02 0.00416522 0.00164341 0.00180926 0.00047955    0.0351665 ----
    71   0   0   F    T  3.34D+00 0.00319430 0.00118660 0.03232319 0.00922912    0.0351663 ----
    72   0   0   T    F  4.97D-01 0.00319430 0.00118660 0.01607404 0.00458956    0.0351668 ----
    73   0   0   F    T  2.13D+00 0.00283250 0.00099308 0.01371099 0.00458956    0.0351312 ----
    74   0   0   F    F  3.40D-01 0.00283250 0.00099308 0.00466666 0.00156210    0.0350919 ----
    75   0   0   F    T  3.02D+00 0.00239768 0.00090455 0.01518203 0.00615166    0.0350892 ----
    76   0   0   T    F  4.23D-01 0.00239768 0.00090455 0.00642751 0.00260438    0.0351026 ----
    77   0   0   F    T  1.83D+00 0.00224083 0.00070495 0.00541836 0.00260438    0.0350735 ----
    78   0   0   F    F -1.11D-01 0.00224083 0.00070495 0.00059938 0.00028810    0.0350615 ---+
    79   0   0   F    T  1.95D+00 0.00135166 0.00059928 0.00549364 0.00231629    0.0350613 ----
    80   0   0   F    F  7.31D-01 0.00135166 0.00059928 0.00401532 0.00169298    0.0350464 ----
    81   0   0   F    T  3.14D+00 0.00117374 0.00058504 0.00959373 0.00400927    0.0350432 ----
    82   0   0   T    F  4.96D-01 0.00117374 0.00058504 0.00476276 0.00199038    0.0350434 ----
    83   0   0   F    T  2.27D+00 0.00101010 0.00044890 0.00473217 0.00199038    0.0350352 ----
    84   0   0   F    F -9.02D-02 0.00101010 0.00044890 0.00042673 0.00017949    0.0350290 --++
    85   0   0   F    T  1.35D+00 0.00125678 0.00053129 0.00371589 0.00181089    0.0350290 ----
    86   0   0   F    F  7.10D-01 0.00125678 0.00053129 0.00263786 0.00128553    0.0350209 ----
    87   0   0   F    T  1.37D+00 0.00157493 0.00067495 0.00674656 0.00309642    0.0350192 ----
    88   0   0   F    F  1.80D+00 0.00157493 0.00067495 0.01217293 0.00558693    0.0350038 ----
    89   0   0   F    T  3.56D+00 0.00147629 0.00068201 0.01789903 0.00868335    0.0349929 ----
    90   0   0   F    F -2.54D-01 0.00147629 0.00068201 0.00455516 0.00220984    0.0349765 ----
    91   0   0   F    T  1.35D+00 0.00271433 0.00094606 0.01464537 0.00647350    0.0349744 ----
    92   0   0   F    F  1.14D+00 0.00271433 0.00094606 0.01676775 0.00741163    0.0349464 ----
    93   0   0   F    T  1.23D+00 0.00417507 0.00144854 0.02922520 0.01388514    0.0349352 ----
    94   0   0   F    F  1.19D+00 0.00417507 0.00144854 0.03484470 0.01655501    0.0348765 ----
    95   0   0   F    F -4.11D-02 0.00417507 0.00144854 0.00143324 0.00068095    0.0348534 ----
    96   0   0   F    T  2.69D+00 0.00414365 0.00144962 0.06524689 0.02975920    0.0348534 ----
    97   0   0   F    F -3.75D-01 0.00414365 0.00144962 0.02445885 0.01115571    0.0348209 ----
    98   0   0   F    T  3.14D+00 0.00265629 0.00119560 0.03872162 0.01860348    0.0347979 ----
    99   0   0   F    F  3.11D-01 0.00265629 0.00119560 0.01204119 0.00578509    0.0347157 ----
   100   0   0   F    T  1.42D+00 0.00516655 0.00206548 0.05519202 0.02438857    0.0347109 ----
   101   0   0   F    T  2.66D+00 0.00351036 0.00160496 0.04973278 0.02438857    0.0346169 ----
   102   0   0   F    F -4.17D-01 0.00351036 0.00160496 0.02073781 0.01016966    0.0345878 ----
   103   0   0   F    T  3.02D+00 0.00345581 0.00117772 0.02916150 0.01421891    0.0345567 ----
   104   0   0   F    F -9.67D-02 0.00345581 0.00117772 0.00281912 0.00137458    0.0345002 ----
   105   0   0   F    T  2.76D+00 0.00240871 0.00117013 0.02700406 0.01284433    0.0344995 ----
   106   0   0   F    F -1.98D-01 0.00240871 0.00117013 0.00535558 0.00254735    0.0344571 ----
   107   0   0   F    T  1.49D+00 0.00394892 0.00140404 0.02124956 0.01029698    0.0344544 ----
   108   0   0   F    T  2.43D+00 0.00229485 0.00103542 0.02015821 0.01029698    0.0344111 ----
   109   0   0   F    F  6.59D-01 0.00229485 0.00103542 0.01329005 0.00678866    0.0343564 ----
   110   0   0   F    T  2.41D+00 0.00224905 0.00132236 0.03433247 0.01708564    0.0343460 ----
   111   0   0   F    F  2.53D-02 0.00224905 0.00132236 0.00087027 0.00043309    0.0342810 ----
   112   0   0   F    T  1.58D+00 0.00352937 0.00167701 0.03469278 0.01751874    0.0342810 ----
   113   0   0   F    T  2.07D+00 0.00321168 0.00152231 0.03631562 0.01751874    0.0342132 ----
   114   0   0   F    F  3.68D-01 0.00321168 0.00152231 0.01334705 0.00643865    0.0341225 ----
   115   0   0   F    T  2.94D+00 0.00354149 0.00155990 0.05254276 0.02395738    0.0341156 ----
   116   0   0   F    F -3.39D-01 0.00354149 0.00155990 0.01780403 0.00811792    0.0340634 ----
   117   0   0   F    T  3.18D+00 0.00379003 0.00118558 0.03353511 0.01583946    0.0340455 ----
   118   0   0   T    F  3.47D-01 0.00379003 0.00118558 0.01162048 0.00548864    0.0341027 ----
   119   0   0   F    T  1.96D+00 0.00231265 0.00083807 0.01210885 0.00548864    0.0340223 ----
   120   0   0   F    F  6.20D-01 0.00231265 0.00083807 0.00750287 0.00340087    0.0339939 ----
   121   0   0   F    T  1.47D+00 0.00343058 0.00120746 0.01698952 0.00888950    0.0339891 ----
   122   0   0   F    F  2.13D+00 0.00343058 0.00120746 0.03614332 0.01891144    0.0339344 ----
   123   0   0   F    F -1.85D-02 0.00343058 0.00120746 0.00066838 0.00034972    0.0338866 ----
   124   0   0   F    T  4.33D+00 0.00321513 0.00117349 0.05656825 0.02745122    0.0338866 ----
   125   0   0   T    F  2.72D-01 0.00321513 0.00117349 0.01541391 0.00748000    0.0340320 ----
   126   0   0   F    T  2.42D+00 0.00247679 0.00081244 0.01528837 0.00748000    0.0338624 ----
   127   0   0   F    F -2.99D-01 0.00247679 0.00081244 0.00456563 0.00223378    0.0338486 ----
   128   0   0   F    T  1.55D+00 0.00188743 0.00083914 0.01076025 0.00524622    0.0338455 ----
   129   0   0   F    F  1.56D+00 0.00188743 0.00083914 0.01678568 0.00818395    0.0338194 ----
   130   0   0   F    T  3.16D+00 0.00206954 0.00093915 0.02668802 0.01343017    0.0338045 ----
   131   0   0   F    F -4.73D-01 0.00206954 0.00093915 0.01261038 0.00634590    0.0338002 ----
   132   0   0   F    T  3.45D+00 0.00148204 0.00062549 0.01790668 0.00708427    0.0337825 ----
   133   0   0   T    F  3.94D-01 0.00148204 0.00062549 0.00705506 0.00279113    0.0337930 ----
   134   0   0   F    T  1.48D+00 0.00123825 0.00057887 0.00573519 0.00279113    0.0337745 ----
   135   0   0   F    F  4.68D-01 0.00123825 0.00057887 0.00268452 0.00130647    0.0337647 ----
   136   0   0   F    T  2.96D+00 0.00136778 0.00047830 0.00783160 0.00409761    0.0337636 ----
   137   0   0   F    F -1.00D-01 0.00136778 0.00047830 0.00078409 0.00041025    0.0337546 ----
   138   0   0   F    T  3.66D+00 0.00084000 0.00039039 0.00881679 0.00368736    0.0337545 ----
   139   0   0   F    F -4.89D-01 0.00084000 0.00039039 0.00431267 0.00180365    0.0337542 ----
   140   0   0   F    T  2.58D+00 0.00067636 0.00031548 0.00451626 0.00188371    0.0337502 ----
   141   0   0   F    F -3.22D-01 0.00067636 0.00031548 0.00145525 0.00060698    0.0337482 ----
   142   0   0   F    T  1.25D+00 0.00097645 0.00036115 0.00316777 0.00127674    0.0337476 ----
   143   0   0   F    F  4.13D-01 0.00097645 0.00036115 0.00130939 0.00052774    0.0337445 ----
   144   0   0   F    T  5.27D+00 0.00041732 0.00019019 0.00434234 0.00180447    0.0337442 ----
   145   0   0   F    F -1.35D-01 0.00041732 0.00019019 0.00058749 0.00024413    0.0337418 ---+
   146   0   0   F    T  2.25D+00 0.00051974 0.00026063 0.00354321 0.00156034    0.0337417 ----
   147   0   0   F    F -3.06D-01 0.00051974 0.00026063 0.00108476 0.00047770    0.0337404 ----
   148   0   0   F    T  2.97D+00 0.00041310 0.00017670 0.00237622 0.00108264    0.0337401 ----
   149   0   0   T    F  4.08D-01 0.00041310 0.00017670 0.00096862 0.00044132    0.0337407 ----
   150   0   0   F    T  1.51D+00 0.00040666 0.00014713 0.00109376 0.00044132    0.0337395 ----
   151   0   0   F    F  6.77D-01 0.00040666 0.00014713 0.00074042 0.00029875    0.0337389 ---+
   152   0   0   F    T  3.51D+00 0.00022446 0.00011444 0.00227334 0.00074007    0.0337387 ----
   153   0   0   F    F -3.02D-01 0.00022446 0.00011444 0.00068571 0.00022323    0.0337383 ---+
   154   0   0   F    T  2.20D+00 0.00026681 0.00011317 0.00141549 0.00051684    0.0337382 ----
   155   0   0   F    T  2.08D+00 0.00024628 0.00011606 0.00120039 0.00051684    0.0337378 ----
   156   0   0   F    T  1.09D+00 0.00037638 0.00015014 0.00126507 0.00051684    0.0337372 ----
   157   0   0   F    F  1.11D+00 0.00037638 0.00015014 0.00140118 0.00057244    0.0337366 ----
   158   0   0   F    T  3.47D+00 0.00023483 0.00010785 0.00258621 0.00108928    0.0337364 ----
   159   0   0   F    F -3.03D-01 0.00023483 0.00010785 0.00078417 0.00033029    0.0337360 ----
   160   0   0   F    T  2.33D+00 0.00020726 0.00011142 0.00170327 0.00075900    0.0337359 ----
   161   0   0   F    F  4.61D-01 0.00020726 0.00011142 0.00078449 0.00034958    0.0337354 ----
   162   0   0   F    T  1.97D+00 0.00038451 0.00014416 0.00242798 0.00110857    0.0337353 ----
   163   0   0   F    F -3.55D-01 0.00038451 0.00014416 0.00086236 0.00039374    0.0337350 ----
   164   0   0   F    T  2.59D+00 0.00020285 0.00009781 0.00152320 0.00071483    0.0337349 ----
   165   0   0   F    F -4.36D-01 0.00020285 0.00009781 0.00066435 0.00031178    0.0337348 ----
   166   0   0   F    T  2.37D+00 0.00015398 0.00007295 0.00074517 0.00040306    0.0337347 -+--
   167   0   0   F    T  2.86D+00 0.00014907 0.00006758 0.00089746 0.00040306    0.0337345 -+--
   168   0   0   F    T  2.35D+00 0.00013317 0.00006690 0.00093956 0.00040306    0.0337342 -+--
   169   0   0   F    T  1.00D+00 0.00039365 0.00011816 0.00146337 0.00064517    0.0337341 ----
   170   0   0   T    F  4.29D-01 0.00039365 0.00011816 0.00062812 0.00027692    0.0337342 ---+
   171   0   0   F    T  1.32D+00 0.00047373 0.00014030 0.00054620 0.00027692    0.0337341 ---+
   172   0   0   F    T  1.00D+00 0.00048041 0.00017695 0.00084046 0.00047396    0.0337340 ----
   173   0   0   T    F  5.00D-01 0.00048041 0.00017695 0.00042023 0.00023698    0.0337349 --++
   174   0   0   T    F  5.00D-01 0.00048041 0.00017695 0.00021011 0.00011849    0.0337343 --++
   175   0   0   T    F  5.00D-01 0.00048041 0.00017695 0.00010506 0.00005924    0.0337341 --++
   176   0   0   T    F  5.00D-01 0.00048041 0.00017695 0.00005253 0.00002962    0.0337341 --++
   177   0   0   T    F  5.00D-01 0.00048041 0.00017695 0.00002626 0.00001481    0.0337340 --++
   178   0   0   T    F  5.00D-01 0.00048041 0.00017695 0.00001313 0.00000741    0.0337340 --++
   179   0   0   T    F  5.00D-01 0.00048041 0.00017695 0.00000657 0.00000370    0.0337340 --++
   180   0   0   T    F  5.00D-01 0.00048041 0.00017695 0.00000328 0.00000185    0.0337340 --++
   181   0   0   T    F  5.00D-01 0.00048041 0.00017695 0.00000164 0.00000093    0.0337340 --++
   182   0   0   T    F  5.00D-01 0.00048041 0.00017695 0.00000082 0.00000046    0.0337340 --++
   183   0   0   T    T  1.00D+00 0.00048118 0.00017715 0.00046264 0.00017605    0.0337340 ---+
   184   0   0   F    T  1.10D+00 0.00050768 0.00015733 0.00036258 0.00017605    0.0337339 --++
   185   0   0   T    F  5.00D-01 0.00050768 0.00015733 0.00018129 0.00008803    0.0337348 --++
   186   0   0   T    F  5.00D-01 0.00050768 0.00015733 0.00009064 0.00004401    0.0337343 --++
   187   0   0   T    F  5.00D-01 0.00050768 0.00015733 0.00004532 0.00002201    0.0337341 --++
   188   0   0   T    F  5.00D-01 0.00050768 0.00015733 0.00002266 0.00001100    0.0337340 --++
   189   0   0   T    F  5.00D-01 0.00050768 0.00015733 0.00001133 0.00000550    0.0337339 --++
   190   0   0   T    F  5.00D-01 0.00050768 0.00015733 0.00000567 0.00000275    0.0337339 --++
   191   0   0   T    F  5.00D-01 0.00050768 0.00015733 0.00000283 0.00000138    0.0337339 --++
   192   0   0   T    F  5.00D-01 0.00050768 0.00015733 0.00000142 0.00000069    0.0337339 --++
   193   0   0   T    F  5.00D-01 0.00050768 0.00015733 0.00000071 0.00000034    0.0337339 --++
   194   0   0   T    T  1.00D+00 0.00050914 0.00015779 0.00038447 0.00013483    0.0337339 --++
   195   0   0   F    T  3.16D+00 0.00009685 0.00004571 0.00030506 0.00013483    0.0337336 ====
 ****************************
 MOLECULAR MECHANICS FUNCTION
 ****************************
 Atomic parameters:
 Center  VDW
      1 1.9080 0.0860000
      2 1.7210 0.2104000
      3 1.9080 0.1094000
      4 1.4870 0.0157000
      5 1.4870 0.0157000
      6 1.8750 0.1700000
      7 0.6000 0.0157000
      8 0.6000 0.0157000
      9 1.6612 0.2100000
     10 0.0000 0.0000000
 Molecular mechanics terms:
 NBDir 3 1      0      0
 HrmStr1  1- 2  431.53 1.3510
 HrmStr1  1- 3  294.15 1.5090
 HrmStr1  1- 9  946.08 1.2030
 HrmStr1  2-10  566.76 0.9680
 HrmStr1  3- 4  358.05 1.0960
 HrmStr1  3- 5  358.05 1.0960
 HrmStr1  3- 6  380.82 1.4520
 HrmStr1  6- 7  506.01 1.0110
 HrmStr1  6- 8  506.01 1.0110
 HrmBnd1  1- 2-10  56.55 107.23
 HrmBnd1  1- 3- 4  46.41 106.89
 HrmBnd1  1- 3- 5  46.41 106.89
 HrmBnd1  1- 3- 6  59.93 110.61
 HrmBnd1  2- 1- 3  67.92 111.72
 HrmBnd1  2- 1- 9  91.40 123.02
 HrmBnd1  3- 1- 9  62.83 125.24
 HrmBnd1  3- 6- 7  52.60 110.71
 HrmBnd1  3- 6- 8  52.60 110.71
 HrmBnd1  4- 3- 5  44.68 106.22
 HrmBnd1  4- 3- 6  52.45 112.94
 HrmBnd1  5- 3- 6  52.45 112.94
 HrmBnd1  7- 6- 8  47.09 108.63
 AmbTrs  3- 1- 2-10   0 180   0   0  0.0000 14.5000  0.0000  0.0000  2.0
 AmbTrs  9- 1- 2-10   0   0   0   0  0.0000  0.0000  0.0000  0.0000  2.0
 AmbTrs  2- 1- 3- 4   0   0   0   0  0.0000 14.5000  0.0000  0.0000  6.0
 AmbTrs  2- 1- 3- 5   0   0   0   0  0.0000 14.5000  0.0000  0.0000  6.0
 AmbTrs  2- 1- 3- 6   0   0   0   0  0.0000 14.5000  0.0000  0.0000  6.0
 AmbTrs  9- 1- 3- 4   0   0   0   0  0.0000 14.5000  0.0000  0.0000  6.0
 AmbTrs  9- 1- 3- 5   0   0   0   0  0.0000 14.5000  0.0000  0.0000  6.0
 AmbTrs  9- 1- 3- 6   0   0   0   0  0.0000 14.5000  0.0000  0.0000  6.0
 AmbTrs  1- 3- 6- 7   0 180   0   0  0.0000 25.6300  0.0000  0.0000  6.0
 AmbTrs  1- 3- 6- 8   0 180   0   0  0.0000 25.6300  0.0000  0.0000  6.0
 AmbTrs  4- 3- 6- 7   0   0   0   0  0.0000 16.9300  0.0000  0.0000  6.0
 AmbTrs  4- 3- 6- 8   0   0   0   0  0.0000 16.9300  0.0000  0.0000  6.0
 AmbTrs  5- 3- 6- 7   0   0   0   0  0.0000 16.9300  0.0000  0.0000  6.0
 AmbTrs  5- 3- 6- 8   0   0   0   0  0.0000 16.9300  0.0000  0.0000  6.0
 NBPair  2- 1 3 1      0      0 -1.000 -1.000
 NBPair  3- 2 3 1      0      0 -1.000 -1.000
 NBPair 10- 3 3 1      0      0 -0.500 -0.167
 NBPair  9- 2 3 1      0      0 -1.000 -1.000
 NBPair 10- 9 3 1      0      0 -0.500 -0.167
 NBPair  3- 1 3 1      0      0 -1.000 -1.000
 NBPair  4- 2 3 1      0      0 -0.500 -0.167
 NBPair  5- 2 3 1      0      0 -0.500 -0.167
 NBPair  6- 2 3 1      0      0 -0.500 -0.167
 NBPair  9- 3 3 1      0      0 -1.000 -1.000
 NBPair  9- 4 3 1      0      0 -0.500 -0.167
 NBPair  9- 5 3 1      0      0 -0.500 -0.167
 NBPair  9- 6 3 1      0      0 -0.500 -0.167
 NBPair  9- 1 3 1      0      0 -1.000 -1.000
 NBPair 10- 1 3 1      0      0 -1.000 -1.000
 NBPair 10- 2 3 1      0      0 -1.000 -1.000
 NBPair  4- 1 3 1      0      0 -1.000 -1.000
 NBPair  5- 1 3 1      0      0 -1.000 -1.000
 NBPair  6- 1 3 1      0      0 -1.000 -1.000
 NBPair  4- 3 3 1      0      0 -1.000 -1.000
 NBPair  5- 4 3 1      0      0 -1.000 -1.000
 NBPair  6- 4 3 1      0      0 -1.000 -1.000
 NBPair  5- 3 3 1      0      0 -1.000 -1.000
 NBPair  6- 5 3 1      0      0 -1.000 -1.000
 NBPair  6- 3 3 1      0      0 -1.000 -1.000
 NBPair  7- 1 3 1      0      0 -0.500 -0.167
 NBPair  8- 1 3 1      0      0 -0.500 -0.167
 NBPair  7- 4 3 1      0      0 -0.500 -0.167
 NBPair  8- 4 3 1      0      0 -0.500 -0.167
 NBPair  7- 5 3 1      0      0 -0.500 -0.167
 NBPair  8- 5 3 1      0      0 -0.500 -0.167
 NBPair  7- 3 3 1      0      0 -1.000 -1.000
 NBPair  8- 3 3 1      0      0 -1.000 -1.000
 NBPair  7- 6 3 1      0      0 -1.000 -1.000
 NBPair  8- 7 3 1      0      0 -1.000 -1.000
 NBPair  8- 6 3 1      0      0 -1.000 -1.000
 Energy per function type:
 Direct Coulomb + vdW (small)                           0.001962873
 Direct Coulomb (large)                                -0.132400203
 Direct vdW (large)                                   270.305440280
 Non-direct Coulomb + vdW (small)                      -0.011329020
 Non-direct Coulomb (large)                             0.138452183
 Non-direct vdW (large)                              -270.305440280
 Harmonic stretch I                                     0.000073617
 Harmonic bend I                                        0.008163328
 Amber torsion                                          0.028810861
 Energy per function class:
        Coulomb              -0.004183576
    Vanderwaals               0.000869410
     Stretching               0.000073617
        Bending               0.008163328
        Torsion               0.028810861
 Energy=    3.373363938E-02 NIter=   0.
 Dipole moment=       0.273348      -0.423084      -0.188199
 Leave Link  402 at Wed Nov 29 12:05:23 2023, MaxMem=   134217728 cpu:               0.3 elap:               0.3
 (Enter /home/emanuele/chem_software/gaussian//gdv/l716.exe)
 Dipole        = 2.73347646D-01-4.23084000D-01-1.88199339D-01
 -------------------------------------------------------------------
 Center     Atomic                   Forces (Hartrees/Bohr)
 Number     Number              X              Y              Z
 -------------------------------------------------------------------
      1        6          -0.000026476    0.000064436    0.000055965
      2        8          -0.000050594   -0.000087965   -0.000005703
      3        6           0.000004739   -0.000022419    0.000034081
      4        1           0.000002194   -0.000025240    0.000021769
      5        1          -0.000023960    0.000057795    0.000023388
      6        7          -0.000002864    0.000073884    0.000018818
      7        1           0.000021151    0.000035978    0.000004825
      8        1          -0.000007134   -0.000048852   -0.000047395
      9        8           0.000050700   -0.000096848   -0.000096650
     10        1           0.000032246    0.000049229   -0.000009098
 -------------------------------------------------------------------
 Cartesian Forces:  Max     0.000096848 RMS     0.000045711
 Z-matrix is all fixed cartesians, so copy forces.
 Leave Link  716 at Wed Nov 29 12:05:23 2023, MaxMem=   134217728 cpu:               0.0 elap:               0.0
 (Enter /home/emanuele/chem_software/gaussian//gdv/l103.exe)

 GradGradGradGradGradGradGradGradGradGradGradGradGradGradGradGradGradGrad
 Berny optimization.
 Search for a local minimum.
 Step number   1 out of a maximum of    2
 All quantities printed in internal units (Hartrees-Bohrs-Radians)
 RMS Force = .45711D-04 SwitMx=.10000D-02 MixMth= 2
 Mixed Optimization -- En-DIIS/RFO-DIIS
 Second derivative matrix not updated -- unit matrix used.
 ITU=  0
 RFO step:  Lambda=-6.26858039D-08 EMin= 1.00000000D+00
 Linear search not attempted -- first point.
 Variable       Old X    -DE/DX   Delta X   Delta X   Delta X     New X
                                 (Linear)    (Quad)   (Total)
    X1       -1.11588  -0.00003   0.00000  -0.00003  -0.00003  -1.11591
    Y1       -0.00720   0.00006   0.00000   0.00006   0.00006  -0.00714
    Z1        0.63598   0.00006   0.00000   0.00006   0.00006   0.63603
    X2       -2.39423  -0.00005   0.00000  -0.00005  -0.00005  -2.39428
    Y2       -0.50334  -0.00009   0.00000  -0.00009  -0.00009  -0.50342
    Z2       -1.51233  -0.00001   0.00000  -0.00001  -0.00001  -1.51234
    X3        1.40071   0.00000   0.00000   0.00000   0.00000   1.40071
    Y3       -1.37731  -0.00002   0.00000  -0.00002  -0.00002  -1.37733
    Z3        0.77783   0.00003   0.00000   0.00003   0.00003   0.77787
    X4        1.68016   0.00000   0.00000   0.00000   0.00000   1.68016
    Y4       -1.61302  -0.00003   0.00000  -0.00003  -0.00003  -1.61304
    Z4        2.81751   0.00002   0.00000   0.00002   0.00002   2.81753
    X5        0.99487  -0.00002   0.00000  -0.00002  -0.00002   0.99484
    Y5       -3.26960   0.00006   0.00000   0.00006   0.00006  -3.26954
    Z5        0.03500   0.00002   0.00000   0.00002   0.00002   0.03503
    X6        3.36880  -0.00000   0.00000  -0.00000  -0.00000   3.36880
    Y6        0.05254   0.00007   0.00000   0.00007   0.00007   0.05262
    Z6       -0.51897   0.00002   0.00000   0.00002   0.00002  -0.51895
    X7        2.97425   0.00002   0.00000   0.00002   0.00002   2.97427
    Y7        1.77604   0.00004   0.00000   0.00004   0.00004   1.77607
    Z7       -1.24678   0.00000   0.00000   0.00000   0.00000  -1.24678
    X8        5.18696  -0.00001   0.00000  -0.00001  -0.00001   5.18695
    Y8       -0.53295  -0.00005   0.00000  -0.00005  -0.00005  -0.53300
    Z8       -0.45357  -0.00005   0.00000  -0.00005  -0.00005  -0.45362
    X9       -1.95167   0.00005   0.00000   0.00005   0.00005  -1.95162
    Y9        1.37658  -0.00010   0.00000  -0.00010  -0.00010   1.37648
    Z9        2.23212  -0.00010   0.00000  -0.00010  -0.00010   2.23202
   X10       -3.94182   0.00003   0.00000   0.00003   0.00003  -3.94179
   Y10        0.46321   0.00005   0.00000   0.00005   0.00005   0.46326
   Z10       -1.39682  -0.00001   0.00000  -0.00001  -0.00001  -1.39683
         Item               Value     Threshold  Converged?
 Maximum Force            0.000097     0.000450     YES
 RMS     Force            0.000046     0.000300     YES
 Maximum Displacement     0.000097     0.001800     YES
 RMS     Displacement     0.000046     0.001200     YES
 Predicted change in Energy=-3.134290D-08
 Optimization completed.
    -- Stationary point found.
 Largest change from initial coordinates is atom    7       0.612 Angstoms.
 GradGradGradGradGradGradGradGradGradGradGradGradGradGradGradGradGradGrad

 Leave Link  103 at Wed Nov 29 12:05:23 2023, MaxMem=   134217728 cpu:               0.0 elap:               0.0
 (Enter /home/emanuele/chem_software/gaussian//gdv/l202.exe)
                          Input orientation:                          
 ---------------------------------------------------------------------
 Center     Atomic      Atomic             Coordinates (Angstroms)
 Number     Number       Type             X           Y           Z
 ---------------------------------------------------------------------
      1          6    20001002       -0.590500   -0.003811    0.336544
      2          8    20001022       -1.266974   -0.266354   -0.800292
      3          6    20001001        0.741223   -0.728841    0.411611
      4          1    20001034        0.889102   -0.853573    1.490962
      5          1    20001034        0.526461   -1.730196    0.018523
      6          7    20001020        1.782693    0.027804   -0.274625
      7          1    20001029        1.573904    0.939837   -0.659770
      8          1    20001029        2.744819   -0.282026   -0.240018
      9          8    20001025       -1.032779    0.728453    1.181185
     10          1    20001031       -2.085923    0.245118   -0.739167
 ---------------------------------------------------------------------
                    Distance matrix (angstroms):
                    1          2          3          4          5
     1  C    0.000000
     2  O    1.348681   0.000000
     3  C    1.518154   2.390703   0.000000
     4  H    2.060097   3.200521   1.096551   0.000000
     5  H    2.080660   2.455544   1.096974   1.751586   0.000000
     6  N    2.450831   3.108589   1.458798   2.166248   2.180509
     7  H    2.562764   3.089537   2.150745   2.882867   2.947252
     8  H    3.396200   4.050757   2.153755   2.601278   2.661795
     9  O    1.202181   2.229516   2.421370   2.508464   3.134959
    10  H    1.858873   0.967481   3.204005   3.877031   3.361624
                    6          7          8          9         10
     6  N    0.000000
     7  H    1.011797   0.000000
     8  H    1.011374   1.743612   0.000000
     9  O    3.246102   3.198218   4.160665   0.000000
    10  H    3.902463   3.726027   4.884987   2.242873   0.000000
 Symmetry turned off by external request.
 Stoichiometry    C2H5NO2
 Framework group  C1[X(C2H5NO2)]
 Deg. of freedom    24
 Full point group                 C1      NOp   1
 Rotational constants (GHZ):           8.9748126           3.8896621           3.1881142
 Leave Link  202 at Wed Nov 29 12:05:23 2023, MaxMem=   134217728 cpu:               0.0 elap:               0.0
 (Enter /home/emanuele/chem_software/gaussian//gdv/l9999.exe)
 Unable to Open any file for archive entry.
 1\1\GINC-EMANUELE-XPS-13-9343\FOpt\AMBER\ZDO\C2H5N1O2\EMANUELE\29-Nov-
 2023\0\\#p Amber=(SoftFirst,Print) geom=nocrowd nosymm opt=(maxcycle=3
 00)\\Title\\0,1\C,-0.5904996776,-0.0038105713,0.3365435483\O,-1.266974
 1886,-0.2663544732,-0.8002917404\C,0.7412233278,-0.7288412149,0.411610
 9821\H,0.8891015614,-0.8535728633,1.4909620705\H,0.5264611577,-1.73019
 58392,0.0185225014\N,1.7826932655,0.0278041113,-0.274625482\H,1.573904
 3056,0.939837497,-0.6597699861\H,2.7448187673,-0.2820255453,-0.2400184
 663\O,-1.0327790407,0.7284525473,1.1811853016\H,-2.0859234784,0.245118
 3515,-0.7391667291\\Version=ES64L-GDVRevJ.14\HF=0.0337336\RMSD=0.000e+
 00\RMSF=4.571e-05\Dipole=0.2733476,-0.423084,-0.1881993\PG=C01 [X(C2H5
 N1O2)]\\@
 The archive entry for this job was punched.


 KNOWLEDGE IS CHIMERA - FOR BEYOND IT LIES OTHER KNOWLEDGE,
 AND THE INCOMPLETENESS OF WHAT IS KNOWN RENDERS THE KNOWING FALSE.
     -- THE THOMAS COVENANT CHRONICLES
 Job cpu time:       0 days  0 hours  0 minutes  0.9 seconds.
 Elapsed time:       0 days  0 hours  0 minutes  0.8 seconds.
 File lengths (MBytes):  RWF=      6 Int=      0 D2E=      0 Chk=      1 Scr=      1
 Normal termination of Gaussian DV at Wed Nov 29 12:05:23 2023.
