 Entering Gaussian System, Link 0=/home/emanuele/chem_software/gaussian//g09/g09
 Input=1_mm_100.gjf
 Output=1_mm_100.log
 Initial command:
 /home/emanuele/chem_software/gaussian//gdv/l1.exe "/home/emanuele/chem_software/gaussian/scratch/Gau-13849.inp" -scrdir="/home/emanuele/chem_software/gaussian/scratch/"
 Entering Link 1 = /home/emanuele/chem_software/gaussian//gdv/l1.exe PID=     13851.
  
 Copyright (c) 1988-2020, Gaussian, Inc.  All Rights Reserved.
  
 This is the private, development version of
 the Gaussian(R) DV system of programs. It is based on
 the Gaussian(R) 16 system (copyright 2016, Gaussian, Inc.),
 the Gaussian(R) 09 system (copyright 2009, Gaussian, Inc.),
 the Gaussian(R) 03 system (copyright 2003, Gaussian, Inc.),
 the Gaussian(R) 98 system (copyright 1998, Gaussian, Inc.),
 the Gaussian(R) 94 system (copyright 1995, Gaussian, Inc.),
 the Gaussian 92(TM) system (copyright 1992, Gaussian, Inc.),
 the Gaussian 90(TM) system (copyright 1990, Gaussian, Inc.),
 the Gaussian 88(TM) system (copyright 1988, Gaussian, Inc.),
 the Gaussian 86(TM) system (copyright 1986, Carnegie Mellon
 University), and the Gaussian 82(TM) system (copyright 1983,
 Carnegie Mellon University). Gaussian is a federally registered
 trademark of Gaussian, Inc.
  
 This software contains proprietary and confidential information,
 including trade secrets, belonging to Gaussian, Inc.
  
 This software is provided under written license and may be
 used, copied, transmitted, or stored only in accord with that
 written license.
  
 The following legend is applicable only to US Government
 contracts under FAR:
  
                    RESTRICTED RIGHTS LEGEND
  
 Use, reproduction and disclosure by the US Government is
 subject to restrictions as set forth in subparagraphs (a)
 and (c) of the Commercial Computer Software - Restricted
 Rights clause in FAR 52.227-19.
  
 Gaussian, Inc.
 340 Quinnipiac St., Bldg. 40, Wallingford CT 06492
  
  
 ---------------------------------------------------------------
 Warning -- This program may not be used in any manner that
 competes with the business of Gaussian, Inc. or will provide
 assistance to any competitor of Gaussian, Inc.  The licensee
 of this program is prohibited from giving any competitor of
 Gaussian, Inc. access to this program.  By using this program,
 the user acknowledges that Gaussian, Inc. is engaged in the
 business of creating and licensing software in the field of
 computational chemistry and represents and warrants to the
 licensee that it is not a competitor of Gaussian, Inc. and that
 it will not use this program in any manner prohibited above.
 ---------------------------------------------------------------
  

 Cite this work as:
 Gaussian Development Version, Revision J.14,
 M. J. Frisch, G. W. Trucks, H. B. Schlegel, G. E. Scuseria, 
 M. A. Robb, J. R. Cheeseman, G. Scalmani, V. Barone, 
 G. A. Petersson, H. Nakatsuji, X. Li, A. V. Marenich, M. Caricato, 
 J. Bloino, B. G. Janesko, J. Zheng, R. Gomperts, B. Mennucci, 
 H. P. Hratchian, J. V. Ortiz, A. F. Izmaylov, J. L. Sonnenberg, 
 D. Williams-Young, F. Ding, F. Lipparini, F. Egidi, J. Goings, 
 B. Peng, A. Petrone, T. Henderson, D. Ranasinghe, V. G. Zakrzewski, 
 J. Gao, N. Rega, G. Zheng, W. Liang, M. Hada, M. Ehara, K. Toyota, 
 R. Fukuda, J. Hasegawa, M. Ishida, T. Nakajima, Y. Honda, O. Kitao, 
 H. Nakai, T. Vreven, K. Throssell, J. A. Montgomery, Jr., 
 J. E. Peralta, F. Ogliaro, M. J. Bearpark, J. J. Heyd, 
 E. N. Brothers, K. N. Kudin, V. N. Staroverov, T. A. Keith, 
 R. Kobayashi, J. Normand, K. Raghavachari, A. P. Rendell, 
 J. C. Burant, S. S. Iyengar, J. Tomasi, M. Cossi, J. M. Millam, 
 M. Klene, C. Adamo, R. Cammi, J. W. Ochterski, R. L. Martin, 
 K. Morokuma, O. Farkas, J. B. Foresman, and D. J. Fox, 
 Gaussian, Inc., Wallingford CT, 2020.
 
 ******************************************
 Gaussian DV:  ES64L-GDVRevJ.14 29-Dec-2020
                29-Nov-2023 
 ******************************************
 %mem=1GB
 %nprocshared=1
 Will use up to    1 processors via shared memory.
 %chk=1_mm_100.chk
 -----------------------------------------------------------------
 #p Amber=(SoftFirst,Print) geom=nocrowd nosymm opt=(maxcycle=300)
 -----------------------------------------------------------------
 1/6=300,10=10,18=4000020,19=15,37=210000000,38=1,56=2,64=203/1,3;
 2/9=110,12=1,15=1,40=1/2;
 3/5=30,11=9,25=1,30=1,41=10030000,43=2,71=1/1;
 4/20=11,22=1001,24=3,119=11/2;
 7/30=1,44=-1/16;
 1/6=300,10=10,18=4000020,19=15,64=203/3(2);
 2/9=110,12=1,15=1/2;
 99//99;
 2/9=110,12=1,15=1/2;
 3/5=30,11=9,25=1,30=1,41=10030000,43=2,71=1/1;
 4/16=2,20=11,22=1001,24=3,119=11/2;
 7/30=1,44=-1/16;
 1/6=300,10=10,18=4000020,19=15,64=203/3(-4);
 2/9=110,12=1,15=1/2;
 99/9=10/99;
 Leave Link    1 at Wed Nov 29 12:05:31 2023, MaxMem=   134217728 cpu:               0.0 elap:               0.0
 (Enter /home/emanuele/chem_software/gaussian//gdv/l101.exe)
 -----
 Title
 -----
 Symbolic Z-matrix:
 Charge =  0 Multiplicity = 1
 C-C-+0.299289        -0.6755   -0.37541   0.29395 
 O-OH--0.289770       -0.86492   0.17902  -0.95414 
 C-CT--0.035454        0.74812  -0.17688   0.75535 
 H-HC-+0.090426        0.84052   0.85243   1.17523 
 H-HC-+0.095387        0.94679  -0.88768   1.60158 
 N-N3--0.336253        1.73215  -0.49226  -0.31762 
 H-H-+0.142619         1.36375  -0.23134  -1.23255 
 H-H-+0.128282         2.58154   0.04777  -0.17384 
 O-O2--0.308037       -1.6003   -0.8873    0.87261 
 H-HO-+0.213510       -1.79015   0.04807  -1.29563 
 
 ITRead=  3  3  3  3  3  3  3  3  3  3
 MicOpt=  0  0  0  0  0  0  0  0  0  0
 NAtoms=     10 NQM=        0 NQMF=       0 NMMI=      0 NMMIF=      0
                NMic=      10 NMicF=      0.
                    Isotopes and Nuclear Properties:
 (Nuclear quadrupole moments (NQMom) in fm**2, nuclear magnetic moments (NMagM)
  in nuclear magnetons)

  Atom         1           2           3           4           5           6           7           8           9          10
 IAtWgt=          12          16          12           1           1          14           1           1          16           1
 AtmWgt=  12.0000000  15.9949146  12.0000000   1.0078250   1.0078250  14.0030740   1.0078250   1.0078250  15.9949146   1.0078250
 NucSpn=           0           0           0           1           1           2           1           1           0           1
 AtZEff=  -0.0000000  -0.0000000  -0.0000000  -0.0000000  -0.0000000  -0.0000000  -0.0000000  -0.0000000  -0.0000000  -0.0000000
 NQMom=    0.0000000   0.0000000   0.0000000   0.0000000   0.0000000   2.0440000   0.0000000   0.0000000   0.0000000   0.0000000
 NMagM=    0.0000000   0.0000000   0.0000000   2.7928460   2.7928460   0.4037610   2.7928460   2.7928460   0.0000000   2.7928460
 AtZNuc=   6.0000000   8.0000000   6.0000000   1.0000000   1.0000000   7.0000000   1.0000000   1.0000000   8.0000000   1.0000000
 Generating MM parameters.
 I=    1 IAn=  6 Valence= 5.
          JB=  1 J=    2 IAn=  8 IBT=12 Dist= 1.38D+00
          JB=  2 J=    3 IAn=  6 IBT= 1 Dist= 1.51D+00
          JB=  3 J=    9 IAn=  8 IBT= 2 Dist= 1.21D+00
 I=    2 IAn=  8 Valence= 3.
          JB=  1 J=    1 IAn=  6 IBT=12 Dist= 1.38D+00
          JB=  2 J=   10 IAn=  1 IBT= 1 Dist= 9.95D-01
 Read MM parameter file:
 Include all MM classes

 MM sanity checks:
 All charges sum to:               -0.00000100
 Charges of atoms sum to:          -0.00000100
 WARNING -- The following centers have non-zero partial charges, but zero Vanderwaals
 parameters.  These centers can collapse onto other centers with non-zero charge.
   Center  Layer   Charge
     10 H    R    0.213510
 MMInit generated parameter data with length LenPar=        2069.
 MM Charge=             -0.0000 electrons
 MM Dipole moment (Debye):
    X=              1.1634    Y=              1.2329    Z=             -0.1921  Tot=              1.7060
 MM Quadrupole moment (Debye-Ang):
   XX=              0.2689   YY=             -0.6865   ZZ=              2.0263
   XY=             -0.4234   XZ=              3.4988   YZ=              0.9050
 MM Traceless Quadrupole moment (Debye-Ang):
   XX=             -0.2673   YY=             -1.2228   ZZ=              1.4901
   XY=             -0.4234   XZ=              3.4988   YZ=              0.9050
 MM Octapole moment (Debye-Ang**2):
  XXX=              5.1579  YYY=              1.0834  ZZZ=             -0.6884  XYY=              1.7404
  XXY=              5.2881  XXZ=             -6.1767  XZZ=              2.4625  YZZ=              0.1346
  YYZ=              0.1065  XYZ=             -2.2356
 MM Hexadecapole moment (Debye-Ang**3):
 XXXX=             16.0768 YYYY=             -0.4692 ZZZZ=              6.2418 XXXY=             -1.2120
 XXXZ=             11.4779 YYYX=             -1.3503 YYYZ=              0.6399 ZZZX=              5.1474
 ZZZY=              0.1821 XXYY=             -3.4696 XXZZ=              4.7340 YYZZ=              0.4690
 XXYZ=              2.1423 YYXZ=              2.5644 ZZXY=             -2.2523
 Leave Link  101 at Wed Nov 29 12:05:31 2023, MaxMem=   134217728 cpu:               0.2 elap:               0.3
 (Enter /home/emanuele/chem_software/gaussian//gdv/l103.exe)

 GradGradGradGradGradGradGradGradGradGradGradGradGradGradGradGradGradGrad
 Berny optimization.
 Initialization pass.
 No Z-matrix variables, so optimization will use Cartesian coordinates.
 Trust Radius=1.00D-01 FncErr=1.00D-07 GrdErr=1.00D-07 EigMax=2.50D+02 EigMin=1.00D-04
 Number of steps in this run=      2 maximum allowed number of steps=      2.
 GradGradGradGradGradGradGradGradGradGradGradGradGradGradGradGradGradGrad

 Leave Link  103 at Wed Nov 29 12:05:31 2023, MaxMem=   134217728 cpu:               0.0 elap:               0.0
 (Enter /home/emanuele/chem_software/gaussian//gdv/l202.exe)
                          Input orientation:                          
 ---------------------------------------------------------------------
 Center     Atomic      Atomic             Coordinates (Angstroms)
 Number     Number       Type             X           Y           Z
 ---------------------------------------------------------------------
      1          6    20001002       -0.675496   -0.375414    0.293953
      2          8    20001022       -0.864918    0.179024   -0.954137
      3          6    20001001        0.748122   -0.176877    0.755346
      4          1    20001034        0.840524    0.852425    1.175232
      5          1    20001034        0.946789   -0.887684    1.601576
      6          7    20001020        1.732148   -0.492259   -0.317621
      7          1    20001029        1.363754   -0.231338   -1.232546
      8          1    20001029        2.581544    0.047768   -0.173838
      9          8    20001025       -1.600295   -0.887304    0.872611
     10          1    20001031       -1.790147    0.048070   -1.295626
 ---------------------------------------------------------------------
                    Distance matrix (angstroms):
                    1          2          3          4          5
     1  C    0.000000
     2  O    1.378771   0.000000
     3  C    1.509632   2.377161   0.000000
     4  H    2.140691   2.810020   1.115484   0.000000
     5  H    2.145718   3.309353   1.122863   1.794726   0.000000
     6  N    2.486850   2.756905   1.489641   2.198131   2.111035
     7  H    2.551372   2.283175   2.081750   2.691785   2.938860
     8  H    3.317563   3.536127   2.067676   2.344912   2.588356
     9  O    1.205043   2.239385   2.456322   3.012612   2.649345
    10  H    1.987095   0.994893   3.271070   3.697642   4.093926
                    6          7          8          9         10
     6  N    0.000000
     7  H    1.020236   0.000000
     8  H    1.016748   1.637613   0.000000
     9  O    3.560602   3.694261   4.411031   0.000000
    10  H    3.695269   3.166882   4.513324   2.369012   0.000000
 Symmetry turned off by external request.
 Stoichiometry    C2H5NO2
 Framework group  C1[X(C2H5NO2)]
 Deg. of freedom    24
 Full point group                 C1      NOp   1
 Rotational constants (GHZ):           9.5483733           3.9742410           3.0248731
 Leave Link  202 at Wed Nov 29 12:05:31 2023, MaxMem=   134217728 cpu:               0.0 elap:               0.0
 (Enter /home/emanuele/chem_software/gaussian//gdv/l301.exe)
 Standard basis: Dummy (5D, 7F)
    10 basis functions,    10 primitive gaussians,    10 cartesian basis functions
     7 alpha electrons        7 beta electrons
       nuclear repulsion energy        22.5999565089 Hartrees.
 IExCor=       0 DFT=F Ex=HF Corr=None N6=None ScaHFX=  1.000000
 ScaDFX=  1.000000  1.000000  1.000000  1.000000  1.000000  0.000000
 ScaDFX=  0.000000  0.000000  0.000000  0.000000  0.000000  0.000000
 IRadAn=      5 IRanWt=     -1 IRanGd=            0 ICorTp=0 IEmpDi=  4
 NAtoms=   10 NActive=   10 NUniq=   10 SFac= 1.00D+00 NAtFMM=   60 NAOKFM=F Big=F
 Integral buffers will be    131072 words long.
 Raffenetti 1 integral format.
 Two-electron integral symmetry is turned off.
 Leave Link  301 at Wed Nov 29 12:05:31 2023, MaxMem=   134217728 cpu:               0.0 elap:               0.0
 (Enter /home/emanuele/chem_software/gaussian//gdv/l402.exe)
 AMBER calculation of energy and first derivatives.
 NRF= 0 NRA=   0 NVA=  10 HaveQM=F NVQ=       0
 Convergence limit is  0.750E-04 MaxStp= 10000 StMxLn= 3.00D-04 StpMin= 1.00D-06.
 Convergence criteria             0.00011250 0.00007500 0.00045000 0.00030000
  Step  NS  ND Rises OKQ   Scale  Max. Force  RMS Force Max. Disp.  RMS Disp.     Energy   Flag
     1   0   0   F    T  1.00D+00 0.03328750 0.01419933 0.03328750 0.01419933    0.0475819 ----
     2   0   0   F    F  4.72D-01 0.03328750 0.01419933 0.01569549 0.00669517    0.0436077 ----
     3   0   0   F    T  2.81D+00 0.01603797 0.00672797 0.06598463 0.02089449    0.0431569 ----
     4   0   0   F    F  3.28D-01 0.01603797 0.00672797 0.02165646 0.00685767    0.0408118 ----
     5   0   0   F    T  1.79D+00 0.02453601 0.00870642 0.06778933 0.02775216    0.0406631 ----
     6   0   0   F    F -4.28D-01 0.02453601 0.00870642 0.02899052 0.01186838    0.0401483 ----
     7   0   0   F    T  1.94D+00 0.01333809 0.00537177 0.04040234 0.01588378    0.0394956 ----
     8   0   0   F    F -9.34D-02 0.01333809 0.00537177 0.00377558 0.00148433    0.0387420 ----
     9   0   0   F    T  2.29D+00 0.00912864 0.00411727 0.02672214 0.01439945    0.0387339 ----
    10   0   0   F    F  2.03D-01 0.00912864 0.00411727 0.00542500 0.00292331    0.0380522 ----
    11   0   0   F    T  2.01D+00 0.00969642 0.00445271 0.03631960 0.01732276    0.0380321 ----
    12   0   0   F    F  1.88D-01 0.00969642 0.00445271 0.00681616 0.00325099    0.0373341 ----
    13   0   0   F    T  3.04D+00 0.00714380 0.00367810 0.04188156 0.02057375    0.0373160 ----
    14   0   0   T    F  3.23D-01 0.00714380 0.00367810 0.01353479 0.00664878    0.0379854 ----
    15   0   0   F    T  1.56D+00 0.00635494 0.00260046 0.01664752 0.00664878    0.0371169 ----
    16   0   0   F    F  4.53D-01 0.00635494 0.00260046 0.00754251 0.00301237    0.0369095 ----
    17   0   0   F    T  2.71D+00 0.00630499 0.00212189 0.02825228 0.00966115    0.0368872 ----
    18   0   0   F    T  3.00D+00 0.00569375 0.00183997 0.02549224 0.00966115    0.0367035 ----
    19   0   0   F    F -3.33D-01 0.00569375 0.00183997 0.00848360 0.00321515    0.0366271 ----
    20   0   0   F    T  1.89D+00 0.00430207 0.00175152 0.01408494 0.00644600    0.0366020 ----
    21   0   0   F    F  8.34D-02 0.00430207 0.00175152 0.00117500 0.00053774    0.0365087 ----
    22   0   0   F    T  1.00D+00 0.00618292 0.00244404 0.01471013 0.00713530    0.0365082 ----
    23   0   0   F    F  1.56D+00 0.00618292 0.00244404 0.02298917 0.01115113    0.0363630 ----
    24   0   0   F    T  4.49D+00 0.00533819 0.00175431 0.04102785 0.01828644    0.0362760 ----
    25   0   0   T    F  4.58D-01 0.00533819 0.00175431 0.01877353 0.00836751    0.0363136 ----
    26   0   0   F    T  3.04D+00 0.00298466 0.00135723 0.01903231 0.00836751    0.0361816 ----
    27   0   0   F    F -2.05D-01 0.00298466 0.00135723 0.00389526 0.00171254    0.0361193 ----
    28   0   0   F    T  1.04D+00 0.00585495 0.00201174 0.01534385 0.00665497    0.0361148 ----
    29   0   0   F    F  6.59D-01 0.00585495 0.00201174 0.01010852 0.00438429    0.0360269 ----
    30   0   0   F    T  3.24D+00 0.00298022 0.00138898 0.02340109 0.01103926    0.0360106 ----
    31   0   0   F    F -4.95D-01 0.00298022 0.00138898 0.01159133 0.00546811    0.0360083 ----
    32   0   0   F    T  2.16D+00 0.00282609 0.00112855 0.01015031 0.00557115    0.0359635 ----
    33   0   0   F    F  8.38D-01 0.00282609 0.00112855 0.00850379 0.00466744    0.0359032 ----
    34   0   0   F    T  2.61D+00 0.00288928 0.00134443 0.02168433 0.01023859    0.0358873 ----
    35   0   0   T    F  4.63D-01 0.00288928 0.00134443 0.01003865 0.00473990    0.0358987 ----
    36   0   0   F    T  1.34D+00 0.00297020 0.00123847 0.00834589 0.00473990    0.0358545 ----
    37   0   0   F    F  1.06D+00 0.00297020 0.00123847 0.00887570 0.00504080    0.0358078 ----
    38   0   0   F    T  2.09D+00 0.00360079 0.00139161 0.01706222 0.00978070    0.0357909 ----
    39   0   0   F    F  2.07D-01 0.00360079 0.00139161 0.00353615 0.00202706    0.0357201 ----
    40   0   0   F    T  3.70D+00 0.00258613 0.00109584 0.02341264 0.01180775    0.0357179 ----
    41   0   0   T    F  4.84D-01 0.00258613 0.00109584 0.01133129 0.00571474    0.0357222 ----
    42   0   0   F    T  1.35D+00 0.00343565 0.00122840 0.01029083 0.00571474    0.0356857 ----
    43   0   0   F    F  4.87D-01 0.00343565 0.00122840 0.00501512 0.00278501    0.0356451 ----
    44   0   0   F    T  1.21D+00 0.00369631 0.00156248 0.01814387 0.00849975    0.0356403 ----
    45   0   0   F    F  2.95D+00 0.00369631 0.00156248 0.05343799 0.02503378    0.0355637 ----
    46   0   0   F    F -1.52D-02 0.00369631 0.00156248 0.00081170 0.00038025    0.0354710 ----
    47   0   0   F    T  2.81D+00 0.00421414 0.00192935 0.07960708 0.03315328    0.0354710 ----
    48   0   0   F    F -2.26D-01 0.00421414 0.00192935 0.01803023 0.00750890    0.0353559 ----
    49   0   0   F    T  3.56D+00 0.00460930 0.00161291 0.06087784 0.02564438    0.0353435 ----
    50   0   0   T    F  3.58D-01 0.00460930 0.00161291 0.02176440 0.00916811    0.0354519 ----
    51   0   0   F    T  1.32D+00 0.00326627 0.00159023 0.02504954 0.00916811    0.0352940 ----
    52   0   0   F    F  1.62D+00 0.00326627 0.00159023 0.04052293 0.01483135    0.0352131 ----
    53   0   0   F    F -8.17D-03 0.00326627 0.00159023 0.00033121 0.00012122    0.0351631 --++
    54   0   0   F    T  1.76D+00 0.00497773 0.00218465 0.06226900 0.02387824    0.0351631 ----
    55   0   0   F    F  3.15D-01 0.00497773 0.00218465 0.01962190 0.00752439    0.0350081 ----
    56   0   0   F    F -1.69D-02 0.00497773 0.00218465 0.00033187 0.00012726    0.0349989 --++
    57   0   0   F    T  3.74D+00 0.00322317 0.00173883 0.07961348 0.03127537    0.0349989 ----
    58   0   0   F    F -1.31D-01 0.00322317 0.00173883 0.01045525 0.00410724    0.0348570 ----
    59   0   0   F    T  2.41D+00 0.00469795 0.00195458 0.07120572 0.02716813    0.0348539 ----
    60   0   0   F    F  3.47D-01 0.00469795 0.00195458 0.02473954 0.00943923    0.0346740 ----
    61   0   0   F    F -2.30D-02 0.00469795 0.00195458 0.00056987 0.00021743    0.0346606 ---+
    62   0   0   F    T  1.92D+00 0.00608780 0.00256298 0.08731874 0.03638992    0.0346606 ----
    63   0   0   F    F -3.88D-01 0.00608780 0.00256298 0.03385303 0.01410819    0.0345895 ----
    64   0   0   F    T  2.67D+00 0.00396883 0.00166454 0.05591234 0.02228174    0.0345472 ----
    65   0   0   F    F -1.55D-01 0.00396883 0.00166454 0.00865728 0.00345003    0.0344545 ----
    66   0   0   F    T  2.02D+00 0.00479224 0.00174572 0.04586832 0.01883171    0.0344511 ----
    67   0   0   F    F  7.43D-01 0.00479224 0.00174572 0.03408636 0.01399450    0.0343197 ----
    68   0   0   F    F -2.98D-02 0.00479224 0.00174572 0.00101427 0.00041642    0.0342913 ----
    69   0   0   F    T  4.85D+00 0.00367760 0.00162847 0.08492839 0.03240979    0.0342913 ----
    70   0   0   F    F -4.27D-01 0.00367760 0.00162847 0.03626271 0.01383833    0.0342400 ----
    71   0   0   F    T  4.77D+00 0.00229966 0.00115330 0.05450638 0.01857146    0.0341823 ----
    72   0   0   F    F -1.77D-02 0.00229966 0.00115330 0.00096407 0.00032848    0.0340926 ----
    73   0   0   F    T  1.61D+00 0.00484102 0.00190008 0.05181249 0.01824298    0.0340926 ----
    74   0   0   F    F -2.00D-01 0.00484102 0.00190008 0.01035498 0.00364595    0.0340248 ----
    75   0   0   F    T  1.88D+00 0.00458590 0.00159064 0.04441842 0.01459703    0.0340198 ----
    76   0   0   F    F -2.42D-01 0.00458590 0.00159064 0.01075612 0.00353474    0.0339714 ----
    77   0   0   F    T  4.29D+00 0.00271441 0.00098115 0.03734365 0.01106230    0.0339659 ----
    78   0   0   F    F -4.97D-01 0.00271441 0.00098115 0.01856427 0.00549929    0.0339647 ----
    79   0   0   F    T  1.55D+00 0.00246395 0.00111786 0.01862792 0.00556301    0.0339349 ----
    80   0   0   F    F  3.98D-01 0.00246395 0.00111786 0.00742155 0.00221636    0.0338971 ----
    81   0   0   F    T  1.10D+00 0.00422240 0.00155261 0.02726179 0.00777936    0.0338936 ----
    82   0   0   F    F  4.90D-01 0.00422240 0.00155261 0.01335698 0.00381152    0.0338412 ----
    83   0   0   F    T  9.08D+00 0.00148415 0.00069893 0.03337213 0.01159088    0.0338349 ----
    84   0   0   T    F  1.59D-01 0.00148415 0.00069893 0.00529980 0.00184074    0.0341132 ----
    85   0   0   F    T  1.21D+00 0.00247523 0.00071249 0.00560565 0.00184074    0.0338244 ----
    86   0   0   F    F  3.37D-01 0.00247523 0.00071249 0.00189077 0.00062088    0.0338128 ----
    87   0   0   F    T  1.70D+00 0.00153845 0.00065535 0.00626903 0.00246162    0.0338120 ----
    88   0   0   F    F  1.74D-01 0.00153845 0.00065535 0.00108825 0.00042731    0.0337995 ----
    89   0   0   F    T  2.86D+00 0.00118920 0.00051446 0.00731426 0.00288893    0.0337992 ----
    90   0   0   F    F -1.63D-01 0.00118920 0.00051446 0.00119491 0.00047196    0.0337901 ----
    91   0   0   F    T  1.03D+00 0.00260206 0.00076049 0.00579373 0.00241697    0.0337898 ----
    92   0   0   F    F  5.57D-01 0.00260206 0.00076049 0.00322424 0.00134506    0.0337776 ----
    93   0   0   F    T  2.10D+00 0.00153104 0.00063599 0.00942005 0.00376203    0.0337758 ----
    94   0   0   F    F -6.08D-02 0.00153104 0.00063599 0.00057269 0.00022871    0.0337639 ---+
    95   0   0   F    T  3.69D+00 0.00098607 0.00044612 0.00907809 0.00353332    0.0337638 ----
    96   0   0   T    F  4.02D-01 0.00098607 0.00044612 0.00364637 0.00141922    0.0337691 ----
    97   0   0   F    T  1.05D+00 0.00145444 0.00050867 0.00318065 0.00141922    0.0337594 ----
    98   0   0   F    F  8.28D-01 0.00145444 0.00050867 0.00263385 0.00117524    0.0337535 ----
    99   0   0   F    T  2.81D+00 0.00139820 0.00039498 0.00581772 0.00259445    0.0337520 ----
   100   0   0   F    F -4.49D-01 0.00139820 0.00039498 0.00260963 0.00116378    0.0337507 ----
   101   0   0   F    T  3.10D+00 0.00061810 0.00025725 0.00385727 0.00143067    0.0337483 ----
   102   0   0   T    F  4.19D-01 0.00061810 0.00025725 0.00161569 0.00059926    0.0337495 ----
   103   0   0   F    T  1.06D+00 0.00086235 0.00026721 0.00156043 0.00059926    0.0337470 ----
   104   0   0   F    F  1.21D+00 0.00086235 0.00026721 0.00188856 0.00072528    0.0337453 ----
   105   0   0   F    T  2.13D+00 0.00062790 0.00026609 0.00364713 0.00132454    0.0337445 ----
   106   0   0   F    F  9.61D-02 0.00062790 0.00026609 0.00035057 0.00012732    0.0337421 --++
   107   0   0   F    T  2.08D+00 0.00065303 0.00027085 0.00434061 0.00145186    0.0337421 ----
   108   0   0   F    F -3.60D-01 0.00065303 0.00027085 0.00156266 0.00052268    0.0337411 ----
   109   0   0   F    T  1.20D+00 0.00070189 0.00027516 0.00258464 0.00092917    0.0337406 ----
   110   0   0   F    F  1.04D+00 0.00070189 0.00027516 0.00269929 0.00097039    0.0337385 ----
   111   0   0   F    T  2.28D+00 0.00066900 0.00027556 0.00537364 0.00189957    0.0337378 ----
   112   0   0   F    F -1.57D-01 0.00066900 0.00027556 0.00084239 0.00029778    0.0337357 ---+
   113   0   0   F    T  2.63D+00 0.00057489 0.00022909 0.00430820 0.00160178    0.0337356 ----
   114   0   0   T    F  4.17D-01 0.00057489 0.00022909 0.00179599 0.00066775    0.0337364 ----
   115   0   0   F    T  1.42D+00 0.00046445 0.00019185 0.00158836 0.00066775    0.0337347 ----
   116   0   0   F    F  7.07D-01 0.00046445 0.00019185 0.00112271 0.00047199    0.0337336 ----
   117   0   0   F    T  1.76D+00 0.00070765 0.00021821 0.00270771 0.00113973    0.0337334 ----
   118   0   0   F    F  7.53D-01 0.00070765 0.00021821 0.00203808 0.00085787    0.0337316 ----
   119   0   0   F    T  1.99D+00 0.00067257 0.00026812 0.00493024 0.00199761    0.0337312 ----
   120   0   0   F    F -4.50D-01 0.00067257 0.00026812 0.00222074 0.00089978    0.0337308 ----
   121   0   0   F    T  1.93D+00 0.00059889 0.00019464 0.00261511 0.00109782    0.0337300 ----
   122   0   0   F    F -2.58D-01 0.00059889 0.00019464 0.00067419 0.00028302    0.0337293 ---+
   123   0   0   F    T  3.86D+00 0.00029344 0.00010889 0.00193097 0.00081480    0.0337292 ----
   124   0   0   F    F -3.06D-01 0.00029344 0.00010889 0.00059117 0.00024945    0.0337288 ---+
   125   0   0   F    T  1.19D+00 0.00042853 0.00015842 0.00143915 0.00056534    0.0337287 ----
   126   0   0   F    F  2.67D-01 0.00042853 0.00015842 0.00038461 0.00015109    0.0337282 --++
   127   0   0   F    T  1.81D+00 0.00031099 0.00014007 0.00163221 0.00071643    0.0337282 ----
   128   0   0   F    F -1.96D-01 0.00031099 0.00014007 0.00031978 0.00014036    0.0337278 --++
   129   0   0   F    T  3.67D+00 0.00022395 0.00008130 0.00138572 0.00057607    0.0337277 ----
   130   0   0   F    T  1.00D+00 0.00055374 0.00015691 0.00168320 0.00063505    0.0337275 ----
   131   0   0   F    T  4.16D+00 0.00028853 0.00012456 0.00127143 0.00063505    0.0337272 ----
   132   0   0   T    F  2.82D-01 0.00028853 0.00012456 0.00035898 0.00017930    0.0337287 --++
   133   0   0   F    T  1.54D+00 0.00026970 0.00008909 0.00047978 0.00017930    0.0337270 ---+
   134   0   0   F    T  1.09D+00 0.00024700 0.00009191 0.00034554 0.00017930    0.0337268 --++
   135   0   0   F    T  2.31D+00 0.00020172 0.00007754 0.00046827 0.00017930    0.0337267 ---+
   136   0   0   T    T  1.00D+00 0.00063280 0.00018782 0.00063280 0.00018782    0.0337269 ---+
   137   0   0   T    F  5.00D-01 0.00063280 0.00018782 0.00031640 0.00009391    0.0337281 --++
   138   0   0   T    F  5.00D-01 0.00063280 0.00018782 0.00015820 0.00004696    0.0337272 --++
   139   0   0   T    F  5.00D-01 0.00063280 0.00018782 0.00007910 0.00002348    0.0337269 --++
   140   0   0   T    F  5.00D-01 0.00063280 0.00018782 0.00003955 0.00001174    0.0337268 --++
   141   0   0   T    F  5.00D-01 0.00063280 0.00018782 0.00001977 0.00000587    0.0337268 --++
   142   0   0   T    F  5.00D-01 0.00063280 0.00018782 0.00000989 0.00000293    0.0337268 --++
   143   0   0   T    F  5.00D-01 0.00063280 0.00018782 0.00000494 0.00000147    0.0337267 --++
   144   0   0   T    F  5.00D-01 0.00063280 0.00018782 0.00000247 0.00000073    0.0337267 --++
   145   0   0   T    F  5.00D-01 0.00063280 0.00018782 0.00000124 0.00000037    0.0337267 --++
   146   0   0   T    F  5.00D-01 0.00063280 0.00018782 0.00000062 0.00000018    0.0337267 --++
   147   0   0   T    T  1.00D+00 0.00020199 0.00007779 0.00013372 0.00004971    0.0337267 --++
   148   0   0   F    T  1.00D+00 0.00021355 0.00006984 0.00021554 0.00006999    0.0337267 -+++
   149   0   0   F    T  1.00D+00 0.00022060 0.00006336 0.00016718 0.00007225    0.0337267 -+++
   150   0   0   T    F  5.00D-01 0.00022060 0.00006336 0.00008359 0.00003613    0.0337267 -+++
   151   0   0   T    F  5.00D-01 0.00022060 0.00006336 0.00004180 0.00001806    0.0337267 -+++
   152   0   0   T    F  5.00D-01 0.00022060 0.00006336 0.00002090 0.00000903    0.0337267 -+++
   153   0   0   T    F  5.00D-01 0.00022060 0.00006336 0.00001045 0.00000452    0.0337267 -+++
   154   0   0   T    F  5.00D-01 0.00022060 0.00006336 0.00000522 0.00000226    0.0337267 -+++
   155   0   0   T    F  5.00D-01 0.00022060 0.00006336 0.00000261 0.00000113    0.0337267 -+++
   156   0   0   T    F  5.00D-01 0.00022060 0.00006336 0.00000131 0.00000056    0.0337267 -+++
   157   0   0   T    F  5.00D-01 0.00022060 0.00006336 0.00000065 0.00000028    0.0337267 -+++
   158   0   0   T    T  1.00D+00 0.00022144 0.00006358 0.00020916 0.00006290    0.0337267 -+++
   159   0   0   F    T  1.15D+00 0.00017550 0.00005213 0.00012729 0.00006290    0.0337266 -+++
   160   0   0   T    F  5.00D-01 0.00017550 0.00005213 0.00006365 0.00003145    0.0337267 -+++
   161   0   0   T    F  5.00D-01 0.00017550 0.00005213 0.00003182 0.00001572    0.0337267 -+++
   162   0   0   T    F  5.00D-01 0.00017550 0.00005213 0.00001591 0.00000786    0.0337266 -+++
   163   0   0   T    F  5.00D-01 0.00017550 0.00005213 0.00000796 0.00000393    0.0337266 -+++
   164   0   0   T    F  5.00D-01 0.00017550 0.00005213 0.00000398 0.00000197    0.0337266 -+++
   165   0   0   T    F  5.00D-01 0.00017550 0.00005213 0.00000199 0.00000098    0.0337266 -+++
   166   0   0   T    F  5.00D-01 0.00017550 0.00005213 0.00000099 0.00000049    0.0337266 -+++
   167   0   0   T    T  1.00D+00 0.00017733 0.00005260 0.00015747 0.00005167    0.0337266 -+++
   168   0   0   F    T  1.19D+00 0.00013463 0.00004069 0.00014117 0.00005167    0.0337266 -+++
   169   0   0   T    T  1.00D+00 0.00029090 0.00008023 0.00029090 0.00008023    0.0337266 --++
   170   0   0   T    T  1.00D+00 0.00041881 0.00011699 0.00048658 0.00013462    0.0337267 ---+
   171   0   0   T    F  5.00D-01 0.00041881 0.00011699 0.00024329 0.00006731    0.0337273 --++
   172   0   0   T    F  5.00D-01 0.00041881 0.00011699 0.00012165 0.00003365    0.0337268 --++
   173   0   0   T    F  5.00D-01 0.00041881 0.00011699 0.00006082 0.00001683    0.0337267 --++
   174   0   0   F    T -3.90D-04 0.00025290 0.00007123 0.00025290 0.00007123    0.0337266 -+++
   175   0   0   F    T -3.68D-04 0.00023193 0.00006716 0.00023193 0.00006716    0.0337266 -+++
   176   0   0   F    T -3.47D-04 0.00022545 0.00006335 0.00022545 0.00006335    0.0337266 -+++
   177   0   0   F    T -3.27D-04 0.00020391 0.00005979 0.00020391 0.00005979    0.0337266 -+++
   178   0   0   F    T -3.09D-04 0.00020077 0.00005645 0.00020077 0.00005645    0.0337266 -+++
   179   0   0   F    T -2.92D-04 0.00017915 0.00005333 0.00017915 0.00005333    0.0337266 -+++
   180   0   0   F    T  1.00D+00 0.00017886 0.00005041 0.00062420 0.00017762    0.0337266 -+-+
   181   0   0   T    F  5.00D-01 0.00017886 0.00005041 0.00031210 0.00008881    0.0337277 -+++
   182   0   0   T    F  5.00D-01 0.00017886 0.00005041 0.00015605 0.00004441    0.0337269 -+++
   183   0   0   T    F  5.00D-01 0.00017886 0.00005041 0.00007802 0.00002220    0.0337267 -+++
   184   0   0   T    F  5.00D-01 0.00017886 0.00005041 0.00003901 0.00001110    0.0337266 -+++
   185   0   0   T    F  5.00D-01 0.00017886 0.00005041 0.00001951 0.00000555    0.0337266 -+++
   186   0   0   T    F  5.00D-01 0.00017886 0.00005041 0.00000975 0.00000278    0.0337266 -+++
   187   0   0   T    F  5.00D-01 0.00017886 0.00005041 0.00000488 0.00000139    0.0337266 -+++
   188   0   0   T    F  5.00D-01 0.00017886 0.00005041 0.00000244 0.00000069    0.0337266 -+++
   189   0   0   T    F  5.00D-01 0.00017886 0.00005041 0.00000122 0.00000035    0.0337266 -+++
   190   0   0   T    F  5.00D-01 0.00017886 0.00005041 0.00000061 0.00000017    0.0337266 -+++
   191   0   0   T    T  1.00D+00 0.00018006 0.00005072 0.00006963 0.00002640    0.0337266 -+++
   192   0   0   F    F  7.98D+00 0.00018006 0.00005072 0.00055596 0.00021078    0.0337265 -+-+
   193   0   0   F    T  3.26D+00 0.00017807 0.00005729 0.00071067 0.00023718    0.0337265 -+-+
   194   0   0   T    F  5.00D-01 0.00017807 0.00005729 0.00035534 0.00011859    0.0337275 -+++
   195   0   0   T    F  5.00D-01 0.00017807 0.00005729 0.00017767 0.00005930    0.0337268 -+++
   196   0   0   T    F  5.00D-01 0.00017807 0.00005729 0.00008883 0.00002965    0.0337266 -+++
   197   0   0   T    F  5.00D-01 0.00017807 0.00005729 0.00004442 0.00001482    0.0337265 -+++
   198   0   0   T    F  5.00D-01 0.00017807 0.00005729 0.00002221 0.00000741    0.0337265 -+++
   199   0   0   T    F  5.00D-01 0.00017807 0.00005729 0.00001110 0.00000371    0.0337265 -+++
   200   0   0   T    F  5.00D-01 0.00017807 0.00005729 0.00000555 0.00000185    0.0337265 -+++
   201   0   0   T    F  5.00D-01 0.00017807 0.00005729 0.00000278 0.00000093    0.0337265 -+++
   202   0   0   T    F  5.00D-01 0.00017807 0.00005729 0.00000139 0.00000046    0.0337265 -+++
   203   0   0   T    F  5.00D-01 0.00017807 0.00005729 0.00000069 0.00000023    0.0337265 -+++
   204   0   0   T    T  1.00D+00 0.00017925 0.00005759 0.00011499 0.00005095    0.0337265 -+++
   205   0   0   F    T  2.62D+00 0.00006118 0.00002060 0.00013747 0.00005095    0.0337264 ====
 ****************************
 MOLECULAR MECHANICS FUNCTION
 ****************************
 Atomic parameters:
 Center  VDW
      1 1.9080 0.0860000
      2 1.7210 0.2104000
      3 1.9080 0.1094000
      4 1.4870 0.0157000
      5 1.4870 0.0157000
      6 1.8750 0.1700000
      7 0.6000 0.0157000
      8 0.6000 0.0157000
      9 1.6612 0.2100000
     10 0.0000 0.0000000
 Molecular mechanics terms:
 NBDir 3 1      0      0
 HrmStr1  1- 2  431.53 1.3510
 HrmStr1  1- 3  294.15 1.5090
 HrmStr1  1- 9  946.08 1.2030
 HrmStr1  2-10  566.76 0.9680
 HrmStr1  3- 4  358.05 1.0960
 HrmStr1  3- 5  358.05 1.0960
 HrmStr1  3- 6  380.82 1.4520
 HrmStr1  6- 7  506.01 1.0110
 HrmStr1  6- 8  506.01 1.0110
 HrmBnd1  1- 2-10  56.55 107.23
 HrmBnd1  1- 3- 4  46.41 106.89
 HrmBnd1  1- 3- 5  46.41 106.89
 HrmBnd1  1- 3- 6  59.93 110.61
 HrmBnd1  2- 1- 3  67.92 111.72
 HrmBnd1  2- 1- 9  91.40 123.02
 HrmBnd1  3- 1- 9  62.83 125.24
 HrmBnd1  3- 6- 7  52.60 110.71
 HrmBnd1  3- 6- 8  52.60 110.71
 HrmBnd1  4- 3- 5  44.68 106.22
 HrmBnd1  4- 3- 6  52.45 112.94
 HrmBnd1  5- 3- 6  52.45 112.94
 HrmBnd1  7- 6- 8  47.09 108.63
 AmbTrs  3- 1- 2-10   0 180   0   0  0.0000 14.5000  0.0000  0.0000  2.0
 AmbTrs  9- 1- 2-10   0   0   0   0  0.0000  0.0000  0.0000  0.0000  2.0
 AmbTrs  2- 1- 3- 4   0   0   0   0  0.0000 14.5000  0.0000  0.0000  6.0
 AmbTrs  2- 1- 3- 5   0   0   0   0  0.0000 14.5000  0.0000  0.0000  6.0
 AmbTrs  2- 1- 3- 6   0   0   0   0  0.0000 14.5000  0.0000  0.0000  6.0
 AmbTrs  9- 1- 3- 4   0   0   0   0  0.0000 14.5000  0.0000  0.0000  6.0
 AmbTrs  9- 1- 3- 5   0   0   0   0  0.0000 14.5000  0.0000  0.0000  6.0
 AmbTrs  9- 1- 3- 6   0   0   0   0  0.0000 14.5000  0.0000  0.0000  6.0
 AmbTrs  1- 3- 6- 7   0 180   0   0  0.0000 25.6300  0.0000  0.0000  6.0
 AmbTrs  1- 3- 6- 8   0 180   0   0  0.0000 25.6300  0.0000  0.0000  6.0
 AmbTrs  4- 3- 6- 7   0   0   0   0  0.0000 16.9300  0.0000  0.0000  6.0
 AmbTrs  4- 3- 6- 8   0   0   0   0  0.0000 16.9300  0.0000  0.0000  6.0
 AmbTrs  5- 3- 6- 7   0   0   0   0  0.0000 16.9300  0.0000  0.0000  6.0
 AmbTrs  5- 3- 6- 8   0   0   0   0  0.0000 16.9300  0.0000  0.0000  6.0
 NBPair  2- 1 3 1      0      0 -1.000 -1.000
 NBPair  3- 2 3 1      0      0 -1.000 -1.000
 NBPair 10- 3 3 1      0      0 -0.500 -0.167
 NBPair  9- 2 3 1      0      0 -1.000 -1.000
 NBPair 10- 9 3 1      0      0 -0.500 -0.167
 NBPair  3- 1 3 1      0      0 -1.000 -1.000
 NBPair  4- 2 3 1      0      0 -0.500 -0.167
 NBPair  5- 2 3 1      0      0 -0.500 -0.167
 NBPair  6- 2 3 1      0      0 -0.500 -0.167
 NBPair  9- 3 3 1      0      0 -1.000 -1.000
 NBPair  9- 4 3 1      0      0 -0.500 -0.167
 NBPair  9- 5 3 1      0      0 -0.500 -0.167
 NBPair  9- 6 3 1      0      0 -0.500 -0.167
 NBPair  9- 1 3 1      0      0 -1.000 -1.000
 NBPair 10- 1 3 1      0      0 -1.000 -1.000
 NBPair 10- 2 3 1      0      0 -1.000 -1.000
 NBPair  4- 1 3 1      0      0 -1.000 -1.000
 NBPair  5- 1 3 1      0      0 -1.000 -1.000
 NBPair  6- 1 3 1      0      0 -1.000 -1.000
 NBPair  4- 3 3 1      0      0 -1.000 -1.000
 NBPair  5- 4 3 1      0      0 -1.000 -1.000
 NBPair  6- 4 3 1      0      0 -1.000 -1.000
 NBPair  5- 3 3 1      0      0 -1.000 -1.000
 NBPair  6- 5 3 1      0      0 -1.000 -1.000
 NBPair  6- 3 3 1      0      0 -1.000 -1.000
 NBPair  7- 1 3 1      0      0 -0.500 -0.167
 NBPair  8- 1 3 1      0      0 -0.500 -0.167
 NBPair  7- 4 3 1      0      0 -0.500 -0.167
 NBPair  8- 4 3 1      0      0 -0.500 -0.167
 NBPair  7- 5 3 1      0      0 -0.500 -0.167
 NBPair  8- 5 3 1      0      0 -0.500 -0.167
 NBPair  7- 3 3 1      0      0 -1.000 -1.000
 NBPair  8- 3 3 1      0      0 -1.000 -1.000
 NBPair  7- 6 3 1      0      0 -1.000 -1.000
 NBPair  8- 7 3 1      0      0 -1.000 -1.000
 NBPair  8- 6 3 1      0      0 -1.000 -1.000
 Energy per function type:
 Direct Coulomb + vdW (small)                           0.001971256
 Direct Coulomb (large)                                -0.132429796
 Direct vdW (large)                                   270.427725956
 Non-direct Coulomb + vdW (small)                      -0.011325543
 Non-direct Coulomb (large)                             0.138454774
 Non-direct vdW (large)                              -270.427725956
 Harmonic stretch I                                     0.000074200
 Harmonic bend I                                        0.008470669
 Amber torsion                                          0.028510873
 Energy per function class:
        Coulomb              -0.004205774
    Vanderwaals               0.000876464
     Stretching               0.000074200
        Bending               0.008470669
        Torsion               0.028510873
 Energy=    3.372643292E-02 NIter=   0.
 Dipole moment=       0.331184       0.440822       0.081615
 Leave Link  402 at Wed Nov 29 12:05:32 2023, MaxMem=   134217728 cpu:               0.3 elap:               0.3
 (Enter /home/emanuele/chem_software/gaussian//gdv/l716.exe)
 Dipole        = 3.31183529D-01 4.40821775D-01 8.16147260D-02
 -------------------------------------------------------------------
 Center     Atomic                   Forces (Hartrees/Bohr)
 Number     Number              X              Y              Z
 -------------------------------------------------------------------
      1        6           0.000023093    0.000061177   -0.000006845
      2        8          -0.000000936    0.000002478    0.000004694
      3        6          -0.000009159   -0.000001522   -0.000003048
      4        1          -0.000010344    0.000015021    0.000003093
      5        1           0.000011196    0.000000080   -0.000005079
      6        7          -0.000005894    0.000033549   -0.000009926
      7        1          -0.000003341   -0.000040219    0.000017479
      8        1           0.000007289   -0.000018720    0.000007170
      9        8           0.000000858   -0.000058285   -0.000019750
     10        1          -0.000012763    0.000006440    0.000012211
 -------------------------------------------------------------------
 Cartesian Forces:  Max     0.000061177 RMS     0.000020599
 Z-matrix is all fixed cartesians, so copy forces.
 Leave Link  716 at Wed Nov 29 12:05:32 2023, MaxMem=   134217728 cpu:               0.0 elap:               0.0
 (Enter /home/emanuele/chem_software/gaussian//gdv/l103.exe)

 GradGradGradGradGradGradGradGradGradGradGradGradGradGradGradGradGradGrad
 Berny optimization.
 Search for a local minimum.
 Step number   1 out of a maximum of    2
 All quantities printed in internal units (Hartrees-Bohrs-Radians)
 RMS Force = .20599D-04 SwitMx=.10000D-02 MixMth= 2
 Mixed Optimization -- En-DIIS/RFO-DIIS
 Second derivative matrix not updated -- unit matrix used.
 ITU=  0
 RFO step:  Lambda=-1.27300065D-08 EMin= 1.00000000D+00
 Linear search not attempted -- first point.
 Variable       Old X    -DE/DX   Delta X   Delta X   Delta X     New X
                                 (Linear)    (Quad)   (Total)
    X1       -1.18125   0.00002   0.00000   0.00002   0.00002  -1.18122
    Y1       -0.74822   0.00006   0.00000   0.00006   0.00006  -0.74815
    Z1        0.28356  -0.00001   0.00000  -0.00001  -0.00001   0.28355
    X2       -2.16226  -0.00000   0.00000  -0.00000  -0.00000  -2.16226
    Y2        1.06070   0.00000   0.00000   0.00000   0.00000   1.06070
    Z2       -1.22027   0.00000   0.00000   0.00000   0.00000  -1.22027
    X3        1.41312  -0.00001   0.00000  -0.00001  -0.00001   1.41311
    Y3       -0.06559  -0.00000   0.00000  -0.00000  -0.00000  -0.06560
    Z3        1.30011  -0.00000   0.00000  -0.00000  -0.00000   1.30010
    X4        1.24948  -0.00001   0.00000  -0.00001  -0.00001   1.24947
    Y4        1.93590   0.00002   0.00000   0.00002   0.00002   1.93591
    Z4        1.81342   0.00000   0.00000   0.00000   0.00000   1.81342
    X5        1.49260   0.00001   0.00000   0.00001   0.00001   1.49261
    Y5       -1.11172   0.00000   0.00000   0.00000   0.00000  -1.11172
    Z5        3.08723  -0.00001   0.00000  -0.00001  -0.00001   3.08722
    X6        3.37872  -0.00001   0.00000  -0.00001  -0.00001   3.37872
    Y6       -0.71079   0.00003   0.00000   0.00003   0.00003  -0.71076
    Z6       -0.52219  -0.00001   0.00000  -0.00001  -0.00001  -0.52220
    X7        2.90817  -0.00000   0.00000  -0.00000  -0.00000   2.90817
    Y7       -1.43005  -0.00004   0.00000  -0.00004  -0.00004  -1.43009
    Z7       -2.23017   0.00002   0.00000   0.00002   0.00002  -2.23015
    X8        5.21365   0.00001   0.00000   0.00001   0.00001   5.21366
    Y8       -0.33308  -0.00002   0.00000  -0.00002  -0.00002  -0.33310
    Z8       -0.14382   0.00001   0.00000   0.00001   0.00001  -0.14381
    X9       -2.32001   0.00000   0.00000   0.00000   0.00000  -2.32001
    Y9       -2.65565  -0.00006   0.00000  -0.00006  -0.00006  -2.65571
    Z9        0.75781  -0.00002   0.00000  -0.00002  -0.00002   0.75779
   X10       -3.79008  -0.00001   0.00000  -0.00001  -0.00001  -3.79009
   Y10        0.42345   0.00001   0.00000   0.00001   0.00001   0.42346
   Z10       -1.75570   0.00001   0.00000   0.00001   0.00001  -1.75568
         Item               Value     Threshold  Converged?
 Maximum Force            0.000061     0.000450     YES
 RMS     Force            0.000021     0.000300     YES
 Maximum Displacement     0.000061     0.001800     YES
 RMS     Displacement     0.000021     0.001200     YES
 Predicted change in Energy=-6.365003D-09
 Optimization completed.
    -- Stationary point found.
 Largest change from initial coordinates is atom    9       0.460 Angstoms.
 GradGradGradGradGradGradGradGradGradGradGradGradGradGradGradGradGradGrad

 Leave Link  103 at Wed Nov 29 12:05:32 2023, MaxMem=   134217728 cpu:               0.0 elap:               0.0
 (Enter /home/emanuele/chem_software/gaussian//gdv/l202.exe)
                          Input orientation:                          
 ---------------------------------------------------------------------
 Center     Atomic      Atomic             Coordinates (Angstroms)
 Number     Number       Type             X           Y           Z
 ---------------------------------------------------------------------
      1          6    20001002       -0.625089   -0.395939    0.150052
      2          8    20001022       -1.144218    0.561299   -0.645740
      3          6    20001001        0.747789   -0.034711    0.687987
      4          1    20001034        0.661194    1.024432    0.959618
      5          1    20001034        0.789847   -0.588299    1.633690
      6          7    20001020        1.787943   -0.376135   -0.276333
      7          1    20001029        1.538937   -0.756748   -1.180156
      8          1    20001029        2.758944   -0.176258   -0.076107
      9          8    20001025       -1.227698   -1.405312    0.401014
     10          1    20001031       -2.005625    0.224081   -0.929074
 ---------------------------------------------------------------------
                    Distance matrix (angstroms):
                    1          2          3          4          5
     1  C    0.000000
     2  O    1.348735   0.000000
     3  C    1.518108   2.390344   0.000000
     4  H    2.080234   2.459914   1.096843   0.000000
     5  H    2.059181   3.202809   1.096624   1.752662   0.000000
     6  N    2.450494   3.100454   1.458905   2.181451   2.165502
     7  H    2.565667   3.036803   2.153419   2.919189   2.916717
     8  H    3.398689   4.012872   2.156066   2.629627   2.640175
     9  O    1.202062   2.229400   2.421456   3.127876   2.501498
    10  H    1.858714   0.967479   3.203614   3.364467   3.878452
                    6          7          8          9         10
     6  N    0.000000
     7  H    1.011813   0.000000
     8  H    1.011377   1.744795   0.000000
     9  O    3.257622   3.251924   4.198992   0.000000
    10  H    3.895830   3.686324   4.856844   2.242594   0.000000
 Symmetry turned off by external request.
 Stoichiometry    C2H5NO2
 Framework group  C1[X(C2H5NO2)]
 Deg. of freedom    24
 Full point group                 C1      NOp   1
 Rotational constants (GHZ):           8.9857299           3.8906346           3.1839122
 Leave Link  202 at Wed Nov 29 12:05:32 2023, MaxMem=   134217728 cpu:               0.0 elap:               0.0
 (Enter /home/emanuele/chem_software/gaussian//gdv/l9999.exe)
 Unable to Open any file for archive entry.
 1\1\GINC-EMANUELE-XPS-13-9343\FOpt\AMBER\ZDO\C2H5N1O2\EMANUELE\29-Nov-
 2023\0\\#p Amber=(SoftFirst,Print) geom=nocrowd nosymm opt=(maxcycle=3
 00)\\Title\\0,1\C,-0.6250888745,-0.3959388483,0.150052413\O,-1.1442176
 971,0.5612992786,-0.6457402064\C,0.7477886973,-0.034710754,0.687986614
 4\H,0.6611939193,1.024431699,0.9596178991\H,0.7898474602,-0.588299184,
 1.6336899553\N,1.7879433925,-0.3761350803,-0.2763332656\H,1.538937371,
 -0.7567477738,-1.1801561954\H,2.7589438442,-0.1762578608,-0.0761073259
 \O,-1.2276984474,-1.4053118154,0.4010142212\H,-2.0056246653,0.22408133
 9,-0.9290741098\\Version=ES64L-GDVRevJ.14\HF=0.0337264\RMSD=0.000e+00\
 RMSF=2.060e-05\Dipole=0.3311835,0.4408218,0.0816147\PG=C01 [X(C2H5N1O2
 )]\\@
 The archive entry for this job was punched.


 WE ARE PERHAPS NOT FAR REMOVED FROM THE TIME WHEN WE SHALL BE ABLE TO SUBMIT
 THE BULK OF CHEMICAL PHENOMENA TO CALCULATION.

            -- JOSEPH LOUIS GAY-LUSSAC
               MEMOIRES DE LA SOCIETE D'ARCUEIL, 2, 207 (1808)
 Job cpu time:       0 days  0 hours  0 minutes  0.9 seconds.
 Elapsed time:       0 days  0 hours  0 minutes  0.8 seconds.
 File lengths (MBytes):  RWF=      6 Int=      0 D2E=      0 Chk=      1 Scr=      1
 Normal termination of Gaussian DV at Wed Nov 29 12:05:32 2023.
