 Entering Gaussian System, Link 0=/home/emanuele/chem_software/gaussian//g09/g09
 Input=1_mm_70.gjf
 Output=1_mm_70.log
 Initial command:
 /home/emanuele/chem_software/gaussian//gdv/l1.exe "/home/emanuele/chem_software/gaussian/scratch/Gau-13840.inp" -scrdir="/home/emanuele/chem_software/gaussian/scratch/"
 Entering Link 1 = /home/emanuele/chem_software/gaussian//gdv/l1.exe PID=     13842.
  
 Copyright (c) 1988-2020, Gaussian, Inc.  All Rights Reserved.
  
 This is the private, development version of
 the Gaussian(R) DV system of programs. It is based on
 the Gaussian(R) 16 system (copyright 2016, Gaussian, Inc.),
 the Gaussian(R) 09 system (copyright 2009, Gaussian, Inc.),
 the Gaussian(R) 03 system (copyright 2003, Gaussian, Inc.),
 the Gaussian(R) 98 system (copyright 1998, Gaussian, Inc.),
 the Gaussian(R) 94 system (copyright 1995, Gaussian, Inc.),
 the Gaussian 92(TM) system (copyright 1992, Gaussian, Inc.),
 the Gaussian 90(TM) system (copyright 1990, Gaussian, Inc.),
 the Gaussian 88(TM) system (copyright 1988, Gaussian, Inc.),
 the Gaussian 86(TM) system (copyright 1986, Carnegie Mellon
 University), and the Gaussian 82(TM) system (copyright 1983,
 Carnegie Mellon University). Gaussian is a federally registered
 trademark of Gaussian, Inc.
  
 This software contains proprietary and confidential information,
 including trade secrets, belonging to Gaussian, Inc.
  
 This software is provided under written license and may be
 used, copied, transmitted, or stored only in accord with that
 written license.
  
 The following legend is applicable only to US Government
 contracts under FAR:
  
                    RESTRICTED RIGHTS LEGEND
  
 Use, reproduction and disclosure by the US Government is
 subject to restrictions as set forth in subparagraphs (a)
 and (c) of the Commercial Computer Software - Restricted
 Rights clause in FAR 52.227-19.
  
 Gaussian, Inc.
 340 Quinnipiac St., Bldg. 40, Wallingford CT 06492
  
  
 ---------------------------------------------------------------
 Warning -- This program may not be used in any manner that
 competes with the business of Gaussian, Inc. or will provide
 assistance to any competitor of Gaussian, Inc.  The licensee
 of this program is prohibited from giving any competitor of
 Gaussian, Inc. access to this program.  By using this program,
 the user acknowledges that Gaussian, Inc. is engaged in the
 business of creating and licensing software in the field of
 computational chemistry and represents and warrants to the
 licensee that it is not a competitor of Gaussian, Inc. and that
 it will not use this program in any manner prohibited above.
 ---------------------------------------------------------------
  

 Cite this work as:
 Gaussian Development Version, Revision J.14,
 M. J. Frisch, G. W. Trucks, H. B. Schlegel, G. E. Scuseria, 
 M. A. Robb, J. R. Cheeseman, G. Scalmani, V. Barone, 
 G. A. Petersson, H. Nakatsuji, X. Li, A. V. Marenich, M. Caricato, 
 J. Bloino, B. G. Janesko, J. Zheng, R. Gomperts, B. Mennucci, 
 H. P. Hratchian, J. V. Ortiz, A. F. Izmaylov, J. L. Sonnenberg, 
 D. Williams-Young, F. Ding, F. Lipparini, F. Egidi, J. Goings, 
 B. Peng, A. Petrone, T. Henderson, D. Ranasinghe, V. G. Zakrzewski, 
 J. Gao, N. Rega, G. Zheng, W. Liang, M. Hada, M. Ehara, K. Toyota, 
 R. Fukuda, J. Hasegawa, M. Ishida, T. Nakajima, Y. Honda, O. Kitao, 
 H. Nakai, T. Vreven, K. Throssell, J. A. Montgomery, Jr., 
 J. E. Peralta, F. Ogliaro, M. J. Bearpark, J. J. Heyd, 
 E. N. Brothers, K. N. Kudin, V. N. Staroverov, T. A. Keith, 
 R. Kobayashi, J. Normand, K. Raghavachari, A. P. Rendell, 
 J. C. Burant, S. S. Iyengar, J. Tomasi, M. Cossi, J. M. Millam, 
 M. Klene, C. Adamo, R. Cammi, J. W. Ochterski, R. L. Martin, 
 K. Morokuma, O. Farkas, J. B. Foresman, and D. J. Fox, 
 Gaussian, Inc., Wallingford CT, 2020.
 
 ******************************************
 Gaussian DV:  ES64L-GDVRevJ.14 29-Dec-2020
                29-Nov-2023 
 ******************************************
 %mem=1GB
 %nprocshared=1
 Will use up to    1 processors via shared memory.
 %chk=1_mm_70.chk
 -----------------------------------------------------------------
 #p Amber=(SoftFirst,Print) geom=nocrowd nosymm opt=(maxcycle=300)
 -----------------------------------------------------------------
 1/6=300,10=10,18=4000020,19=15,37=210000000,38=1,56=2,64=203/1,3;
 2/9=110,12=1,15=1,40=1/2;
 3/5=30,11=9,25=1,30=1,41=10030000,43=2,71=1/1;
 4/20=11,22=1001,24=3,119=11/2;
 7/30=1,44=-1/16;
 1/6=300,10=10,18=4000020,19=15,64=203/3(2);
 2/9=110,12=1,15=1/2;
 99//99;
 2/9=110,12=1,15=1/2;
 3/5=30,11=9,25=1,30=1,41=10030000,43=2,71=1/1;
 4/16=2,20=11,22=1001,24=3,119=11/2;
 7/30=1,44=-1/16;
 1/6=300,10=10,18=4000020,19=15,64=203/3(-4);
 2/9=110,12=1,15=1/2;
 99/9=10/99;
 Leave Link    1 at Wed Nov 29 12:05:28 2023, MaxMem=   134217728 cpu:               0.0 elap:               0.0
 (Enter /home/emanuele/chem_software/gaussian//gdv/l101.exe)
 -----
 Title
 -----
 Symbolic Z-matrix:
 Charge =  0 Multiplicity = 1
 C-C-+0.299289        -0.61918  -0.20962   0.32286 
 O-OH--0.289770       -0.65234  -0.03329  -1.04412 
 C-CT--0.035454        0.80775  -0.21762   0.83306 
 H-HC-+0.090426        1.11473   0.45559   1.67917 
 H-HC-+0.095387        0.75428  -1.24785   1.26881 
 N-N3--0.336253        1.86282  -0.20367  -0.19813 
 H-H-+0.142619         1.50501  -0.79394  -0.95868 
 H-H-+0.128282         1.73752   0.66854  -0.70905 
 O-O2--0.308037       -1.64982  -0.32736   0.93778 
 H-HO-+0.213510       -1.57875  -0.01436  -1.40674 
 
 ITRead=  3  3  3  3  3  3  3  3  3  3
 MicOpt=  0  0  0  0  0  0  0  0  0  0
 NAtoms=     10 NQM=        0 NQMF=       0 NMMI=      0 NMMIF=      0
                NMic=      10 NMicF=      0.
                    Isotopes and Nuclear Properties:
 (Nuclear quadrupole moments (NQMom) in fm**2, nuclear magnetic moments (NMagM)
  in nuclear magnetons)

  Atom         1           2           3           4           5           6           7           8           9          10
 IAtWgt=          12          16          12           1           1          14           1           1          16           1
 AtmWgt=  12.0000000  15.9949146  12.0000000   1.0078250   1.0078250  14.0030740   1.0078250   1.0078250  15.9949146   1.0078250
 NucSpn=           0           0           0           1           1           2           1           1           0           1
 AtZEff=  -0.0000000  -0.0000000  -0.0000000  -0.0000000  -0.0000000  -0.0000000  -0.0000000  -0.0000000  -0.0000000  -0.0000000
 NQMom=    0.0000000   0.0000000   0.0000000   0.0000000   0.0000000   2.0440000   0.0000000   0.0000000   0.0000000   0.0000000
 NMagM=    0.0000000   0.0000000   0.0000000   2.7928460   2.7928460   0.4037610   2.7928460   2.7928460   0.0000000   2.7928460
 AtZNuc=   6.0000000   8.0000000   6.0000000   1.0000000   1.0000000   7.0000000   1.0000000   1.0000000   8.0000000   1.0000000
 Generating MM parameters.
 I=    1 IAn=  6 Valence= 5.
          JB=  1 J=    2 IAn=  8 IBT=12 Dist= 1.38D+00
          JB=  2 J=    3 IAn=  6 IBT= 1 Dist= 1.52D+00
          JB=  3 J=    9 IAn=  8 IBT= 2 Dist= 1.21D+00
 I=    2 IAn=  8 Valence= 3.
          JB=  1 J=    1 IAn=  6 IBT=12 Dist= 1.38D+00
          JB=  2 J=   10 IAn=  1 IBT= 1 Dist= 9.95D-01
 Read MM parameter file:
 Include all MM classes

 MM sanity checks:
 All charges sum to:               -0.00000100
 Charges of atoms sum to:          -0.00000100
 WARNING -- The following centers have non-zero partial charges, but zero Vanderwaals
 parameters.  These centers can collapse onto other centers with non-zero charge.
   Center  Layer   Charge
     10 H    R    0.213510
 MMInit generated parameter data with length LenPar=        2069.
 MM Charge=             -0.0000 electrons
 MM Dipole moment (Debye):
    X=              0.6249    Y=              0.0748    Z=             -0.5176  Tot=              0.8149
 MM Quadrupole moment (Debye-Ang):
   XX=             -3.0158   YY=              1.3390   ZZ=              2.0808
   XY=             -0.2902   XZ=              3.3168   YZ=              0.1312
 MM Traceless Quadrupole moment (Debye-Ang):
   XX=             -3.1504   YY=              1.2043   ZZ=              1.9461
   XY=             -0.2902   XZ=              3.3168   YZ=              0.1312
 MM Octapole moment (Debye-Ang**2):
  XXX=             -1.5105  YYY=             -0.9538  ZZZ=             -0.3593  XYY=              1.8588
  XXY=              2.2838  XXZ=             -7.1277  XZZ=              3.0335  YZZ=             -0.2007
  YYZ=              0.3269  XYZ=             -0.6863
 MM Hexadecapole moment (Debye-Ang**3):
 XXXX=            -14.2032 YYYY=              1.5075 ZZZZ=              6.5236 XXXY=              0.4231
 XXXZ=             10.1170 YYYX=             -0.8724 YYYZ=             -0.8194 ZZZX=              7.1089
 ZZZY=              0.4979 XXYY=              1.6821 XXZZ=              4.9339 YYZZ=              1.7957
 XXYZ=              1.3235 YYXZ=              0.1406 ZZXY=             -1.0901
 Leave Link  101 at Wed Nov 29 12:05:28 2023, MaxMem=   134217728 cpu:               0.2 elap:               0.2
 (Enter /home/emanuele/chem_software/gaussian//gdv/l103.exe)

 GradGradGradGradGradGradGradGradGradGradGradGradGradGradGradGradGradGrad
 Berny optimization.
 Initialization pass.
 No Z-matrix variables, so optimization will use Cartesian coordinates.
 Trust Radius=1.00D-01 FncErr=1.00D-07 GrdErr=1.00D-07 EigMax=2.50D+02 EigMin=1.00D-04
 Number of steps in this run=      2 maximum allowed number of steps=      2.
 GradGradGradGradGradGradGradGradGradGradGradGradGradGradGradGradGradGrad

 Leave Link  103 at Wed Nov 29 12:05:28 2023, MaxMem=   134217728 cpu:               0.0 elap:               0.0
 (Enter /home/emanuele/chem_software/gaussian//gdv/l202.exe)
                          Input orientation:                          
 ---------------------------------------------------------------------
 Center     Atomic      Atomic             Coordinates (Angstroms)
 Number     Number       Type             X           Y           Z
 ---------------------------------------------------------------------
      1          6    20001002       -0.619177   -0.209619    0.322857
      2          8    20001022       -0.652341   -0.033286   -1.044123
      3          6    20001001        0.807750   -0.217621    0.833055
      4          1    20001034        1.114731    0.455586    1.679170
      5          1    20001034        0.754276   -1.247852    1.268812
      6          7    20001020        1.862824   -0.203673   -0.198126
      7          1    20001029        1.505007   -0.793936   -0.958680
      8          1    20001029        1.737524    0.668537   -0.709052
      9          8    20001025       -1.649820   -0.327359    0.937780
     10          1    20001031       -1.578749   -0.014364   -1.406741
 ---------------------------------------------------------------------
                    Distance matrix (angstroms):
                    1          2          3          4          5
     1  C    0.000000
     2  O    1.378705   0.000000
     3  C    1.515416   2.385297   0.000000
     4  H    2.299678   3.282966   1.123991   0.000000
     5  H    1.964467   2.967054   1.119875   1.788861   0.000000
     6  N    2.536097   2.659097   1.475368   2.125678   2.114497
     7  H    2.548710   2.289113   2.007142   2.944804   2.394025
     8  H    2.718462   2.513222   2.006950   2.477261   2.924255
     9  O    1.205910   2.238165   2.462247   2.967390   2.595490
    10  H    1.987564   0.995028   3.279234   4.122928   3.758069
                    6          7          8          9         10
     6  N    0.000000
     7  H    1.027076   0.000000
     8  H    1.018575   1.501734   0.000000
     9  O    3.693812   3.710416   3.895891   0.000000
    10  H    3.652535   3.212171   3.456992   2.366389   0.000000
 Symmetry turned off by external request.
 Stoichiometry    C2H5NO2
 Framework group  C1[X(C2H5NO2)]
 Deg. of freedom    24
 Full point group                 C1      NOp   1
 Rotational constants (GHZ):          10.0521583           4.0447617           2.9772818
 Leave Link  202 at Wed Nov 29 12:05:28 2023, MaxMem=   134217728 cpu:               0.0 elap:               0.0
 (Enter /home/emanuele/chem_software/gaussian//gdv/l301.exe)
 Standard basis: Dummy (5D, 7F)
    10 basis functions,    10 primitive gaussians,    10 cartesian basis functions
     7 alpha electrons        7 beta electrons
       nuclear repulsion energy        22.9035046902 Hartrees.
 IExCor=       0 DFT=F Ex=HF Corr=None N6=None ScaHFX=  1.000000
 ScaDFX=  1.000000  1.000000  1.000000  1.000000  1.000000  0.000000
 ScaDFX=  0.000000  0.000000  0.000000  0.000000  0.000000  0.000000
 IRadAn=      5 IRanWt=     -1 IRanGd=            0 ICorTp=0 IEmpDi=  4
 NAtoms=   10 NActive=   10 NUniq=   10 SFac= 1.00D+00 NAtFMM=   60 NAOKFM=F Big=F
 Integral buffers will be    131072 words long.
 Raffenetti 1 integral format.
 Two-electron integral symmetry is turned off.
 Leave Link  301 at Wed Nov 29 12:05:28 2023, MaxMem=   134217728 cpu:               0.1 elap:               0.0
 (Enter /home/emanuele/chem_software/gaussian//gdv/l402.exe)
 AMBER calculation of energy and first derivatives.
 NRF= 0 NRA=   0 NVA=  10 HaveQM=F NVQ=       0
 Convergence limit is  0.750E-04 MaxStp= 10000 StMxLn= 3.00D-04 StpMin= 1.00D-06.
 Convergence criteria             0.00011250 0.00007500 0.00045000 0.00030000
  Step  NS  ND Rises OKQ   Scale  Max. Force  RMS Force Max. Disp.  RMS Disp.     Energy   Flag
     1   0   0   F    T  1.00D+00 0.03557523 0.01646737 0.03557523 0.01646737    0.0781330 ----
     2   0   0   F    F  3.57D-01 0.03557523 0.01646737 0.01270712 0.00588198    0.0729978 ----
     3   0   0   F    T  2.67D+00 0.01581576 0.00759023 0.05534213 0.02234936    0.0726159 ----
     4   0   0   F    F  1.01D+00 0.01581576 0.00759023 0.05612480 0.02266543    0.0691450 ----
     5   0   0   F    T  2.82D+00 0.02380224 0.00943835 0.12005368 0.04501478    0.0679722 ----
     6   0   0   F    F -4.07D-01 0.02380224 0.00943835 0.04880413 0.01829938    0.0667964 ----
     7   0   0   F    T  5.71D+00 0.01050158 0.00397934 0.06642040 0.02671541    0.0657360 ----
     8   0   0   T    F  2.54D-01 0.01050158 0.00397934 0.01684799 0.00677655    0.0683577 ----
     9   0   0   F    T  1.28D+00 0.01148627 0.00361168 0.01645869 0.00677655    0.0653920 ----
    10   0   0   F    F  1.63D-01 0.01148627 0.00361168 0.00268648 0.00110611    0.0651068 ----
    11   0   0   F    T  1.64D+00 0.00831884 0.00302443 0.01859545 0.00788265    0.0651011 ----
    12   0   0   F    F  4.18D-01 0.00831884 0.00302443 0.00777268 0.00329486    0.0648089 ----
    13   0   0   F    T  3.53D+00 0.00646148 0.00212269 0.02505075 0.01117751    0.0647809 ----
    14   0   0   F    F -1.48D-01 0.00646148 0.00212269 0.00370965 0.00165522    0.0645847 ----
    15   0   0   F    T  2.08D+00 0.00716030 0.00237116 0.02185866 0.00952229    0.0645787 ----
    16   0   0   F    F  5.32D-01 0.00716030 0.00237116 0.01163490 0.00506851    0.0643411 ----
    17   0   0   F    T  3.38D+00 0.00672138 0.00212843 0.03260690 0.01459080    0.0643082 ----
    18   0   0   F    F -2.44D-01 0.00672138 0.00212843 0.00796443 0.00356389    0.0641537 ----
    19   0   0   F    T  3.64D+00 0.00422968 0.00162113 0.02480520 0.01102691    0.0641361 ----
    20   0   0   T    F  3.87D-01 0.00422968 0.00162113 0.00960738 0.00427087    0.0642213 ----
    21   0   0   F    T  1.09D+00 0.00478209 0.00174580 0.01052149 0.00427087    0.0640804 ----
    22   0   0   F    F  1.23D+00 0.00478209 0.00174580 0.01290883 0.00523993    0.0640036 ----
    23   0   0   F    T  3.67D+00 0.00279827 0.00132321 0.02316496 0.00951080    0.0639703 ----
    24   0   0   F    F  1.92D-02 0.00279827 0.00132321 0.00044407 0.00018232    0.0638723 --++
    25   0   0   F    T  2.45D+00 0.00420359 0.00155381 0.02267087 0.00969312    0.0638723 ----
    26   0   0   F    F -4.99D-02 0.00420359 0.00155381 0.00113131 0.00048370    0.0637877 ----
    27   0   0   F    T  4.52D+00 0.00226245 0.00103977 0.02164148 0.00920942    0.0637875 ----
    28   0   0   T    F  2.89D-01 0.00226245 0.00103977 0.00625299 0.00266093    0.0638937 ----
    29   0   0   F    T  1.11D+00 0.00272186 0.00106362 0.00656187 0.00266093    0.0637663 ----
    30   0   0   F    F  1.87D+00 0.00272186 0.00106362 0.01228624 0.00498224    0.0637350 ----
    31   0   0   F    T  1.49D+00 0.00333836 0.00152492 0.01955217 0.00764316    0.0637116 ----
    32   0   0   F    F  3.57D+00 0.00333836 0.00152492 0.06977941 0.02727755    0.0636211 ----
    33   0   0   F    F -6.52D-02 0.00333836 0.00152492 0.00454942 0.00177842    0.0634954 ----
    34   0   0   F    T  4.91D+00 0.00362816 0.00182326 0.08498882 0.03314230    0.0634948 ----
    35   0   0   T    F  4.55D-01 0.00362816 0.00182326 0.03866375 0.01507734    0.0635386 ----
    36   0   0   F    T  1.12D+00 0.00754893 0.00249306 0.03936586 0.01507734    0.0633847 ----
    37   0   0   F    F  1.36D+00 0.00754893 0.00249306 0.05347616 0.02048167    0.0632097 ----
    38   0   0   F    F -5.05D-02 0.00754893 0.00249306 0.00270255 0.00103509    0.0631141 ----
    39   0   0   F    T  1.00D+00 0.00839153 0.00438337 0.10381443 0.03909014    0.0631138 ----
    40   0   0   F    F  9.16D-02 0.00839153 0.00438337 0.00950724 0.00357984    0.0627236 ----
    41   0   0   F    T  1.68D+00 0.01326929 0.00596390 0.11542014 0.04266998    0.0627196 ----
    42   0   0   F    F -3.37D-01 0.01326929 0.00596390 0.03887309 0.01437110    0.0622783 ----
    43   0   0   F    T  2.16D+00 0.01056830 0.00464258 0.07951873 0.02829888    0.0621298 ----
    44   0   0   F    F  1.58D-01 0.01056830 0.00464258 0.01254855 0.00446574    0.0613670 ----
    45   0   0   F    T  1.42D+00 0.01405472 0.00587660 0.09660964 0.03276462    0.0613538 ----
    46   0   0   F    F  1.14D+00 0.01405472 0.00587660 0.10976141 0.03722497    0.0601320 ----
    47   0   0   F    F -1.15D-01 0.01405472 0.00587660 0.01266094 0.00429389    0.0596277 ----
    48   0   0   F    T  2.05D+00 0.01451035 0.00691181 0.19060337 0.06569570    0.0596171 ----
    49   0   0   F    F -3.02D-01 0.01451035 0.00691181 0.05752267 0.01982647    0.0587598 ----
    50   0   0   F    F -6.50D-03 0.01451035 0.00691181 0.00037366 0.00012879    0.0584960 --++
    51   0   0   F    T  2.55D+00 0.02403462 0.00741170 0.11093121 0.04599802    0.0584960 ----
    52   0   0   F    F  2.20D-01 0.02403462 0.00741170 0.02441333 0.01012307    0.0561724 ----
    53   0   0   F    F -1.54D-02 0.02403462 0.00741170 0.00037528 0.00015561    0.0561042 --++
    54   0   0   F    T  1.56D+00 0.02636120 0.01010562 0.14544513 0.05596548    0.0561042 ----
    55   0   0   F    F  6.54D-01 0.02636120 0.01010562 0.09505823 0.03657723    0.0522675 ----
    56   0   0   F    F -3.38D-02 0.02636120 0.01010562 0.00321542 0.00123725    0.0513881 ----
    57   0   0   F    T  4.32D+00 0.02151378 0.00828906 0.27160084 0.09130545    0.0513868 ----
    58   0   0   F    F -2.11D-01 0.02151378 0.00828906 0.05735104 0.01927999    0.0480154 ----
    59   0   0   F    F -1.81D-02 0.02151378 0.00828906 0.00103988 0.00034958    0.0477314 ----
    60   0   0   F    T  3.02D+00 0.01856450 0.00988744 0.25219104 0.07237504    0.0477313 ----
    61   0   0   F    F -2.15D-01 0.01856450 0.00988744 0.05413906 0.01553710    0.0446613 ----
    62   0   0   F    T  2.67D+00 0.02090767 0.00827415 0.18346233 0.05683794    0.0444538 ----
    63   0   0   T    F  4.99D-01 0.02090767 0.00827415 0.09153680 0.02835876    0.0445074 ----
    64   0   0   F    T  1.63D+00 0.01703806 0.00682232 0.08603665 0.02835876    0.0430740 ----
    65   0   0   F    F -7.75D-02 0.01703806 0.00682232 0.00666840 0.00219799    0.0420284 ----
    66   0   0   F    T  2.40D+00 0.01477747 0.00514901 0.08052679 0.02616077    0.0420210 ----
    67   0   0   F    F  2.22D-01 0.01477747 0.00514901 0.01787423 0.00580681    0.0409108 ----
    68   0   0   F    T  2.34D+00 0.01742036 0.00539670 0.08386102 0.03196758    0.0408741 ----
    69   0   0   F    F -4.80D-01 0.01742036 0.00539670 0.04024548 0.01534146    0.0408109 ----
    70   0   0   F    T  1.52D+00 0.01258146 0.00461043 0.03753229 0.01662612    0.0403367 ----
    71   0   0   F    F  2.87D-02 0.01258146 0.00461043 0.00107594 0.00047662    0.0398372 ----
    72   0   0   F    T  2.18D+00 0.01052165 0.00378387 0.03843869 0.01710274    0.0398368 ----
    73   0   0   F    F  2.19D-01 0.01052165 0.00378387 0.00843513 0.00375309    0.0392937 ----
    74   0   0   F    T  1.90D+00 0.00977481 0.00422770 0.04289487 0.02085583    0.0392761 ----
    75   0   0   F    F -3.18D-01 0.00977481 0.00422770 0.01363573 0.00662980    0.0390029 ----
    76   0   0   F    T  1.63D+00 0.00867066 0.00361672 0.02847042 0.01422603    0.0389228 ----
    77   0   0   F    F -1.98D-01 0.00867066 0.00361672 0.00564925 0.00282280    0.0386839 ----
    78   0   0   F    T  2.35D+00 0.00751787 0.00254118 0.02721205 0.01140322    0.0386686 ----
    79   0   0   F    F  1.90D-01 0.00751787 0.00254118 0.00518278 0.00217185    0.0384059 ----
    80   0   0   F    T  1.56D+00 0.00701836 0.00321951 0.03747012 0.01357507    0.0383991 ----
    81   0   0   F    F -2.26D-01 0.00701836 0.00321951 0.00848647 0.00307457    0.0382248 ----
    82   0   0   F    T  1.44D+00 0.00677708 0.00289415 0.02649484 0.01050050    0.0382075 ----
    83   0   0   F    F  1.79D-01 0.00677708 0.00289415 0.00473567 0.00187685    0.0380020 ----
    84   0   0   F    T  3.15D+00 0.00643513 0.00202271 0.03014934 0.01237736    0.0379973 ----
    85   0   0   T    F  4.57D-01 0.00643513 0.00202271 0.01377856 0.00565658    0.0380304 ----
    86   0   0   F    T  1.24D+00 0.00508384 0.00202683 0.01527420 0.00565658    0.0379094 ----
    87   0   0   F    F  1.70D-01 0.00508384 0.00202683 0.00260192 0.00096359    0.0378211 ----
    88   0   0   F    T  1.46D+00 0.00577324 0.00193176 0.01965688 0.00662017    0.0378192 ----
    89   0   0   F    F  8.43D-01 0.00577324 0.00193176 0.01656757 0.00557973    0.0377005 ----
    90   0   0   F    T  2.18D+00 0.00637295 0.00212569 0.03687591 0.01219990    0.0376691 ----
    91   0   0   T    F  4.19D-01 0.00637295 0.00212569 0.01543822 0.00510753    0.0377225 ----
    92   0   0   F    T  1.78D+00 0.00380442 0.00137931 0.01589571 0.00510753    0.0376076 ----
    93   0   0   F    F -1.08D-01 0.00380442 0.00137931 0.00171769 0.00055192    0.0375627 ----
    94   0   0   F    T  2.45D+00 0.00279872 0.00101122 0.01491579 0.00455561    0.0375620 ----
    95   0   0   F    F -2.16D-01 0.00279872 0.00101122 0.00322587 0.00098525    0.0375348 ----
    96   0   0   F    T  1.01D+00 0.00400067 0.00134785 0.01182782 0.00357036    0.0375325 ----
    97   0   0   F    F  6.27D-01 0.00400067 0.00134785 0.00741251 0.00223755    0.0374948 ----
    98   0   0   F    T  1.59D+00 0.00417912 0.00130915 0.01917182 0.00580790    0.0374882 ----
    99   0   0   F    F  8.19D-01 0.00417912 0.00130915 0.01570532 0.00475776    0.0374284 ----
   100   0   0   F    T  1.69D+00 0.00368936 0.00167366 0.03439544 0.01056567    0.0374129 ----
   101   0   0   F    F -2.13D-01 0.00368936 0.00167366 0.00731667 0.00224755    0.0373607 ----
   102   0   0   F    T  1.27D+00 0.00391342 0.00173444 0.02636351 0.00831812    0.0373565 ----
   103   0   0   F    F  4.80D-01 0.00391342 0.00173444 0.01264909 0.00399099    0.0372818 ----
   104   0   0   F    T  2.38D+00 0.00390319 0.00149393 0.03750749 0.01230911    0.0372732 ----
   105   0   0   F    F -8.14D-02 0.00390319 0.00149393 0.00305398 0.00100225    0.0372002 ----
   106   0   0   F    T  1.41D+00 0.00578599 0.00182681 0.03306083 0.01130686    0.0371996 ----
   107   0   0   F    F -5.36D-02 0.00578599 0.00182681 0.00177235 0.00060615    0.0371327 ----
   108   0   0   F    T  1.34D+00 0.00440170 0.00183426 0.02948823 0.01070071    0.0371325 ----
   109   0   0   F    F  1.57D+00 0.00440170 0.00183426 0.04626611 0.01678908    0.0370247 ----
   110   0   0   F    F -1.07D-02 0.00440170 0.00183426 0.00049332 0.00017901    0.0369625 ---+
   111   0   0   F    T  1.91D+00 0.00768738 0.00244944 0.07330613 0.02731078    0.0369625 ----
   112   0   0   F    F -2.30D-01 0.00768738 0.00244944 0.01686250 0.00628226    0.0368411 ----
   113   0   0   F    T  1.50D+00 0.00681666 0.00240572 0.05413301 0.02102853    0.0368290 ----
   114   0   0   F    F -8.52D-02 0.00681666 0.00240572 0.00460959 0.00179064    0.0367098 ----
   115   0   0   F    T  1.80D+00 0.00500301 0.00215132 0.04806145 0.01923788    0.0367088 ----
   116   0   0   F    F  8.17D-01 0.00500301 0.00215132 0.03928178 0.01572358    0.0365323 ----
   117   0   0   F    F -1.91D-02 0.00500301 0.00215132 0.00075084 0.00030055    0.0364901 ----
   118   0   0   F    T  1.94D+00 0.00756091 0.00273495 0.08251773 0.03466092    0.0364901 ----
   119   0   0   F    F -4.29D-01 0.00756091 0.00273495 0.03540872 0.01487316    0.0364385 ----
   120   0   0   F    T  1.73D+00 0.00588505 0.00216468 0.05122548 0.01978777    0.0363643 ----
   121   0   0   F    F -1.40D-01 0.00588505 0.00216468 0.00714975 0.00276186    0.0362605 ----
   122   0   0   F    T  2.59D+00 0.00408969 0.00172611 0.04579625 0.01702590    0.0362576 ----
   123   0   0   F    F  9.28D-02 0.00408969 0.00172611 0.00425217 0.00158085    0.0361323 ----
   124   0   0   F    T  1.16D+00 0.00662111 0.00269897 0.04646881 0.01860676    0.0361314 ----
   125   0   0   F    F  3.02D-01 0.00662111 0.00269897 0.01401100 0.00561020    0.0359770 ----
   126   0   0   F    T  1.72D+00 0.00626696 0.00246589 0.06397496 0.02421696    0.0359685 ----
   127   0   0   F    F  2.75D-01 0.00626696 0.00246589 0.01758517 0.00665666    0.0357764 ----
   128   0   0   F    T  3.11D+00 0.00426101 0.00203181 0.08487867 0.03087361    0.0357670 ----
   129   0   0   F    F -3.47D-01 0.00426101 0.00203181 0.02944907 0.01071175    0.0356773 ----
   130   0   0   F    T  1.21D+00 0.00696336 0.00266529 0.05037808 0.02016186    0.0356393 ----
   131   0   0   F    F  4.29D-01 0.00696336 0.00266529 0.02159519 0.00864263    0.0354740 ----
   132   0   0   F    T  1.80D+00 0.00678380 0.00266676 0.07298940 0.02880449    0.0354584 ----
   133   0   0   F    F  2.45D-01 0.00678380 0.00266676 0.01789764 0.00706311    0.0352282 ----
   134   0   0   F    F -2.29D-02 0.00678380 0.00266676 0.00041015 0.00016186    0.0352190 --++
   135   0   0   F    T  4.03D+00 0.00376846 0.00187975 0.08799713 0.03570575    0.0352190 ----
   136   0   0   F    F -2.90D-01 0.00376846 0.00187975 0.02550706 0.01034975    0.0350918 ----
   137   0   0   F    T  1.64D+00 0.00499113 0.00250141 0.05624420 0.02535599    0.0350652 ----
   138   0   0   F    F  1.55D-01 0.00499113 0.00250141 0.00869128 0.00391820    0.0349031 ----
   139   0   0   F    T  1.70D+00 0.00531157 0.00244965 0.07177934 0.02927419    0.0349005 ----
   140   0   0   F    F -2.34D-01 0.00531157 0.00244965 0.01676274 0.00683645    0.0347900 ----
   141   0   0   F    T  2.70D+00 0.00348068 0.00165762 0.05111677 0.02243774    0.0347770 ----
   142   0   0   F    F  2.36D-01 0.00348068 0.00165762 0.01204121 0.00528550    0.0346442 ----
   143   0   0   F    T  2.65D+00 0.00511876 0.00199804 0.06749413 0.02772324    0.0346393 ----
   144   0   0   F    F  2.04D-01 0.00511876 0.00199804 0.01373515 0.00564172    0.0344573 ----
   145   0   0   F    F -2.90D-02 0.00511876 0.00199804 0.00039810 0.00016352    0.0344523 --++
   146   0   0   F    T  2.35D+00 0.00481249 0.00229735 0.08660343 0.03320144    0.0344522 ----
   147   0   0   F    F -2.61D-01 0.00481249 0.00229735 0.02260205 0.00866502    0.0343281 ----
   148   0   0   F    T  1.68D+00 0.00684931 0.00249041 0.07198328 0.02453642    0.0343072 ----
   149   0   0   F    F -1.09D-01 0.00684931 0.00249041 0.00783793 0.00267166    0.0341761 ----
   150   0   0   F    T  2.38D+00 0.00441170 0.00193090 0.06575793 0.02186476    0.0341743 ----
   151   0   0   F    F  3.26D-02 0.00441170 0.00193090 0.00214081 0.00071183    0.0340345 ----
   152   0   0   F    T  2.98D+00 0.00300686 0.00161897 0.07173410 0.02257659    0.0340343 ----
   153   0   0   F    F -1.33D-01 0.00300686 0.00161897 0.00955592 0.00300750    0.0339366 ----
   154   0   0   F    T  4.36D+00 0.00289420 0.00124528 0.05996622 0.01956909    0.0339343 ----
   155   0   0   T    F  3.70D-01 0.00289420 0.00124528 0.02216944 0.00723467    0.0340098 ----
   156   0   0   F    T  1.91D+00 0.00265470 0.00112948 0.02248199 0.00723467    0.0338966 ----
   157   0   0   F    F -2.31D-02 0.00265470 0.00112948 0.00051946 0.00016716    0.0338614 ---+
   158   0   0   F    T  1.85D+00 0.00323180 0.00109855 0.02008074 0.00706751    0.0338614 ----
   159   0   0   F    F -3.40D-01 0.00323180 0.00109855 0.00683160 0.00240441    0.0338452 ----
   160   0   0   F    T  5.40D+00 0.00102849 0.00046835 0.01217561 0.00466310    0.0338392 ----
   161   0   0   F    F -4.30D-01 0.00102849 0.00046835 0.00523350 0.00200436    0.0338348 ----
   162   0   0   F    T  2.02D+00 0.00137779 0.00055097 0.00634645 0.00265874    0.0338291 ----
   163   0   0   F    F  7.63D-02 0.00137779 0.00055097 0.00048426 0.00020287    0.0338192 ---+
   164   0   0   F    T  2.66D+00 0.00108449 0.00047231 0.00814362 0.00286161    0.0338192 ----
   165   0   0   F    F -4.88D-01 0.00108449 0.00047231 0.00397510 0.00139682    0.0338188 ----
   166   0   0   F    T  1.51D+00 0.00102387 0.00042441 0.00458387 0.00146479    0.0338146 ----
   167   0   0   F    F  5.78D-01 0.00102387 0.00042441 0.00265130 0.00084723    0.0338091 ----
   168   0   0   F    T  1.91D+00 0.00120970 0.00045627 0.00722952 0.00231202    0.0338082 ----
   169   0   0   F    F  2.95D-01 0.00120970 0.00045627 0.00213316 0.00068219    0.0338009 ----
   170   0   0   F    T  2.85D+00 0.00083805 0.00040776 0.00982772 0.00299421    0.0338005 ----
   171   0   0   F    F -3.79D-02 0.00083805 0.00040776 0.00037256 0.00011351    0.0337936 --++
   172   0   0   F    T  2.31D+00 0.00103004 0.00043216 0.00885182 0.00288070    0.0337936 ----
   173   0   0   F    F -1.69D-01 0.00103004 0.00043216 0.00149697 0.00048717    0.0337885 ----
   174   0   0   F    T  1.59D+00 0.00116918 0.00046456 0.00699204 0.00239353    0.0337883 ----
   175   0   0   F    F  1.50D-01 0.00116918 0.00046456 0.00104717 0.00035847    0.0337825 ----
   176   0   0   F    T  1.66D+00 0.00107908 0.00047411 0.00805509 0.00275200    0.0337824 ----
   177   0   0   F    F  4.23D-01 0.00107908 0.00047411 0.00340636 0.00116377    0.0337751 ----
   178   0   0   F    T  3.93D+00 0.00079201 0.00035348 0.01096495 0.00391578    0.0337744 ----
   179   0   0   F    F -3.43D-01 0.00079201 0.00035348 0.00375551 0.00134116    0.0337708 ----
   180   0   0   F    T  2.09D+00 0.00094809 0.00038585 0.00643046 0.00257462    0.0337695 ----
   181   0   0   F    F -6.36D-02 0.00094809 0.00038585 0.00040908 0.00016379    0.0337652 --++
   182   0   0   F    T  2.33D+00 0.00112470 0.00034304 0.00611063 0.00241083    0.0337652 ----
   183   0   0   F    F -4.34D-01 0.00112470 0.00034304 0.00265184 0.00104623    0.0337642 ----
   184   0   0   F    T  1.83D+00 0.00063719 0.00027919 0.00350015 0.00136460    0.0337628 ----
   185   0   0   F    F  2.97D-01 0.00063719 0.00027919 0.00103814 0.00040474    0.0337602 ----
   186   0   0   F    T  2.22D+00 0.00054535 0.00027877 0.00379914 0.00176934    0.0337601 ----
   187   0   0   F    F  5.03D-01 0.00054535 0.00027877 0.00191272 0.00089079    0.0337566 ----
   188   0   0   F    T  2.71D+00 0.00067568 0.00029897 0.00614583 0.00266013    0.0337562 ----
   189   0   0   F    F -3.37D-01 0.00067568 0.00029897 0.00207032 0.00089611    0.0337544 ----
   190   0   0   F    T  2.21D+00 0.00062852 0.00026226 0.00401139 0.00176402    0.0337538 ----
   191   0   0   F    F -1.30D-01 0.00062852 0.00026226 0.00052173 0.00022943    0.0337518 ---+
   192   0   0   F    T  1.22D+00 0.00077383 0.00032444 0.00382826 0.00153459    0.0337518 ----
   193   0   0   F    F  1.14D+00 0.00077383 0.00032444 0.00434601 0.00174214    0.0337489 ----
   194   0   0   F    T  3.28D+00 0.00056081 0.00027870 0.00854510 0.00327673    0.0337477 ----
   195   0   0   F    F -2.95D-01 0.00056081 0.00027870 0.00252105 0.00096673    0.0337455 ----
   196   0   0   F    T  2.06D+00 0.00074902 0.00028877 0.00649836 0.00231000    0.0337450 ----
   197   0   0   F    F  5.25D-01 0.00074902 0.00028877 0.00340887 0.00121177    0.0337416 ----
   198   0   0   F    T  1.78D+00 0.00091924 0.00038182 0.01011697 0.00352177    0.0337411 ----
   199   0   0   F    F -2.14D-01 0.00091924 0.00038182 0.00216488 0.00075361    0.0337383 ----
   200   0   0   F    T  2.52D+00 0.00075242 0.00027821 0.00826028 0.00276816    0.0337381 ----
   201   0   0   F    F -3.21D-01 0.00075242 0.00027821 0.00264927 0.00088782    0.0337365 ----
   202   0   0   F    T  1.97D+00 0.00063616 0.00025648 0.00603801 0.00188035    0.0337361 ----
   203   0   0   F    F  7.27D-01 0.00063616 0.00025648 0.00439112 0.00136748    0.0337333 ----
   204   0   0   F    T  3.52D+00 0.00050509 0.00025139 0.01059243 0.00324782    0.0337327 ----
   205   0   0   T    F  4.53D-01 0.00050509 0.00025139 0.00480069 0.00147197    0.0337334 ----
   206   0   0   F    T  2.09D+00 0.00049918 0.00021287 0.00464900 0.00147197    0.0337312 ----
   207   0   0   F    F -1.45D-01 0.00049918 0.00021287 0.00067567 0.00021393    0.0337300 ---+
   208   0   0   F    T  1.54D+00 0.00070046 0.00022453 0.00388820 0.00125804    0.0337300 ----
   209   0   0   F    F  3.04D-01 0.00070046 0.00022453 0.00118274 0.00038268    0.0337286 ----
   210   0   0   F    T  2.80D+00 0.00048273 0.00018752 0.00459998 0.00164072    0.0337285 ----
   211   0   0   F    F  7.74D-02 0.00048273 0.00018752 0.00035608 0.00012701    0.0337269 --++
   212   0   0   F    T  3.01D+00 0.00035904 0.00018356 0.00396589 0.00176773    0.0337269 ----
   213   0   0   F    F -4.57D-01 0.00035904 0.00018356 0.00181145 0.00080742    0.0337266 ----
   214   0   0   F    T  2.30D+00 0.00032067 0.00014901 0.00189734 0.00096030    0.0337261 ----
   215   0   0   F    F -2.48D-01 0.00032067 0.00014901 0.00047080 0.00023828    0.0337255 ---+
   216   0   0   F    T  1.53D+00 0.00043201 0.00015425 0.00163514 0.00072202    0.0337255 ----
   217   0   0   F    T  4.69D+00 0.00022084 0.00009507 0.00185156 0.00072202    0.0337249 ----
   218   0   0   F    F -4.99D-01 0.00022084 0.00009507 0.00092346 0.00036011    0.0337249 ----
   219   0   0   F    T  1.76D+00 0.00026702 0.00009764 0.00085468 0.00036191    0.0337245 ----
   220   0   0   F    F  1.57D+00 0.00026702 0.00009764 0.00134533 0.00056968    0.0337241 ----
   221   0   0   F    T  3.91D+00 0.00027609 0.00010902 0.00218043 0.00093159    0.0337239 ----
   222   0   0   T    F  3.80D-01 0.00027609 0.00010902 0.00082797 0.00035375    0.0337243 ----
   223   0   0   F    T  1.77D+00 0.00023846 0.00009398 0.00093633 0.00035375    0.0337236 ----
   224   0   0   F    T  1.18D+00 0.00033943 0.00011112 0.00099359 0.00035375    0.0337234 ----
   225   0   0   F    F  3.02D+00 0.00033943 0.00011112 0.00300395 0.00106952    0.0337230 ----
   226   0   0   F    T  4.58D+00 0.00026012 0.00010724 0.00386678 0.00142327    0.0337225 ----
   227   0   0   T    F  3.73D-01 0.00026012 0.00010724 0.00144135 0.00053053    0.0337230 ----
   228   0   0   F    T  2.53D+00 0.00017398 0.00008474 0.00112781 0.00053053    0.0337222 ----
   229   0   0   F    T  1.78D+00 0.00028181 0.00009650 0.00108668 0.00053053    0.0337219 ----
   230   0   0   F    T  1.21D+00 0.00032152 0.00010667 0.00115785 0.00053053    0.0337218 ----
   231   0   0   F    T  6.17D+00 0.00023019 0.00008582 0.00137901 0.00053053    0.0337217 ----
   232   0   0   T    T  1.00D+00 0.00158219 0.00051855 0.00158219 0.00051855    0.0337238 ----
   233   0   0   T    F  5.00D-01 0.00158219 0.00051855 0.00079109 0.00025928    0.0337298 ---+
   234   0   0   T    F  5.00D-01 0.00158219 0.00051855 0.00039555 0.00012964    0.0337239 --++
   235   0   0   T    F  5.00D-01 0.00158219 0.00051855 0.00019777 0.00006482    0.0337224 --++
   236   0   0   T    F  5.00D-01 0.00158219 0.00051855 0.00009889 0.00003241    0.0337219 --++
   237   0   0   T    F  5.00D-01 0.00158219 0.00051855 0.00004944 0.00001620    0.0337218 --++
   238   0   0   T    F  5.00D-01 0.00158219 0.00051855 0.00002472 0.00000810    0.0337217 --++
   239   0   0   T    F  5.00D-01 0.00158219 0.00051855 0.00001236 0.00000405    0.0337217 --++
   240   0   0   T    F  5.00D-01 0.00158219 0.00051855 0.00000618 0.00000203    0.0337217 --++
   241   0   0   T    F  5.00D-01 0.00158219 0.00051855 0.00000309 0.00000101    0.0337217 --++
   242   0   0   T    F  5.00D-01 0.00158219 0.00051855 0.00000155 0.00000051    0.0337217 --++
   243   0   0   T    F  5.00D-01 0.00158219 0.00051855 0.00000077 0.00000025    0.0337217 --++
   244   0   0   T    T  1.00D+00 0.00023146 0.00008609 0.00016711 0.00006221    0.0337217 --++
   245   0   0   F    F  1.89D+00 0.00023146 0.00008609 0.00031630 0.00011774    0.0337216 --++
   246   0   0   F    T  1.60D+00 0.00036031 0.00010903 0.00049900 0.00017995    0.0337215 ---+
   247   0   0   T    T  1.00D+00 0.00058354 0.00016039 0.00058354 0.00016039    0.0337216 ---+
   248   0   0   T    F  5.00D-01 0.00058354 0.00016039 0.00029177 0.00008020    0.0337227 --++
   249   0   0   T    F  5.00D-01 0.00058354 0.00016039 0.00014588 0.00004010    0.0337219 --++
   250   0   0   T    F  5.00D-01 0.00058354 0.00016039 0.00007294 0.00002005    0.0337217 --++
   251   0   0   T    F  5.00D-01 0.00058354 0.00016039 0.00003647 0.00001002    0.0337216 --++
   252   0   0   T    F  5.00D-01 0.00058354 0.00016039 0.00001824 0.00000501    0.0337215 --++
   253   0   0   T    F  5.00D-01 0.00058354 0.00016039 0.00000912 0.00000251    0.0337215 --++
   254   0   0   T    F  5.00D-01 0.00058354 0.00016039 0.00000456 0.00000125    0.0337215 --++
   255   0   0   T    F  5.00D-01 0.00058354 0.00016039 0.00000228 0.00000063    0.0337215 --++
   256   0   0   T    F  5.00D-01 0.00058354 0.00016039 0.00000114 0.00000031    0.0337215 --++
   257   0   0   T    F  5.00D-01 0.00058354 0.00016039 0.00000057 0.00000016    0.0337215 --++
   258   0   0   T    T  1.00D+00 0.00036139 0.00010931 0.00012980 0.00004782    0.0337215 --++
   259   0   0   F    F  3.54D+00 0.00036139 0.00010931 0.00045929 0.00016919    0.0337215 ---+
   260   0   0   F    T  3.28D+00 0.00018177 0.00006989 0.00055987 0.00021701    0.0337214 -+-+
   261   0   0   T    T  1.00D+00 0.00035106 0.00013071 0.00035106 0.00013071    0.0337214 --++
   262   0   0   T    F  5.00D-01 0.00035106 0.00013071 0.00017553 0.00006535    0.0337219 --++
   263   0   0   T    F  5.00D-01 0.00035106 0.00013071 0.00008777 0.00003268    0.0337216 --++
   264   0   0   T    F  5.00D-01 0.00035106 0.00013071 0.00004388 0.00001634    0.0337214 --++
   265   0   0   T    F  5.00D-01 0.00035106 0.00013071 0.00002194 0.00000817    0.0337214 --++
   266   0   0   T    F  5.00D-01 0.00035106 0.00013071 0.00001097 0.00000408    0.0337214 --++
   267   0   0   T    F  5.00D-01 0.00035106 0.00013071 0.00000549 0.00000204    0.0337214 --++
   268   0   0   T    F  5.00D-01 0.00035106 0.00013071 0.00000274 0.00000102    0.0337214 --++
   269   0   0   T    F  5.00D-01 0.00035106 0.00013071 0.00000137 0.00000051    0.0337214 --++
   270   0   0   T    F  5.00D-01 0.00035106 0.00013071 0.00000069 0.00000026    0.0337214 --++
   271   0   0   T    T  1.00D+00 0.00018274 0.00007015 0.00009526 0.00003891    0.0337214 -+++
   272   0   0   F    T  1.00D+00 0.00019866 0.00006965 0.00019468 0.00006866    0.0337213 -+++
   273   0   0   F    T  1.27D+00 0.00018031 0.00004636 0.00017872 0.00006866    0.0337213 -+++
   274   0   0   F    T  1.50D+00 0.00008292 0.00004331 0.00015943 0.00006866    0.0337212 ====
 ****************************
 MOLECULAR MECHANICS FUNCTION
 ****************************
 Atomic parameters:
 Center  VDW
      1 1.9080 0.0860000
      2 1.7210 0.2104000
      3 1.9080 0.1094000
      4 1.4870 0.0157000
      5 1.4870 0.0157000
      6 1.8750 0.1700000
      7 0.6000 0.0157000
      8 0.6000 0.0157000
      9 1.6612 0.2100000
     10 0.0000 0.0000000
 Molecular mechanics terms:
 NBDir 3 1      0      0
 HrmStr1  1- 2  431.53 1.3510
 HrmStr1  1- 3  294.15 1.5090
 HrmStr1  1- 9  946.08 1.2030
 HrmStr1  2-10  566.76 0.9680
 HrmStr1  3- 4  358.05 1.0960
 HrmStr1  3- 5  358.05 1.0960
 HrmStr1  3- 6  380.82 1.4520
 HrmStr1  6- 7  506.01 1.0110
 HrmStr1  6- 8  506.01 1.0110
 HrmBnd1  1- 2-10  56.55 107.23
 HrmBnd1  1- 3- 4  46.41 106.89
 HrmBnd1  1- 3- 5  46.41 106.89
 HrmBnd1  1- 3- 6  59.93 110.61
 HrmBnd1  2- 1- 3  67.92 111.72
 HrmBnd1  2- 1- 9  91.40 123.02
 HrmBnd1  3- 1- 9  62.83 125.24
 HrmBnd1  3- 6- 7  52.60 110.71
 HrmBnd1  3- 6- 8  52.60 110.71
 HrmBnd1  4- 3- 5  44.68 106.22
 HrmBnd1  4- 3- 6  52.45 112.94
 HrmBnd1  5- 3- 6  52.45 112.94
 HrmBnd1  7- 6- 8  47.09 108.63
 AmbTrs  3- 1- 2-10   0 180   0   0  0.0000 14.5000  0.0000  0.0000  2.0
 AmbTrs  9- 1- 2-10   0   0   0   0  0.0000  0.0000  0.0000  0.0000  2.0
 AmbTrs  2- 1- 3- 4   0   0   0   0  0.0000 14.5000  0.0000  0.0000  6.0
 AmbTrs  2- 1- 3- 5   0   0   0   0  0.0000 14.5000  0.0000  0.0000  6.0
 AmbTrs  2- 1- 3- 6   0   0   0   0  0.0000 14.5000  0.0000  0.0000  6.0
 AmbTrs  9- 1- 3- 4   0   0   0   0  0.0000 14.5000  0.0000  0.0000  6.0
 AmbTrs  9- 1- 3- 5   0   0   0   0  0.0000 14.5000  0.0000  0.0000  6.0
 AmbTrs  9- 1- 3- 6   0   0   0   0  0.0000 14.5000  0.0000  0.0000  6.0
 AmbTrs  1- 3- 6- 7   0 180   0   0  0.0000 25.6300  0.0000  0.0000  6.0
 AmbTrs  1- 3- 6- 8   0 180   0   0  0.0000 25.6300  0.0000  0.0000  6.0
 AmbTrs  4- 3- 6- 7   0   0   0   0  0.0000 16.9300  0.0000  0.0000  6.0
 AmbTrs  4- 3- 6- 8   0   0   0   0  0.0000 16.9300  0.0000  0.0000  6.0
 AmbTrs  5- 3- 6- 7   0   0   0   0  0.0000 16.9300  0.0000  0.0000  6.0
 AmbTrs  5- 3- 6- 8   0   0   0   0  0.0000 16.9300  0.0000  0.0000  6.0
 NBPair  2- 1 3 1      0      0 -1.000 -1.000
 NBPair  3- 2 3 1      0      0 -1.000 -1.000
 NBPair 10- 3 3 1      0      0 -0.500 -0.167
 NBPair  9- 2 3 1      0      0 -1.000 -1.000
 NBPair 10- 9 3 1      0      0 -0.500 -0.167
 NBPair  3- 1 3 1      0      0 -1.000 -1.000
 NBPair  4- 2 3 1      0      0 -0.500 -0.167
 NBPair  5- 2 3 1      0      0 -0.500 -0.167
 NBPair  6- 2 3 1      0      0 -0.500 -0.167
 NBPair  9- 3 3 1      0      0 -1.000 -1.000
 NBPair  9- 4 3 1      0      0 -0.500 -0.167
 NBPair  9- 5 3 1      0      0 -0.500 -0.167
 NBPair  9- 6 3 1      0      0 -0.500 -0.167
 NBPair  9- 1 3 1      0      0 -1.000 -1.000
 NBPair 10- 1 3 1      0      0 -1.000 -1.000
 NBPair 10- 2 3 1      0      0 -1.000 -1.000
 NBPair  4- 1 3 1      0      0 -1.000 -1.000
 NBPair  5- 1 3 1      0      0 -1.000 -1.000
 NBPair  6- 1 3 1      0      0 -1.000 -1.000
 NBPair  4- 3 3 1      0      0 -1.000 -1.000
 NBPair  5- 4 3 1      0      0 -1.000 -1.000
 NBPair  6- 4 3 1      0      0 -1.000 -1.000
 NBPair  5- 3 3 1      0      0 -1.000 -1.000
 NBPair  6- 5 3 1      0      0 -1.000 -1.000
 NBPair  6- 3 3 1      0      0 -1.000 -1.000
 NBPair  7- 1 3 1      0      0 -0.500 -0.167
 NBPair  8- 1 3 1      0      0 -0.500 -0.167
 NBPair  7- 4 3 1      0      0 -0.500 -0.167
 NBPair  8- 4 3 1      0      0 -0.500 -0.167
 NBPair  7- 5 3 1      0      0 -0.500 -0.167
 NBPair  8- 5 3 1      0      0 -0.500 -0.167
 NBPair  7- 3 3 1      0      0 -1.000 -1.000
 NBPair  8- 3 3 1      0      0 -1.000 -1.000
 NBPair  7- 6 3 1      0      0 -1.000 -1.000
 NBPair  8- 7 3 1      0      0 -1.000 -1.000
 NBPair  8- 6 3 1      0      0 -1.000 -1.000
 Energy per function type:
 Direct Coulomb + vdW (small)                           0.001969304
 Direct Coulomb (large)                                -0.132410114
 Direct vdW (large)                                   270.311021895
 Non-direct Coulomb + vdW (small)                      -0.011335409
 Non-direct Coulomb (large)                             0.138456534
 Non-direct vdW (large)                              -270.311021895
 Harmonic stretch I                                     0.000072679
 Harmonic bend I                                        0.008499038
 Amber torsion                                          0.028469218
 Energy per function class:
        Coulomb              -0.004195644
    Vanderwaals               0.000875958
     Stretching               0.000072679
        Bending               0.008499038
        Torsion               0.028469218
 Energy=    3.372124812E-02 NIter=   0.
 Dipole moment=       0.321549       0.427963       0.093274
 Leave Link  402 at Wed Nov 29 12:05:29 2023, MaxMem=   134217728 cpu:               0.4 elap:               0.4
 (Enter /home/emanuele/chem_software/gaussian//gdv/l716.exe)
 Dipole        = 3.21548816D-01 4.27963038D-01 9.32735434D-02
 -------------------------------------------------------------------
 Center     Atomic                   Forces (Hartrees/Bohr)
 Number     Number              X              Y              Z
 -------------------------------------------------------------------
      1        6          -0.000082918   -0.000053166   -0.000081792
      2        8          -0.000079230   -0.000062492    0.000023632
      3        6           0.000060005    0.000052626    0.000009096
      4        1          -0.000024842   -0.000028811   -0.000011875
      5        1          -0.000009413   -0.000003173   -0.000011564
      6        7          -0.000007121    0.000022691    0.000041418
      7        1           0.000007112    0.000011461   -0.000042062
      8        1           0.000026596   -0.000044763    0.000020296
      9        8           0.000050338    0.000066336    0.000033353
     10        1           0.000059472    0.000039291    0.000019498
 -------------------------------------------------------------------
 Cartesian Forces:  Max     0.000082918 RMS     0.000043309
 Z-matrix is all fixed cartesians, so copy forces.
 Leave Link  716 at Wed Nov 29 12:05:29 2023, MaxMem=   134217728 cpu:               0.0 elap:               0.0
 (Enter /home/emanuele/chem_software/gaussian//gdv/l103.exe)

 GradGradGradGradGradGradGradGradGradGradGradGradGradGradGradGradGradGrad
 Berny optimization.
 Search for a local minimum.
 Step number   1 out of a maximum of    2
 All quantities printed in internal units (Hartrees-Bohrs-Radians)
 RMS Force = .43309D-04 SwitMx=.10000D-02 MixMth= 2
 Mixed Optimization -- En-DIIS/RFO-DIIS
 Second derivative matrix not updated -- unit matrix used.
 ITU=  0
 RFO step:  Lambda=-5.62694171D-08 EMin= 1.00000000D+00
 Linear search not attempted -- first point.
 Variable       Old X    -DE/DX   Delta X   Delta X   Delta X     New X
                                 (Linear)    (Quad)   (Total)
    X1       -1.17741  -0.00008   0.00000  -0.00008  -0.00008  -1.17750
    Y1       -0.74923  -0.00005   0.00000  -0.00005  -0.00005  -0.74928
    Z1        0.28692  -0.00008   0.00000  -0.00008  -0.00008   0.28683
    X2       -2.19462  -0.00008   0.00000  -0.00008  -0.00008  -2.19470
    Y2        1.01778  -0.00006   0.00000  -0.00006  -0.00006   1.01772
    Z2       -1.24266   0.00002   0.00000   0.00002   0.00002  -1.24264
    X3        1.40768   0.00006   0.00000   0.00006   0.00006   1.40774
    Y3       -0.00600   0.00005   0.00000   0.00005   0.00005  -0.00595
    Z3        1.28382   0.00001   0.00000   0.00001   0.00001   1.28383
    X4        1.21783  -0.00002   0.00000  -0.00002  -0.00002   1.21780
    Y4        2.00657  -0.00003   0.00000  -0.00003  -0.00003   2.00654
    Z4        1.74257  -0.00001   0.00000  -0.00001  -0.00001   1.74256
    X5        1.50108  -0.00001   0.00000  -0.00001  -0.00001   1.50107
    Y5       -1.00071  -0.00000   0.00000  -0.00000  -0.00000  -1.00072
    Z5        3.09937  -0.00001   0.00000  -0.00001  -0.00001   3.09935
    X6        3.37998  -0.00001   0.00000  -0.00001  -0.00001   3.37997
    Y6       -0.67091   0.00002   0.00000   0.00002   0.00002  -0.67088
    Z6       -0.52403   0.00004   0.00000   0.00004   0.00004  -0.52399
    X7        2.92686   0.00001   0.00000   0.00001   0.00001   2.92686
    Y7       -1.53926   0.00001   0.00000   0.00001   0.00001  -1.53924
    Z7       -2.16611  -0.00004   0.00000  -0.00004  -0.00004  -2.16615
    X8        5.21940   0.00003   0.00000   0.00003   0.00003   5.21942
    Y8       -0.35227  -0.00004   0.00000  -0.00004  -0.00004  -0.35232
    Z8       -0.11461   0.00002   0.00000   0.00002   0.00002  -0.11459
    X9       -2.26635   0.00005   0.00000   0.00005   0.00005  -2.26630
    Y9       -2.68407   0.00007   0.00000   0.00007   0.00007  -2.68401
    Z9        0.76781   0.00003   0.00000   0.00003   0.00003   0.76784
   X10       -3.81232   0.00006   0.00000   0.00006   0.00006  -3.81226
   Y10        0.34306   0.00004   0.00000   0.00004   0.00004   0.34310
   Z10       -1.76312   0.00002   0.00000   0.00002   0.00002  -1.76310
         Item               Value     Threshold  Converged?
 Maximum Force            0.000083     0.000450     YES
 RMS     Force            0.000043     0.000300     YES
 Maximum Displacement     0.000083     0.001800     YES
 RMS     Displacement     0.000043     0.001200     YES
 Predicted change in Energy=-2.813471D-08
 Optimization completed.
    -- Stationary point found.
 Largest change from initial coordinates is atom    8       0.675 Angstoms.
 GradGradGradGradGradGradGradGradGradGradGradGradGradGradGradGradGradGrad

 Leave Link  103 at Wed Nov 29 12:05:29 2023, MaxMem=   134217728 cpu:               0.0 elap:               0.0
 (Enter /home/emanuele/chem_software/gaussian//gdv/l202.exe)
                          Input orientation:                          
 ---------------------------------------------------------------------
 Center     Atomic      Atomic             Coordinates (Angstroms)
 Number     Number       Type             X           Y           Z
 ---------------------------------------------------------------------
      1          6    20001002       -0.623061   -0.396475    0.151830
      2          8    20001022       -1.161341    0.538585   -0.657587
      3          6    20001001        0.744913   -0.003176    0.679368
      4          1    20001034        0.644447    1.061829    0.922129
      5          1    20001034        0.794339   -0.529555    1.640114
      6          7    20001020        1.788608   -0.355028   -0.277307
      7          1    20001029        1.548825   -0.814539   -1.146254
      8          1    20001029        2.761986   -0.186415   -0.060648
      9          8    20001025       -1.199299   -1.420351    0.406308
     10          1    20001031       -2.017392    0.181538   -0.933000
 ---------------------------------------------------------------------
                    Distance matrix (angstroms):
                    1          2          3          4          5
     1  C    0.000000
     2  O    1.348791   0.000000
     3  C    1.518003   2.390557   0.000000
     4  H    2.080045   2.455638   1.096934   0.000000
     5  H    2.059544   3.200787   1.096608   1.752277   0.000000
     6  N    2.449902   3.105698   1.458878   2.180650   2.166917
     7  H    2.564545   3.068346   2.153481   2.935450   2.900743
     8  H    3.398208   4.034162   2.156336   2.647251   2.623351
     9  O    1.202137   2.229516   2.421344   3.134755   2.508065
    10  H    1.858794   0.967553   3.203777   3.361816   3.877164
                    6          7          8          9         10
     6  N    0.000000
     7  H    1.011788   0.000000
     8  H    1.011354   1.744947   0.000000
     9  O    3.244970   3.213977   4.175216   0.000000
    10  H    3.899163   3.708848   4.872253   2.242559   0.000000
 Symmetry turned off by external request.
 Stoichiometry    C2H5NO2
 Framework group  C1[X(C2H5NO2)]
 Deg. of freedom    24
 Full point group                 C1      NOp   1
 Rotational constants (GHZ):           8.9694069           3.8930726           3.1904318
 Leave Link  202 at Wed Nov 29 12:05:29 2023, MaxMem=   134217728 cpu:               0.0 elap:               0.0
 (Enter /home/emanuele/chem_software/gaussian//gdv/l9999.exe)
 Unable to Open any file for archive entry.
 1\1\GINC-EMANUELE-XPS-13-9343\FOpt\AMBER\ZDO\C2H5N1O2\EMANUELE\29-Nov-
 2023\0\\#p Amber=(SoftFirst,Print) geom=nocrowd nosymm opt=(maxcycle=3
 00)\\Title\\0,1\C,-0.6230609855,-0.3964745061,0.1518296344\O,-1.161341
 4562,0.5385851264,-0.6575867722\C,0.7449134637,-0.0031762993,0.6793682
 123\H,0.6444468233,1.0618292032,0.9221291425\H,0.7943392883,-0.5295552
 145,1.640113577\N,1.7886077928,-0.355028311,-0.2773068856\H,1.54882531
 5,-0.8145390078,-1.1462544636\H,2.7619863043,-0.1864151133,-0.06064812
 84\O,-1.1992993276,-1.4203508139,0.4063080318\H,-2.0173922181,0.181537
 9361,-0.9330003483\\Version=ES64L-GDVRevJ.14\HF=0.0337212\RMSD=0.000e+
 00\RMSF=4.331e-05\Dipole=0.3215488,0.427963,0.0932735\PG=C01 [X(C2H5N1
 O2)]\\@
 The archive entry for this job was punched.


 ASKING DUMB QUESTIONS IS EASIER THAN CORECTING DUMB MISTAKES.
 Job cpu time:       0 days  0 hours  0 minutes  1.0 seconds.
 Elapsed time:       0 days  0 hours  0 minutes  0.9 seconds.
 File lengths (MBytes):  RWF=      6 Int=      0 D2E=      0 Chk=      1 Scr=      1
 Normal termination of Gaussian DV at Wed Nov 29 12:05:29 2023.
