 Entering Gaussian System, Link 0=/home/emanuele/chem_software/gaussian//g09/g09
 Input=1_qm.gjf
 Output=1_qm.log
 Initial command:
 /home/emanuele/chem_software/gaussian//gdv/l1.exe "/home/emanuele/chem_software/gaussian/scratch/Gau-10364.inp" -scrdir="/home/emanuele/chem_software/gaussian/scratch/"
 Entering Link 1 = /home/emanuele/chem_software/gaussian//gdv/l1.exe PID=     10366.
  
 Copyright (c) 1988-2020, Gaussian, Inc.  All Rights Reserved.
  
 This is the private, development version of
 the Gaussian(R) DV system of programs. It is based on
 the Gaussian(R) 16 system (copyright 2016, Gaussian, Inc.),
 the Gaussian(R) 09 system (copyright 2009, Gaussian, Inc.),
 the Gaussian(R) 03 system (copyright 2003, Gaussian, Inc.),
 the Gaussian(R) 98 system (copyright 1998, Gaussian, Inc.),
 the Gaussian(R) 94 system (copyright 1995, Gaussian, Inc.),
 the Gaussian 92(TM) system (copyright 1992, Gaussian, Inc.),
 the Gaussian 90(TM) system (copyright 1990, Gaussian, Inc.),
 the Gaussian 88(TM) system (copyright 1988, Gaussian, Inc.),
 the Gaussian 86(TM) system (copyright 1986, Carnegie Mellon
 University), and the Gaussian 82(TM) system (copyright 1983,
 Carnegie Mellon University). Gaussian is a federally registered
 trademark of Gaussian, Inc.
  
 This software contains proprietary and confidential information,
 including trade secrets, belonging to Gaussian, Inc.
  
 This software is provided under written license and may be
 used, copied, transmitted, or stored only in accord with that
 written license.
  
 The following legend is applicable only to US Government
 contracts under FAR:
  
                    RESTRICTED RIGHTS LEGEND
  
 Use, reproduction and disclosure by the US Government is
 subject to restrictions as set forth in subparagraphs (a)
 and (c) of the Commercial Computer Software - Restricted
 Rights clause in FAR 52.227-19.
  
 Gaussian, Inc.
 340 Quinnipiac St., Bldg. 40, Wallingford CT 06492
  
  
 ---------------------------------------------------------------
 Warning -- This program may not be used in any manner that
 competes with the business of Gaussian, Inc. or will provide
 assistance to any competitor of Gaussian, Inc.  The licensee
 of this program is prohibited from giving any competitor of
 Gaussian, Inc. access to this program.  By using this program,
 the user acknowledges that Gaussian, Inc. is engaged in the
 business of creating and licensing software in the field of
 computational chemistry and represents and warrants to the
 licensee that it is not a competitor of Gaussian, Inc. and that
 it will not use this program in any manner prohibited above.
 ---------------------------------------------------------------
  

 Cite this work as:
 Gaussian Development Version, Revision J.14,
 M. J. Frisch, G. W. Trucks, H. B. Schlegel, G. E. Scuseria, 
 M. A. Robb, J. R. Cheeseman, G. Scalmani, V. Barone, 
 G. A. Petersson, H. Nakatsuji, X. Li, A. V. Marenich, M. Caricato, 
 J. Bloino, B. G. Janesko, J. Zheng, R. Gomperts, B. Mennucci, 
 H. P. Hratchian, J. V. Ortiz, A. F. Izmaylov, J. L. Sonnenberg, 
 D. Williams-Young, F. Ding, F. Lipparini, F. Egidi, J. Goings, 
 B. Peng, A. Petrone, T. Henderson, D. Ranasinghe, V. G. Zakrzewski, 
 J. Gao, N. Rega, G. Zheng, W. Liang, M. Hada, M. Ehara, K. Toyota, 
 R. Fukuda, J. Hasegawa, M. Ishida, T. Nakajima, Y. Honda, O. Kitao, 
 H. Nakai, T. Vreven, K. Throssell, J. A. Montgomery, Jr., 
 J. E. Peralta, F. Ogliaro, M. J. Bearpark, J. J. Heyd, 
 E. N. Brothers, K. N. Kudin, V. N. Staroverov, T. A. Keith, 
 R. Kobayashi, J. Normand, K. Raghavachari, A. P. Rendell, 
 J. C. Burant, S. S. Iyengar, J. Tomasi, M. Cossi, J. M. Millam, 
 M. Klene, C. Adamo, R. Cammi, J. W. Ochterski, R. L. Martin, 
 K. Morokuma, O. Farkas, J. B. Foresman, and D. J. Fox, 
 Gaussian, Inc., Wallingford CT, 2020.
 
 ******************************************
 Gaussian DV:  ES64L-GDVRevJ.14 29-Dec-2020
                 1-Jan-2024 
 ******************************************
 %mem=1GB
 %nprocshared=4
 Will use up to    4 processors via shared memory.
 %chk=1_qm.chk
 -------------------------------------------------------------------
 #p nosymm geom=nocrowd opt=(modredundant,maxcycle=100) PBEPBE/6-31G
 -------------------------------------------------------------------
 1/6=100,18=120,19=15,26=3,37=210000000,38=1/1,3;
 2/9=110,12=1,15=1,40=1/2;
 3/5=1,6=6,11=2,25=1,30=1,71=1,74=10009/1,2,3;
 4//1;
 5/5=2,38=5/2;
 6/7=2,8=2,9=2,10=2,28=1/1;
 7/30=1/1,2,3,16;
 1/6=100,18=20,19=15,26=3/3(2);
 2/9=110,12=1,15=1/2;
 99//99;
 2/9=110,12=1,15=1/2;
 3/5=1,6=6,11=2,25=1,30=1,71=1,74=10009/1,2,3;
 4/5=5,16=3,69=1/1;
 5/5=2,38=5/2;
 7/30=1/1,2,3,16;
 1/6=100,18=20,19=15,26=3/3(-5);
 2/9=110,12=1,15=1/2;
 6/7=2,8=2,9=2,10=2,19=2,28=1/1;
 99/9=1/99;
 Leave Link    1 at Mon Jan  1 12:04:48 2024, MaxMem=   134217728 cpu:               0.2 elap:               0.1
 (Enter /home/emanuele/chem_software/gaussian//gdv/l101.exe)
 -----
 Title
 -----
 Symbolic Z-matrix:
 Charge =  0 Multiplicity = 1
 C                    -0.53685   0.10417   0.01464 
 O                    -1.63632  -0.67637  -0.06827 
 C                     0.72601  -0.7177    0.10528 
 H                     0.71699  -1.15712   1.11445 
 H                     0.64338  -1.5538   -0.59228 
 N                     1.88901   0.09773  -0.1951 
 H                     1.74816   1.04081   0.14593 
 H                     2.72354  -0.27843   0.23189 
 O                    -0.58681   1.30563   0.04628 
 H                    -2.40509  -0.08851  -0.07785 
 
 The following ModRedundant input section has been read:
 D       4       3       6       7 S  10 36.000                                
 
 ITRead=  0  0  0  0  0  0  0  0  0  0
 MicOpt= -1 -1 -1 -1 -1 -1 -1 -1 -1 -1
 NAtoms=     10 NQM=       10 NQMF=       0 NMMI=      0 NMMIF=      0
                NMic=       0 NMicF=      0.
                    Isotopes and Nuclear Properties:
 (Nuclear quadrupole moments (NQMom) in fm**2, nuclear magnetic moments (NMagM)
  in nuclear magnetons)

  Atom         1           2           3           4           5           6           7           8           9          10
 IAtWgt=          12          16          12           1           1          14           1           1          16           1
 AtmWgt=  12.0000000  15.9949146  12.0000000   1.0078250   1.0078250  14.0030740   1.0078250   1.0078250  15.9949146   1.0078250
 NucSpn=           0           0           0           1           1           2           1           1           0           1
 AtZEff=  -0.0000000  -0.0000000  -0.0000000  -0.0000000  -0.0000000  -0.0000000  -0.0000000  -0.0000000  -0.0000000  -0.0000000
 NQMom=    0.0000000   0.0000000   0.0000000   0.0000000   0.0000000   2.0440000   0.0000000   0.0000000   0.0000000   0.0000000
 NMagM=    0.0000000   0.0000000   0.0000000   2.7928460   2.7928460   0.4037610   2.7928460   2.7928460   0.0000000   2.7928460
 AtZNuc=   6.0000000   8.0000000   6.0000000   1.0000000   1.0000000   7.0000000   1.0000000   1.0000000   8.0000000   1.0000000
 Leave Link  101 at Mon Jan  1 12:04:49 2024, MaxMem=   134217728 cpu:               0.9 elap:               0.3
 (Enter /home/emanuele/chem_software/gaussian//gdv/l103.exe)

 GradGradGradGradGradGradGradGradGradGradGradGradGradGradGradGradGradGrad
 Berny optimization.
 Initialization pass.
                           ----------------------------
                           !    Initial Parameters    !
                           ! (Angstroms and Degrees)  !
 --------------------------                            --------------------------
 ! Name  Definition              Value          Derivative Info.                !
 --------------------------------------------------------------------------------
 ! R1    R(1,2)                  1.3509         estimate D2E/DX2                !
 ! R2    R(1,3)                  1.5095         estimate D2E/DX2                !
 ! R3    R(1,9)                  1.2029         estimate D2E/DX2                !
 ! R4    R(2,10)                 0.9678         estimate D2E/DX2                !
 ! R5    R(3,4)                  1.1007         estimate D2E/DX2                !
 ! R6    R(3,5)                  1.092          estimate D2E/DX2                !
 ! R7    R(3,6)                  1.4518         estimate D2E/DX2                !
 ! R8    R(6,7)                  1.0127         estimate D2E/DX2                !
 ! R9    R(6,8)                  1.0101         estimate D2E/DX2                !
 ! A1    A(2,1,3)              111.7154         estimate D2E/DX2                !
 ! A2    A(2,1,9)              123.0182         estimate D2E/DX2                !
 ! A3    A(3,1,9)              125.2388         estimate D2E/DX2                !
 ! A4    A(1,2,10)             107.2257         estimate D2E/DX2                !
 ! A5    A(1,3,4)              105.4003         estimate D2E/DX2                !
 ! A6    A(1,3,5)              108.3736         estimate D2E/DX2                !
 ! A7    A(1,3,6)              110.6071         estimate D2E/DX2                !
 ! A8    A(4,3,5)              106.2232         estimate D2E/DX2                !
 ! A9    A(4,3,6)              114.8648         estimate D2E/DX2                !
 ! A10   A(5,3,6)              111.0079         estimate D2E/DX2                !
 ! A11   A(3,6,7)              109.9968         estimate D2E/DX2                !
 ! A12   A(3,6,8)              111.4207         estimate D2E/DX2                !
 ! A13   A(7,6,8)              108.6253         estimate D2E/DX2                !
 ! D1    D(3,1,2,10)           177.195          estimate D2E/DX2                !
 ! D2    D(9,1,2,10)            -0.9857         estimate D2E/DX2                !
 ! D3    D(2,1,3,4)            -71.8288         estimate D2E/DX2                !
 ! D4    D(2,1,3,5)             41.552          estimate D2E/DX2                !
 ! D5    D(2,1,3,6)            163.4539         estimate D2E/DX2                !
 ! D6    D(9,1,3,4)            106.3034         estimate D2E/DX2                !
 ! D7    D(9,1,3,5)           -140.3158         estimate D2E/DX2                !
 ! D8    D(9,1,3,6)            -18.4139         estimate D2E/DX2                !
 ! D9    D(1,3,6,7)             34.6533         estimate D2E/DX2                !
 ! D10   D(1,3,6,8)            155.1742         estimate D2E/DX2                !
 ! D11   D(4,3,6,7)            -84.4877         Scan                            !
 ! D12   D(4,3,6,8)             36.0331         estimate D2E/DX2                !
 ! D13   D(5,3,6,7)            154.9936         estimate D2E/DX2                !
 ! D14   D(5,3,6,8)            -84.4855         estimate D2E/DX2                !
 --------------------------------------------------------------------------------
 Trust Radius=3.00D-01 FncErr=1.00D-07 GrdErr=1.00D-06 EigMax=2.50D+02 EigMin=1.00D-04
 Number of optimizations in scan=  11
 Number of steps in this run=    100 maximum allowed number of steps=    100.
 GradGradGradGradGradGradGradGradGradGradGradGradGradGradGradGradGradGrad

 Leave Link  103 at Mon Jan  1 12:04:49 2024, MaxMem=   134217728 cpu:               0.0 elap:               0.0
 (Enter /home/emanuele/chem_software/gaussian//gdv/l202.exe)
                          Input orientation:                          
 ---------------------------------------------------------------------
 Center     Atomic      Atomic             Coordinates (Angstroms)
 Number     Number       Type             X           Y           Z
 ---------------------------------------------------------------------
      1          6           0       -0.536850    0.104174    0.014636
      2          8           0       -1.636322   -0.676373   -0.068268
      3          6           0        0.726013   -0.717700    0.105280
      4          1           0        0.716994   -1.157121    1.114447
      5          1           0        0.643380   -1.553795   -0.592281
      6          7           0        1.889013    0.097733   -0.195097
      7          1           0        1.748159    1.040807    0.145925
      8          1           0        2.723536   -0.278432    0.231888
      9          8           0       -0.586810    1.305633    0.046275
     10          1           0       -2.405088   -0.088514   -0.077854
 ---------------------------------------------------------------------
                    Distance matrix (angstroms):
                    1          2          3          4          5
     1  C    0.000000
     2  O    1.350913   0.000000
     3  C    1.509475   2.369062   0.000000
     4  H    2.091070   2.677318   1.100723   0.000000
     5  H    2.123712   2.498299   1.092005   1.753764   0.000000
     6  N    2.434921   3.611553   1.451801   2.159443   2.106395
     7  H    2.473011   3.801223   2.034400   2.613852   2.915038
     8  H    3.289940   4.388258   2.049167   2.361613   2.575433
     9  O    1.202913   2.245650   2.412646   2.984301   3.177648
    10  H    1.880424   0.967818   3.198938   3.508689   3.421234
                    6          7          8          9         10
     6  N    0.000000
     7  H    1.012682   0.000000
     8  H    1.010072   1.642906   0.000000
     9  O    2.765318   2.352051   3.674521   0.000000
    10  H    4.299737   4.309861   5.141478   2.294600   0.000000
 Symmetry turned off by external request.
 Stoichiometry    C2H5NO2
 Framework group  C1[X(C2H5NO2)]
 Deg. of freedom    24
 Full point group                 C1      NOp   1
 Rotational constants (GHZ):          10.4489861           3.9571341           2.9518000
 Leave Link  202 at Mon Jan  1 12:04:49 2024, MaxMem=   134217728 cpu:               0.0 elap:               0.0
 (Enter /home/emanuele/chem_software/gaussian//gdv/l301.exe)
 Standard basis: 6-31G (6D, 7F)
 Ernie: Thresh=  0.10000D-02 Tol=  0.10000D-05 Strict=F.
    55 basis functions,   130 primitive gaussians,    55 cartesian basis functions
    20 alpha electrons       20 beta electrons
       nuclear repulsion energy       179.9791115102 Hartrees.
 IExCor=   10009 DFT=T Ex=PBE Corr=PBE N6=None ScaHFX=  0.000000
 ScaDFX=  1.000000  1.000000  1.000000  1.000000  1.000000  0.000000
 ScaDFX=  0.000000  0.000000  0.000000  0.000000  0.000000  0.000000
 IRadAn=      5 IRanWt=     -1 IRanGd=            0 ICorTp=0 IEmpDi=  4
 NAtoms=   10 NActive=   10 NUniq=   10 SFac= 1.00D+00 NAtFMM=   60 NAOKFM=F Big=F
 Integral buffers will be    131072 words long.
 Raffenetti 2 integral format.
 Two-electron integral symmetry is turned off.
 Leave Link  301 at Mon Jan  1 12:04:49 2024, MaxMem=   134217728 cpu:               0.2 elap:               0.1
 (Enter /home/emanuele/chem_software/gaussian//gdv/l302.exe)
 NPDir=0 NMtPBC=     1 NCelOv=     1 NCel=       1 NClECP=     1 NCelD=      1
         NCelK=      1 NCelE2=     1 NClLst=     1 CellRange=     0.0.
 One-electron integrals computed using PRISM.
 NBasis=    55 RedAO= T EigKep=  5.66D-03  NBF=    55
 NBsUse=    55 1.00D-06 EigRej= -1.00D+00 NBFU=    55
 Precomputing XC quadrature grid using
 IXCGrd= 4 IRadAn=           5 IRanWt=          -1 IRanGd=           0 AccXCQ= 0.00D+00.
 Generated NRdTot=       0 NPtTot=      218924 NUsed=           0 NTot=          64
 NSgBfM=    55    55    55    55    55 MxSgAt=    10 MxSgA2=    10 SizInc=   0.000
 NMBTot=     1903 MaxBatPerAtom=       84 MaxMicBPerAtom=      198.
 Leave Link  302 at Mon Jan  1 12:04:49 2024, MaxMem=   134217728 cpu:               0.6 elap:               0.2
 (Enter /home/emanuele/chem_software/gaussian//gdv/l303.exe)
 DipDrv:  MaxL=1.
 Leave Link  303 at Mon Jan  1 12:04:49 2024, MaxMem=   134217728 cpu:               0.1 elap:               0.0
 (Enter /home/emanuele/chem_software/gaussian//gdv/l401.exe)
 ExpMin= 1.61D-01 ExpMax= 5.48D+03 ExpMxC= 8.25D+02 IAcc=3 IRadAn=         5 AccDes= 0.00D+00
 Harris functional with IExCor=10009 and IRadAn=       5 diagonalized for initial guess.
 HarFok:  IExCor=   10009 AccDes= 0.00D+00 IRadAn=         5 IDoV= 1 UseB2=F ITyADJ=14 ICtDFT=  3500011
 FoFCou: FMM=F IPFlag=           0 FMFlag=      100000 FMFlg1=           0
         NFxFlg=           0 DoJE=T BraDBF=F KetDBF=T FulRan=T
         wScrn=  0.000000 ICntrl=       500 IOpCl=  0 I1Cent=   200000004 NGrid=           0
         NMat0=    1 NMatS0=      1 NMatT0=    0 NMatD0=    1 NMtDS0=    0 NMtDT0=    0
 Symmetry not used in FoFCou.
 Harris En= -284.094167280963    
 JPrj=0 DoOrth=F DoCkMO=F.
 Leave Link  401 at Mon Jan  1 12:04:49 2024, MaxMem=   134217728 cpu:               2.2 elap:               0.6
 (Enter /home/emanuele/chem_software/gaussian//gdv/l502.exe)
 Keep J ints in memory in canonical form, NReq=4700713.
 FoFCou: FMM=F IPFlag=           0 FMFlag=           0 FMFlg1=           0
         NFxFlg=           0 DoJE=F BraDBF=F KetDBF=F FulRan=T
         wScrn=  0.000000 ICntrl=       600 IOpCl=  0 I1Cent=           0 NGrid=           0
         NMat0=    1 NMatS0=   1540 NMatT0=    0 NMatD0=    1 NMtDS0=    0 NMtDT0=    0
 Symmetry not used in FoFCou.
 Two-electron integral symmetry not used.
 Closed shell SCF:
 Using DIIS extrapolation, IDIIS=  1040.
 NGot=   134217728 LenX=   133023731 LenY=   133020265
 Requested convergence on RMS density matrix=1.00D-08 within 128 cycles.
 Requested convergence on MAX density matrix=1.00D-06.
 Requested convergence on             energy=1.00D-06.
 No special actions if energy rises.
 Integral accuracy reduced to 1.0D-05 until final iterations.

 Cycle   1  Pass 0  IDiag  1:
 E= -283.851103811744    
 DIIS: error= 4.55D-02 at cycle   1 NSaved=   1.
 NSaved= 1 IEnMin= 1 EnMin= -283.851103811744     IErMin= 1 ErrMin= 4.55D-02
 ErrMax= 4.55D-02  0.00D+00 EMaxC= 1.00D-01 BMatC= 1.73D-01 BMatP= 1.73D-01
 IDIUse=3 WtCom= 5.45D-01 WtEn= 4.55D-01
 Coeff-Com:  0.100D+01
 Coeff-En:   0.100D+01
 Coeff:      0.100D+01
 Gap=     0.036 Goal=   None    Shift=    0.000
 GapD=    0.036 DampG=0.250 DampE=0.500 DampFc=0.2500 IDamp=-1.
 Damping current iteration by 2.50D-01
 RMSDP=2.37D-02 MaxDP=2.45D-01              OVMax= 2.91D-01

 Cycle   2  Pass 0  IDiag  1:
 E= -283.901317743675     Delta-E=       -0.050213931931 Rises=F Damp=T
 DIIS: error= 1.71D-02 at cycle   2 NSaved=   2.
 NSaved= 2 IEnMin= 2 EnMin= -283.901317743675     IErMin= 2 ErrMin= 1.71D-02
 ErrMax= 1.71D-02  0.00D+00 EMaxC= 1.00D-01 BMatC= 1.74D-02 BMatP= 1.73D-01
 IDIUse=3 WtCom= 8.29D-01 WtEn= 1.71D-01
 Coeff-Com: -0.251D+00 0.125D+01
 Coeff-En:   0.881D-01 0.912D+00
 Coeff:     -0.193D+00 0.119D+01
 Gap=     0.085 Goal=   None    Shift=    0.000
 RMSDP=6.36D-03 MaxDP=6.77D-02 DE=-5.02D-02 OVMax= 2.42D-01

 Cycle   3  Pass 0  IDiag  1:
 E= -283.949667404942     Delta-E=       -0.048349661267 Rises=F Damp=F
 DIIS: error= 3.63D-02 at cycle   3 NSaved=   3.
 NSaved= 3 IEnMin= 3 EnMin= -283.949667404942     IErMin= 2 ErrMin= 1.71D-02
 ErrMax= 3.63D-02  0.00D+00 EMaxC= 1.00D-01 BMatC= 6.47D-02 BMatP= 1.74D-02
 IDIUse=2 WtCom= 0.00D+00 WtEn= 1.00D+00
 EnCoef did     7 forward-backward iterations
 Coeff-En:   0.104D+00 0.707D-01 0.825D+00
 Coeff:      0.104D+00 0.707D-01 0.825D+00
 Gap=     0.155 Goal=   None    Shift=    0.000
 RMSDP=1.49D-02 MaxDP=1.85D-01 DE=-4.83D-02 OVMax= 3.57D-01

 Cycle   4  Pass 0  IDiag  1:
 E= -283.619143461249     Delta-E=        0.330523943693 Rises=F Damp=F
 DIIS: error= 1.09D-01 at cycle   4 NSaved=   4.
 NSaved= 4 IEnMin= 3 EnMin= -283.949667404942     IErMin= 2 ErrMin= 1.71D-02
 ErrMax= 1.09D-01  0.00D+00 EMaxC= 1.00D-01 BMatC= 4.77D-01 BMatP= 1.74D-02
 IDIUse=2 WtCom= 0.00D+00 WtEn= 1.00D+00
 EnCoef did     1 forward-backward iterations
 Coeff-En:   0.368D-01 0.000D+00 0.778D+00 0.185D+00
 Coeff:      0.368D-01 0.000D+00 0.778D+00 0.185D+00
 Gap=     0.186 Goal=   None    Shift=    0.000
 RMSDP=8.92D-03 MaxDP=1.11D-01 DE= 3.31D-01 OVMax= 2.04D-01

 Cycle   5  Pass 0  IDiag  1:
 E= -283.969051555092     Delta-E=       -0.349908093843 Rises=F Damp=F
 DIIS: error= 3.01D-02 at cycle   5 NSaved=   5.
 NSaved= 5 IEnMin= 5 EnMin= -283.969051555092     IErMin= 2 ErrMin= 1.71D-02
 ErrMax= 3.01D-02  0.00D+00 EMaxC= 1.00D-01 BMatC= 4.36D-02 BMatP= 1.74D-02
 IDIUse=2 WtCom= 0.00D+00 WtEn= 1.00D+00
 Coeff-En:   0.000D+00 0.000D+00 0.424D+00 0.000D+00 0.576D+00
 Coeff:      0.000D+00 0.000D+00 0.424D+00 0.000D+00 0.576D+00
 Gap=     0.137 Goal=   None    Shift=    0.000
 RMSDP=3.35D-03 MaxDP=4.91D-02 DE=-3.50D-01 OVMax= 8.02D-02

 Cycle   6  Pass 0  IDiag  1:
 E= -284.002773987010     Delta-E=       -0.033722431918 Rises=F Damp=F
 DIIS: error= 6.19D-03 at cycle   6 NSaved=   6.
 NSaved= 6 IEnMin= 6 EnMin= -284.002773987010     IErMin= 6 ErrMin= 6.19D-03
 ErrMax= 6.19D-03  0.00D+00 EMaxC= 1.00D-01 BMatC= 1.79D-03 BMatP= 1.74D-02
 IDIUse=3 WtCom= 9.38D-01 WtEn= 6.19D-02
 Coeff-Com: -0.652D-01 0.124D+00 0.224D+00-0.513D-01 0.430D+00 0.338D+00
 Coeff-En:   0.000D+00 0.000D+00 0.000D+00 0.000D+00 0.000D+00 0.100D+01
 Coeff:     -0.612D-01 0.117D+00 0.210D+00-0.481D-01 0.403D+00 0.379D+00
 Gap=     0.143 Goal=   None    Shift=    0.000
 RMSDP=6.46D-04 MaxDP=1.05D-02 DE=-3.37D-02 OVMax= 8.76D-03

 Cycle   7  Pass 0  IDiag  1:
 E= -284.004127398427     Delta-E=       -0.001353411417 Rises=F Damp=F
 DIIS: error= 1.16D-03 at cycle   7 NSaved=   7.
 NSaved= 7 IEnMin= 7 EnMin= -284.004127398427     IErMin= 7 ErrMin= 1.16D-03
 ErrMax= 1.16D-03  0.00D+00 EMaxC= 1.00D-01 BMatC= 6.54D-05 BMatP= 1.79D-03
 IDIUse=3 WtCom= 9.88D-01 WtEn= 1.16D-02
 Coeff-Com: -0.177D-01 0.315D-01 0.595D-01-0.201D-01 0.137D+00 0.226D+00
 Coeff-Com:  0.584D+00
 Coeff-En:   0.000D+00 0.000D+00 0.000D+00 0.000D+00 0.000D+00 0.000D+00
 Coeff-En:   0.100D+01
 Coeff:     -0.175D-01 0.312D-01 0.588D-01-0.199D-01 0.135D+00 0.224D+00
 Coeff:      0.589D+00
 Gap=     0.143 Goal=   None    Shift=    0.000
 RMSDP=1.44D-04 MaxDP=1.68D-03 DE=-1.35D-03 OVMax= 2.01D-03

 Cycle   8  Pass 0  IDiag  1:
 E= -284.004179953339     Delta-E=       -0.000052554913 Rises=F Damp=F
 DIIS: error= 2.16D-04 at cycle   8 NSaved=   8.
 NSaved= 8 IEnMin= 8 EnMin= -284.004179953339     IErMin= 8 ErrMin= 2.16D-04
 ErrMax= 2.16D-04  0.00D+00 EMaxC= 1.00D-01 BMatC= 3.16D-06 BMatP= 6.54D-05
 IDIUse=3 WtCom= 9.98D-01 WtEn= 2.16D-03
 Coeff-Com:  0.328D-02-0.596D-02 0.215D-02-0.121D-02 0.982D-02 0.790D-01
 Coeff-Com:  0.318D+00 0.595D+00
 Coeff-En:   0.000D+00 0.000D+00 0.000D+00 0.000D+00 0.000D+00 0.000D+00
 Coeff-En:   0.000D+00 0.100D+01
 Coeff:      0.328D-02-0.595D-02 0.215D-02-0.121D-02 0.980D-02 0.788D-01
 Coeff:      0.318D+00 0.596D+00
 Gap=     0.143 Goal=   None    Shift=    0.000
 RMSDP=3.03D-05 MaxDP=3.75D-04 DE=-5.26D-05 OVMax= 3.27D-04

 Cycle   9  Pass 0  IDiag  1:
 E= -284.004182942898     Delta-E=       -0.000002989558 Rises=F Damp=F
 DIIS: error= 1.25D-05 at cycle   9 NSaved=   9.
 NSaved= 9 IEnMin= 9 EnMin= -284.004182942898     IErMin= 9 ErrMin= 1.25D-05
 ErrMax= 1.25D-05  0.00D+00 EMaxC= 1.00D-01 BMatC= 1.51D-08 BMatP= 3.16D-06
 IDIUse=1 WtCom= 1.00D+00 WtEn= 0.00D+00
 Coeff-Com:  0.856D-03-0.111D-02 0.229D-03-0.129D-03 0.103D-02 0.173D-01
 Coeff-Com:  0.831D-01 0.174D+00 0.725D+00
 Coeff:      0.856D-03-0.111D-02 0.229D-03-0.129D-03 0.103D-02 0.173D-01
 Coeff:      0.831D-01 0.174D+00 0.725D+00
 Gap=     0.143 Goal=   None    Shift=    0.000
 RMSDP=3.69D-06 MaxDP=2.36D-05 DE=-2.99D-06 OVMax= 3.01D-05

 Initial convergence to 1.0D-05 achieved.  Increase integral accuracy.
 Cycle  10  Pass 1  IDiag  1:
 E= -284.004187388350     Delta-E=       -0.000004445453 Rises=F Damp=F
 DIIS: error= 5.06D-06 at cycle   1 NSaved=   1.
 NSaved= 1 IEnMin= 1 EnMin= -284.004187388350     IErMin= 1 ErrMin= 5.06D-06
 ErrMax= 5.06D-06  0.00D+00 EMaxC= 1.00D-01 BMatC= 2.71D-09 BMatP= 2.71D-09
 IDIUse=1 WtCom= 1.00D+00 WtEn= 0.00D+00
 Coeff-Com:  0.100D+01
 Coeff:      0.100D+01
 Gap=     0.143 Goal=   None    Shift=    0.000
 RMSDP=3.69D-06 MaxDP=2.36D-05 DE=-4.45D-06 OVMax= 2.53D-05

 Cycle  11  Pass 1  IDiag  1:
 E= -284.004187385662     Delta-E=        0.000000002689 Rises=F Damp=F
 DIIS: error= 9.32D-06 at cycle   2 NSaved=   2.
 NSaved= 2 IEnMin= 1 EnMin= -284.004187388350     IErMin= 1 ErrMin= 5.06D-06
 ErrMax= 9.32D-06  0.00D+00 EMaxC= 1.00D-01 BMatC= 5.96D-09 BMatP= 2.71D-09
 IDIUse=1 WtCom= 1.00D+00 WtEn= 0.00D+00
 Coeff-Com:  0.601D+00 0.399D+00
 Coeff:      0.601D+00 0.399D+00
 Gap=     0.143 Goal=   None    Shift=    0.000
 RMSDP=1.46D-06 MaxDP=1.72D-05 DE= 2.69D-09 OVMax= 1.57D-05

 Cycle  12  Pass 1  IDiag  1:
 E= -284.004187391019     Delta-E=       -0.000000005358 Rises=F Damp=F
 DIIS: error= 2.19D-06 at cycle   3 NSaved=   3.
 NSaved= 3 IEnMin= 3 EnMin= -284.004187391019     IErMin= 3 ErrMin= 2.19D-06
 ErrMax= 2.19D-06  0.00D+00 EMaxC= 1.00D-01 BMatC= 2.84D-10 BMatP= 2.71D-09
 IDIUse=1 WtCom= 1.00D+00 WtEn= 0.00D+00
 Coeff-Com:  0.327D+00 0.247D+00 0.425D+00
 Coeff:      0.327D+00 0.247D+00 0.425D+00
 Gap=     0.143 Goal=   None    Shift=    0.000
 RMSDP=4.17D-07 MaxDP=6.40D-06 DE=-5.36D-09 OVMax= 9.71D-06

 Cycle  13  Pass 1  IDiag  1:
 E= -284.004187391169     Delta-E=       -0.000000000150 Rises=F Damp=F
 DIIS: error= 1.51D-06 at cycle   4 NSaved=   4.
 NSaved= 4 IEnMin= 4 EnMin= -284.004187391169     IErMin= 4 ErrMin= 1.51D-06
 ErrMax= 1.51D-06  0.00D+00 EMaxC= 1.00D-01 BMatC= 9.97D-11 BMatP= 2.84D-10
 IDIUse=1 WtCom= 1.00D+00 WtEn= 0.00D+00
 Coeff-Com:  0.106D+00 0.964D-01 0.348D+00 0.449D+00
 Coeff:      0.106D+00 0.964D-01 0.348D+00 0.449D+00
 Gap=     0.143 Goal=   None    Shift=    0.000
 RMSDP=1.96D-07 MaxDP=2.70D-06 DE=-1.50D-10 OVMax= 4.92D-06

 Cycle  14  Pass 1  IDiag  1:
 E= -284.004187391241     Delta-E=       -0.000000000072 Rises=F Damp=F
 DIIS: error= 4.19D-07 at cycle   5 NSaved=   5.
 NSaved= 5 IEnMin= 5 EnMin= -284.004187391241     IErMin= 5 ErrMin= 4.19D-07
 ErrMax= 4.19D-07  0.00D+00 EMaxC= 1.00D-01 BMatC= 1.14D-11 BMatP= 9.97D-11
 IDIUse=1 WtCom= 1.00D+00 WtEn= 0.00D+00
 Coeff-Com:  0.515D-02 0.155D-01 0.147D+00 0.310D+00 0.522D+00
 Coeff:      0.515D-02 0.155D-01 0.147D+00 0.310D+00 0.522D+00
 Gap=     0.143 Goal=   None    Shift=    0.000
 RMSDP=5.82D-08 MaxDP=7.03D-07 DE=-7.20D-11 OVMax= 1.05D-06

 Cycle  15  Pass 1  IDiag  1:
 E= -284.004187391249     Delta-E=       -0.000000000008 Rises=F Damp=F
 DIIS: error= 6.60D-08 at cycle   6 NSaved=   6.
 NSaved= 6 IEnMin= 6 EnMin= -284.004187391249     IErMin= 6 ErrMin= 6.60D-08
 ErrMax= 6.60D-08  0.00D+00 EMaxC= 1.00D-01 BMatC= 2.36D-13 BMatP= 1.14D-11
 IDIUse=1 WtCom= 1.00D+00 WtEn= 0.00D+00
 Coeff-Com:  0.368D-03 0.569D-02 0.670D-01 0.151D+00 0.283D+00 0.493D+00
 Coeff:      0.368D-03 0.569D-02 0.670D-01 0.151D+00 0.283D+00 0.493D+00
 Gap=     0.143 Goal=   None    Shift=    0.000
 RMSDP=1.22D-08 MaxDP=1.25D-07 DE=-8.07D-12 OVMax= 1.64D-07

 Cycle  16  Pass 1  IDiag  1:
 E= -284.004187391251     Delta-E=       -0.000000000002 Rises=F Damp=F
 DIIS: error= 2.37D-08 at cycle   7 NSaved=   7.
 NSaved= 7 IEnMin= 7 EnMin= -284.004187391251     IErMin= 7 ErrMin= 2.37D-08
 ErrMax= 2.37D-08  0.00D+00 EMaxC= 1.00D-01 BMatC= 3.67D-14 BMatP= 2.36D-13
 IDIUse=1 WtCom= 1.00D+00 WtEn= 0.00D+00
 Coeff-Com: -0.367D-03 0.203D-02 0.287D-01 0.653D-01 0.131D+00 0.317D+00
 Coeff-Com:  0.456D+00
 Coeff:     -0.367D-03 0.203D-02 0.287D-01 0.653D-01 0.131D+00 0.317D+00
 Coeff:      0.456D+00
 Gap=     0.143 Goal=   None    Shift=    0.000
 RMSDP=3.66D-09 MaxDP=3.72D-08 DE=-1.65D-12 OVMax= 5.19D-08

 SCF Done:  E(RPBE-PBE) =  -284.004187391     A.U. after   16 cycles
            NFock= 16  Conv=0.37D-08     -V/T= 2.0040
 KE= 2.828669380632D+02 PE=-1.026522799436D+03 EE= 2.796725624715D+02
 Leave Link  502 at Mon Jan  1 12:04:55 2024, MaxMem=   134217728 cpu:              22.8 elap:               5.8
 (Enter /home/emanuele/chem_software/gaussian//gdv/l601.exe)
 Copying SCF densities to generalized density rwf, IOpCl= 0 IROHF=0.

 **********************************************************************

            Population analysis using the SCF Density.

 **********************************************************************

 Alpha  occ. eigenvalues --      -18.82348     -18.77534     -13.97630     -10.03307      -9.93269
 Alpha  occ. eigenvalues --       -1.05039      -0.96249      -0.81873      -0.66701      -0.55720
 Alpha  occ. eigenvalues --       -0.47745      -0.44302      -0.42425      -0.39740      -0.38172
 Alpha  occ. eigenvalues --       -0.35810      -0.33438      -0.28324      -0.24012      -0.17687
 Alpha virt. eigenvalues --       -0.03408       0.03977       0.06266       0.10563       0.13621
 Alpha virt. eigenvalues --        0.14128       0.18881       0.20070       0.25560       0.32190
 Alpha virt. eigenvalues --        0.49787       0.52370       0.54892       0.58524       0.63914
 Alpha virt. eigenvalues --        0.64910       0.68021       0.72965       0.75778       0.78417
 Alpha virt. eigenvalues --        0.83864       0.86168       0.87444       0.90129       0.91413
 Alpha virt. eigenvalues --        0.92742       0.95703       0.99926       1.04360       1.08154
 Alpha virt. eigenvalues --        1.14357       1.29543       1.58698       1.69096       1.83861
          Condensed to atoms (all electrons):
               1          2          3          4          5          6
     1  C    4.866057   0.154675   0.159242  -0.030441  -0.020108  -0.039846
     2  O    0.154675   8.362489  -0.132271   0.003086   0.005400   0.002017
     3  C    0.159242  -0.132271   5.410743   0.343186   0.344277   0.287055
     4  H   -0.030441   0.003086   0.343186   0.627998  -0.052275  -0.056772
     5  H   -0.020108   0.005400   0.344277  -0.052275   0.563810  -0.050520
     6  N   -0.039846   0.002017   0.287055  -0.056772  -0.050520   6.896220
     7  H   -0.004593   0.000755  -0.056970   0.001298   0.005805   0.317217
     8  H    0.006591  -0.000085  -0.037366  -0.006092   0.000225   0.315923
     9  O    0.516080  -0.118030  -0.118642  -0.000661   0.002442  -0.003494
    10  H   -0.010506   0.217765   0.013527  -0.000559  -0.000372  -0.000229
               7          8          9         10
     1  C   -0.004593   0.006591   0.516080  -0.010506
     2  O    0.000755  -0.000085  -0.118030   0.217765
     3  C   -0.056970  -0.037366  -0.118642   0.013527
     4  H    0.001298  -0.006092  -0.000661  -0.000559
     5  H    0.005805   0.000225   0.002442  -0.000372
     6  N    0.317217   0.315923  -0.003494  -0.000229
     7  H    0.455047  -0.036030   0.019938  -0.000043
     8  H   -0.036030   0.474499   0.000332   0.000007
     9  O    0.019938   0.000332   8.049361   0.007405
    10  H   -0.000043   0.000007   0.007405   0.397083
 Mulliken charges:
               1
     1  C    0.402849
     2  O   -0.495802
     3  C   -0.212783
     4  H    0.171232
     5  H    0.201314
     6  N   -0.667572
     7  H    0.297575
     8  H    0.281996
     9  O   -0.354733
    10  H    0.375922
 Sum of Mulliken charges =  -0.00000
 Mulliken charges with hydrogens summed into heavy atoms:
               1
     1  C    0.402849
     2  O   -0.119880
     3  C    0.159764
     6  N   -0.088000
     9  O   -0.354733
 Electronic spatial extent (au):  <R**2>=            416.6924
 Charge=             -0.0000 electrons
 Dipole moment (field-independent basis, Debye):
    X=             -0.3660    Y=             -1.1905    Z=              1.7107  Tot=              2.1161
 Quadrupole moment (field-independent basis, Debye-Ang):
   XX=            -22.7811   YY=            -33.0365   ZZ=            -30.3991
   XY=             -1.3141   XZ=              4.0071   YZ=              0.1584
 Traceless Quadrupole moment (field-independent basis, Debye-Ang):
   XX=              5.9578   YY=             -4.2976   ZZ=             -1.6602
   XY=             -1.3141   XZ=              4.0071   YZ=              0.1584
 Octapole moment (field-independent basis, Debye-Ang**2):
  XXX=            -14.3107  YYY=             -1.8153  ZZZ=              1.7946  XYY=              6.2675
  XXY=              3.4078  XXZ=              8.1736  XZZ=             -4.7178  YZZ=              0.2677
  YYZ=             -0.0888  XYZ=              0.9063
 Hexadecapole moment (field-independent basis, Debye-Ang**3):
 XXXX=           -240.1789 YYYY=           -138.8258 ZZZZ=            -35.6159 XXXY=             -6.3383
 XXXZ=             22.4364 YYYX=              4.2932 YYYZ=              1.5451 ZZZX=              4.2628
 ZZZY=              0.4290 XXYY=            -78.1044 XXZZ=            -66.0383 YYZZ=            -27.1527
 XXYZ=              0.7071 YYXZ=              0.8279 ZZXY=             -0.7605
 N-N= 1.799791115102D+02 E-N=-1.026522800275D+03  KE= 2.828669380632D+02
 No NMR shielding tensors so no spin-rotation constants.
 Leave Link  601 at Mon Jan  1 12:04:55 2024, MaxMem=   134217728 cpu:               0.3 elap:               0.1
 (Enter /home/emanuele/chem_software/gaussian//gdv/l701.exe)
 ... and contract with generalized density number  0.
 Compute integral first derivatives.
 Leave Link  701 at Mon Jan  1 12:04:55 2024, MaxMem=   134217728 cpu:               0.3 elap:               0.1
 (Enter /home/emanuele/chem_software/gaussian//gdv/l702.exe)
 L702 exits ... SP integral derivatives will be done elsewhere.
 Leave Link  702 at Mon Jan  1 12:04:55 2024, MaxMem=   134217728 cpu:               0.1 elap:               0.0
 (Enter /home/emanuele/chem_software/gaussian//gdv/l703.exe)
 Integral derivatives from FoFJK, PRISM(SPDF).
 Compute integral first derivatives, UseDBF=F ICtDFT=           0.
 Calling FoFJK, ICntrl=      2527 FMM=F ISym2X=0 I1Cent= 0 IOpClX= 0 NMat=1 NMatS=1 NMatT=0.
 FoFJK:  IHMeth= 1 ICntrl=    2527 DoSepK=F KAlg= 0 I1Cent=           0 FoldK=F
 IRaf=         0 NMat=       1 IRICut=       1 DoRegI=T DoRafI=F ISym2E= 0 IDoP0=0 IntGTp=1.
 FoFCou: FMM=F IPFlag=           0 FMFlag=      100000 FMFlg1=         800
         NFxFlg=           0 DoJE=F BraDBF=F KetDBF=F FulRan=T
         wScrn=  0.000000 ICntrl=      2527 IOpCl=  0 I1Cent=           0 NGrid=           0
         NMat0=    1 NMatS0=      1 NMatT0=    0 NMatD0=    1 NMtDS0=    0 NMtDT0=    0
 Symmetry not used in FoFCou.
 Leave Link  703 at Mon Jan  1 12:04:57 2024, MaxMem=   134217728 cpu:               5.0 elap:               1.2
 (Enter /home/emanuele/chem_software/gaussian//gdv/l716.exe)
 Dipole        =-1.43988374D-01-4.68368933D-01 6.73042054D-01
 -------------------------------------------------------------------
 Center     Atomic                   Forces (Hartrees/Bohr)
 Number     Number              X              Y              Z
 -------------------------------------------------------------------
      1        6           0.028013322   -0.049315475   -0.001738117
      2        8          -0.006374856   -0.027942083   -0.001031046
      3        6          -0.003546193    0.000397077   -0.004068071
      4        1          -0.000507227   -0.005481730    0.009320645
      5        1          -0.001185793   -0.006534529   -0.004777089
      6        7          -0.002043709   -0.000019789    0.002233754
      7        1          -0.002578517    0.014267242   -0.001301373
      8        1           0.012282482   -0.006214479   -0.000193135
      9        8          -0.001313682    0.070566420    0.002326296
     10        1          -0.022745827    0.010277346   -0.000771864
 -------------------------------------------------------------------
 Cartesian Forces:  Max     0.070566420 RMS     0.018508164
 Leave Link  716 at Mon Jan  1 12:04:57 2024, MaxMem=   134217728 cpu:               0.1 elap:               0.0
 (Enter /home/emanuele/chem_software/gaussian//gdv/l103.exe)

 GradGradGradGradGradGradGradGradGradGradGradGradGradGradGradGradGradGrad
 Berny optimization.
 FormGI is forming the generalized inverse of G from B-inverse, IUseBI=4.
 Internal  Forces:  Max     0.070596940 RMS     0.014536187
 Search for a local minimum.
 Step number   1 out of a maximum of  100 on scan point     1 out of    11
 All quantities printed in internal units (Hartrees-Bohrs-Radians)
 RMS Force = .14724D-01 SwitMx=.10000D-02 MixMth= 1
 Mixed Optimization -- RFO/linear search
 Second derivative matrix not updated -- first step.
 ITU=  0
     Eigenvalues ---    0.00641   0.01053   0.02341   0.02422   0.04955
     Eigenvalues ---    0.05862   0.09423   0.12992   0.16000   0.16000
     Eigenvalues ---    0.16000   0.21827   0.24992   0.25000   0.31403
     Eigenvalues ---    0.33602   0.34582   0.38010   0.45526   0.45961
     Eigenvalues ---    0.53825   0.54828   1.033731000.000001000.00000
     Eigenvalues --- 1000.000001000.000001000.000001000.000001000.00000
     Eigenvalues --- 1000.000001000.000001000.000001000.000001000.00000
     Eigenvalues --- 1000.00000
 RFO step:  Lambda=-1.15062415D-02 EMin= 6.40605360D-03
 Linear search not attempted -- first point.
 Iteration  1 RMS(Cart)=  0.04442594 RMS(Int)=  0.00144820
 Iteration  2 RMS(Cart)=  0.00125605 RMS(Int)=  0.00071537
 Iteration  3 RMS(Cart)=  0.00000124 RMS(Int)=  0.00071536
 Iteration  4 RMS(Cart)=  0.00000000 RMS(Int)=  0.00071536
 Fixing frozen coordinates.
 Iteration  1 RMS(Cart)=  0.00006244 RMS(Int)=  0.00007411
 Iteration  2 RMS(Cart)=  0.00003169 RMS(Int)=  0.00008285
 Iteration  3 RMS(Cart)=  0.00001608 RMS(Int)=  0.00009280
 Iteration  4 RMS(Cart)=  0.00000816 RMS(Int)=  0.00009883
 Iteration  5 RMS(Cart)=  0.00000414 RMS(Int)=  0.00010210
 Iteration  6 RMS(Cart)=  0.00000210 RMS(Int)=  0.00010380
 Iteration  7 RMS(Cart)=  0.00000107 RMS(Int)=  0.00010468
 Iteration  8 RMS(Cart)=  0.00000054 RMS(Int)=  0.00010513
 ITry= 1 IFail=0 DXMaxC= 1.38D-01 DCOld= 1.00D+10 DXMaxT= 3.00D-01 DXLimC= 3.00D+00 Rises=F
 Variable       Old X    -DE/DX   Delta X   Delta X   Delta X     New X
                                 (Linear)    (Quad)   (Total)
    R1        2.55286   0.03402   0.00000   0.06077   0.06077   2.61362
    R2        2.85250   0.00405   0.00000   0.01244   0.01244   2.86494
    R3        2.27318   0.07060   0.00000   0.06754   0.06754   2.34072
    R4        1.82891   0.02432   0.00000   0.04423   0.04423   1.87314
    R5        2.08006   0.01074   0.00000   0.03090   0.03090   2.11096
    R6        2.06359   0.00814   0.00000   0.02279   0.02279   2.08638
    R7        2.74351   0.01049   0.00000   0.02680   0.02680   2.77031
    R8        1.91369   0.01321   0.00000   0.02829   0.02829   1.94199
    R9        1.90876   0.01238   0.00000   0.02628   0.02628   1.93504
    A1        1.94980  -0.00150   0.00000  -0.00584  -0.00585   1.94395
    A2        2.14707   0.00262   0.00000   0.00994   0.00992   2.15699
    A3        2.18583  -0.00113   0.00000  -0.00441  -0.00442   2.18141
    A4        1.87144   0.01038   0.00000   0.06051   0.06051   1.93195
    A5        1.83958   0.00133   0.00000  -0.00460  -0.00478   1.83481
    A6        1.89148   0.00072   0.00000  -0.00213  -0.00210   1.88937
    A7        1.93046  -0.00386   0.00000  -0.02101  -0.02112   1.90934
    A8        1.85394  -0.00109   0.00000   0.00437   0.00441   1.85835
    A9        2.00477   0.00168   0.00000   0.01233   0.01227   2.01704
   A10        1.93745   0.00130   0.00000   0.01058   0.01056   1.94801
   A11        1.91981   0.00390   0.00000   0.03851   0.03661   1.95641
   A12        1.94466   0.00426   0.00000   0.04019   0.03832   1.98298
   A13        1.89587   0.00082   0.00000   0.03438   0.03127   1.92714
    D1        3.09264   0.00002   0.00000  -0.00049  -0.00053   3.09211
    D2       -0.01720   0.00030   0.00000   0.00973   0.00976  -0.00744
    D3       -1.25365   0.00038   0.00000   0.00314   0.00312  -1.25053
    D4        0.72522   0.00010   0.00000   0.00499   0.00494   0.73016
    D5        2.85281  -0.00023   0.00000   0.00356   0.00358   2.85639
    D6        1.85534   0.00018   0.00000  -0.00704  -0.00703   1.84831
    D7       -2.44897  -0.00011   0.00000  -0.00519  -0.00521  -2.45418
    D8       -0.32138  -0.00044   0.00000  -0.00662  -0.00657  -0.32795
    D9        0.60481  -0.00301   0.00000  -0.01304  -0.01348   0.59133
   D10        2.70830   0.00342   0.00000   0.08227   0.08291   2.79121
   D11       -1.47459  -0.00304   0.00000   0.00000  -0.00000  -1.47459
   D12        0.62890   0.00339   0.00000   0.09530   0.09640   0.72529
   D13        2.70515  -0.00381   0.00000  -0.02270  -0.02326   2.68189
   D14       -1.47455   0.00262   0.00000   0.07260   0.07313  -1.40142
         Item               Value     Threshold  Converged?
 Maximum Force            0.070597     0.000450     NO 
 RMS     Force            0.014724     0.000300     NO 
 Maximum Displacement     0.137948     0.001800     NO 
 RMS     Displacement     0.044385     0.001200     NO 
 Predicted change in Energy=-6.041405D-03
 Lowest energy point so far.  Saving SCF results.
 GradGradGradGradGradGradGradGradGradGradGradGradGradGradGradGradGradGrad

 Leave Link  103 at Mon Jan  1 12:04:57 2024, MaxMem=   134217728 cpu:               0.1 elap:               0.0
 (Enter /home/emanuele/chem_software/gaussian//gdv/l202.exe)
                          Input orientation:                          
 ---------------------------------------------------------------------
 Center     Atomic      Atomic             Coordinates (Angstroms)
 Number     Number       Type             X           Y           Z
 ---------------------------------------------------------------------
      1          6           0       -0.529666    0.110940    0.015671
      2          8           0       -1.659433   -0.681338   -0.078170
      3          6           0        0.727804   -0.729609    0.119055
      4          1           0        0.697728   -1.174395    1.143317
      5          1           0        0.640597   -1.571054   -0.590401
      6          7           0        1.896797    0.104993   -0.174206
      7          1           0        1.772412    1.072143    0.150175
      8          1           0        2.775996   -0.280864    0.181680
      9          8           0       -0.562121    1.348470    0.057275
     10          1           0       -2.478087   -0.122875   -0.099443
 ---------------------------------------------------------------------
                    Distance matrix (angstroms):
                    1          2          3          4          5
     1  C    0.000000
     2  O    1.383070   0.000000
     3  C    1.516061   2.395857   0.000000
     4  H    2.104796   2.700249   1.117073   0.000000
     5  H    2.136806   2.518753   1.104066   1.779433   0.000000
     6  N    2.433888   3.643393   1.465983   2.193277   2.135507
     7  H    2.498313   3.860621   2.082902   2.681083   2.969166
     8  H    3.332938   4.461047   2.097710   2.458117   2.611634
     9  O    1.238655   2.311398   2.446658   3.021846   3.223296
    10  H    1.965773   0.991225   3.270108   3.568746   3.473392
                    6          7          8          9         10
     6  N    0.000000
     7  H    1.027655   0.000000
     8  H    1.023978   1.684874   0.000000
     9  O    2.765158   2.352665   3.716616   0.000000
    10  H    4.381452   4.422343   5.263970   2.420815   0.000000
 Symmetry turned off by external request.
 Stoichiometry    C2H5NO2
 Framework group  C1[X(C2H5NO2)]
 Deg. of freedom    24
 Full point group                 C1      NOp   1
 Rotational constants (GHZ):           9.9695782           3.8996883           2.8821995
 Leave Link  202 at Mon Jan  1 12:04:57 2024, MaxMem=   134217728 cpu:               0.1 elap:               0.0
 (Enter /home/emanuele/chem_software/gaussian//gdv/l301.exe)
 Standard basis: 6-31G (6D, 7F)
 Ernie: Thresh=  0.10000D-02 Tol=  0.10000D-05 Strict=F.
    55 basis functions,   130 primitive gaussians,    55 cartesian basis functions
    20 alpha electrons       20 beta electrons
       nuclear repulsion energy       177.1596908508 Hartrees.
 IExCor=   10009 DFT=T Ex=PBE Corr=PBE N6=None ScaHFX=  0.000000
 ScaDFX=  1.000000  1.000000  1.000000  1.000000  1.000000  0.000000
 ScaDFX=  0.000000  0.000000  0.000000  0.000000  0.000000  0.000000
 IRadAn=      5 IRanWt=     -1 IRanGd=            0 ICorTp=0 IEmpDi=  4
 NAtoms=   10 NActive=   10 NUniq=   10 SFac= 1.00D+00 NAtFMM=   60 NAOKFM=F Big=F
 Integral buffers will be    131072 words long.
 Raffenetti 2 integral format.
 Two-electron integral symmetry is turned off.
 Leave Link  301 at Mon Jan  1 12:04:57 2024, MaxMem=   134217728 cpu:               0.2 elap:               0.1
 (Enter /home/emanuele/chem_software/gaussian//gdv/l302.exe)
 NPDir=0 NMtPBC=     1 NCelOv=     1 NCel=       1 NClECP=     1 NCelD=      1
         NCelK=      1 NCelE2=     1 NClLst=     1 CellRange=     0.0.
 One-electron integrals computed using PRISM.
 NBasis=    55 RedAO= T EigKep=  6.07D-03  NBF=    55
 NBsUse=    55 1.00D-06 EigRej= -1.00D+00 NBFU=    55
 Precomputing XC quadrature grid using
 IXCGrd= 4 IRadAn=           5 IRanWt=          -1 IRanGd=           0 AccXCQ= 0.00D+00.
 Generated NRdTot=       0 NPtTot=      219369 NUsed=           0 NTot=          64
 NSgBfM=    55    55    55    55    55 MxSgAt=    10 MxSgA2=    10 SizInc=   0.000
 NMBTot=     1894 MaxBatPerAtom=       84 MaxMicBPerAtom=      196.
 Leave Link  302 at Mon Jan  1 12:04:57 2024, MaxMem=   134217728 cpu:               0.6 elap:               0.2
 (Enter /home/emanuele/chem_software/gaussian//gdv/l303.exe)
 DipDrv:  MaxL=1.
 Leave Link  303 at Mon Jan  1 12:04:57 2024, MaxMem=   134217728 cpu:               0.1 elap:               0.0
 (Enter /home/emanuele/chem_software/gaussian//gdv/l401.exe)
 Initial guess from the checkpoint file:  "1_qm.chk"
 B after Tr=     0.004848    0.013367    0.009783
         Rot=    0.999993   -0.001900    0.002302    0.002220 Ang=  -0.43 deg.
 AO Guess basis will be translated and rotated to current coordinates.
 JPrj=2 DoOrth=T DoCkMO=T.
 Generating alternative initial guess.
 ExpMin= 1.61D-01 ExpMax= 5.48D+03 ExpMxC= 8.25D+02 IAcc=3 IRadAn=         5 AccDes= 0.00D+00
 Harris functional with IExCor=10009 and IRadAn=       5 diagonalized for initial guess.
 HarFok:  IExCor=   10009 AccDes= 0.00D+00 IRadAn=         5 IDoV= 1 UseB2=F ITyADJ=14 ICtDFT=  3500011
 FoFCou: FMM=F IPFlag=           0 FMFlag=      100000 FMFlg1=           0
         NFxFlg=           0 DoJE=T BraDBF=F KetDBF=T FulRan=T
         wScrn=  0.000000 ICntrl=       500 IOpCl=  0 I1Cent=   200000004 NGrid=           0
         NMat0=    1 NMatS0=      1 NMatT0=    0 NMatD0=    1 NMtDS0=    0 NMtDT0=    0
 Symmetry not used in FoFCou.
 Harris En= -284.094103385139    
 Leave Link  401 at Mon Jan  1 12:04:58 2024, MaxMem=   134217728 cpu:               2.4 elap:               0.7
 (Enter /home/emanuele/chem_software/gaussian//gdv/l502.exe)
 Keep J ints in memory in canonical form, NReq=4700713.
 FoFCou: FMM=F IPFlag=           0 FMFlag=           0 FMFlg1=           0
         NFxFlg=           0 DoJE=F BraDBF=F KetDBF=F FulRan=T
         wScrn=  0.000000 ICntrl=       600 IOpCl=  0 I1Cent=           0 NGrid=           0
         NMat0=    1 NMatS0=   1540 NMatT0=    0 NMatD0=    1 NMtDS0=    0 NMtDT0=    0
 Symmetry not used in FoFCou.
 Two-electron integral symmetry not used.
 Closed shell SCF:
 Using DIIS extrapolation, IDIIS=  1040.
 NGot=   134217728 LenX=   133023731 LenY=   133020265
 Requested convergence on RMS density matrix=1.00D-08 within 128 cycles.
 Requested convergence on MAX density matrix=1.00D-06.
 Requested convergence on             energy=1.00D-06.
 No special actions if energy rises.
 Integral accuracy reduced to 1.0D-05 until final iterations.

 Cycle   1  Pass 0  IDiag  1:
 E= -284.007633536319    
 DIIS: error= 4.19D-03 at cycle   1 NSaved=   1.
 NSaved= 1 IEnMin= 1 EnMin= -284.007633536319     IErMin= 1 ErrMin= 4.19D-03
 ErrMax= 4.19D-03  0.00D+00 EMaxC= 1.00D-01 BMatC= 1.68D-03 BMatP= 1.68D-03
 IDIUse=3 WtCom= 9.58D-01 WtEn= 4.19D-02
 Coeff-Com:  0.100D+01
 Coeff-En:   0.100D+01
 Coeff:      0.100D+01
 Gap=     0.523 Goal=   None    Shift=    0.000
 GapD=    0.523 DampG=2.000 DampE=1.000 DampFc=2.0000 IDamp=-1.
 RMSDP=1.62D-03 MaxDP=1.46D-02              OVMax= 1.18D-02

 Cycle   2  Pass 0  IDiag  1:
 E= -284.009701536518     Delta-E=       -0.002068000199 Rises=F Damp=F
 DIIS: error= 1.57D-03 at cycle   2 NSaved=   2.
 NSaved= 2 IEnMin= 2 EnMin= -284.009701536518     IErMin= 2 ErrMin= 1.57D-03
 ErrMax= 1.57D-03  0.00D+00 EMaxC= 1.00D-01 BMatC= 3.24D-04 BMatP= 1.68D-03
 IDIUse=3 WtCom= 9.84D-01 WtEn= 1.57D-02
 Coeff-Com:  0.248D+00 0.752D+00
 Coeff-En:   0.000D+00 0.100D+01
 Coeff:      0.244D+00 0.756D+00
 Gap=     0.129 Goal=   None    Shift=    0.000
 RMSDP=5.73D-04 MaxDP=6.25D-03 DE=-2.07D-03 OVMax= 6.58D-03

 Cycle   3  Pass 0  IDiag  1:
 E= -284.009772803800     Delta-E=       -0.000071267282 Rises=F Damp=F
 DIIS: error= 1.63D-03 at cycle   3 NSaved=   3.
 NSaved= 3 IEnMin= 3 EnMin= -284.009772803800     IErMin= 2 ErrMin= 1.57D-03
 ErrMax= 1.63D-03  0.00D+00 EMaxC= 1.00D-01 BMatC= 2.68D-04 BMatP= 3.24D-04
 IDIUse=3 WtCom= 9.84D-01 WtEn= 1.63D-02
 Coeff-Com:  0.600D-01 0.475D+00 0.465D+00
 Coeff-En:   0.000D+00 0.441D+00 0.559D+00
 Coeff:      0.590D-01 0.474D+00 0.467D+00
 Gap=     0.129 Goal=   None    Shift=    0.000
 RMSDP=3.77D-04 MaxDP=4.70D-03 DE=-7.13D-05 OVMax= 9.21D-03

 Cycle   4  Pass 0  IDiag  1:
 E= -284.009910583282     Delta-E=       -0.000137779482 Rises=F Damp=F
 DIIS: error= 1.71D-03 at cycle   4 NSaved=   4.
 NSaved= 4 IEnMin= 4 EnMin= -284.009910583282     IErMin= 2 ErrMin= 1.57D-03
 ErrMax= 1.71D-03  0.00D+00 EMaxC= 1.00D-01 BMatC= 1.29D-04 BMatP= 2.68D-04
 IDIUse=3 WtCom= 9.83D-01 WtEn= 1.71D-02
 EnCoef did     4 forward-backward iterations
 Coeff-Com:  0.139D-01 0.292D+00 0.387D+00 0.308D+00
 Coeff-En:   0.000D+00 0.142D-01 0.320D+00 0.666D+00
 Coeff:      0.136D-01 0.287D+00 0.385D+00 0.314D+00
 Gap=     0.130 Goal=   None    Shift=    0.000
 RMSDP=1.99D-04 MaxDP=3.12D-03 DE=-1.38D-04 OVMax= 5.22D-03

 Cycle   5  Pass 0  IDiag  1:
 E= -284.010012858866     Delta-E=       -0.000102275584 Rises=F Damp=F
 DIIS: error= 1.87D-04 at cycle   5 NSaved=   5.
 NSaved= 5 IEnMin= 5 EnMin= -284.010012858866     IErMin= 5 ErrMin= 1.87D-04
 ErrMax= 1.87D-04  0.00D+00 EMaxC= 1.00D-01 BMatC= 2.28D-06 BMatP= 1.29D-04
 IDIUse=3 WtCom= 9.98D-01 WtEn= 1.87D-03
 Coeff-Com:  0.316D-02 0.110D+00 0.164D+00 0.182D+00 0.541D+00
 Coeff-En:   0.000D+00 0.000D+00 0.000D+00 0.000D+00 0.100D+01
 Coeff:      0.316D-02 0.110D+00 0.164D+00 0.181D+00 0.542D+00
 Gap=     0.130 Goal=   None    Shift=    0.000
 RMSDP=3.18D-05 MaxDP=3.38D-04 DE=-1.02D-04 OVMax= 5.32D-04

 Cycle   6  Pass 0  IDiag  1:
 E= -284.010014784783     Delta-E=       -0.000001925917 Rises=F Damp=F
 DIIS: error= 6.01D-05 at cycle   6 NSaved=   6.
 NSaved= 6 IEnMin= 6 EnMin= -284.010014784783     IErMin= 6 ErrMin= 6.01D-05
 ErrMax= 6.01D-05  0.00D+00 EMaxC= 1.00D-01 BMatC= 2.17D-07 BMatP= 2.28D-06
 IDIUse=1 WtCom= 1.00D+00 WtEn= 0.00D+00
 Coeff-Com:  0.560D-03 0.364D-01 0.605D-01 0.809D-01 0.338D+00 0.483D+00
 Coeff:      0.560D-03 0.364D-01 0.605D-01 0.809D-01 0.338D+00 0.483D+00
 Gap=     0.130 Goal=   None    Shift=    0.000
 RMSDP=9.84D-06 MaxDP=1.05D-04 DE=-1.93D-06 OVMax= 9.89D-05

 Initial convergence to 1.0D-05 achieved.  Increase integral accuracy.
 Cycle   7  Pass 1  IDiag  1:
 E= -284.010021446694     Delta-E=       -0.000006661911 Rises=F Damp=F
 DIIS: error= 6.68D-06 at cycle   1 NSaved=   1.
 NSaved= 1 IEnMin= 1 EnMin= -284.010021446694     IErMin= 1 ErrMin= 6.68D-06
 ErrMax= 6.68D-06  0.00D+00 EMaxC= 1.00D-01 BMatC= 3.11D-09 BMatP= 3.11D-09
 IDIUse=1 WtCom= 1.00D+00 WtEn= 0.00D+00
 Coeff-Com:  0.100D+01
 Coeff:      0.100D+01
 Gap=     0.130 Goal=   None    Shift=    0.000
 RMSDP=9.84D-06 MaxDP=1.05D-04 DE=-6.66D-06 OVMax= 7.15D-05

 Cycle   8  Pass 1  IDiag  1:
 E= -284.010021436165     Delta-E=        0.000000010529 Rises=F Damp=F
 DIIS: error= 1.93D-05 at cycle   2 NSaved=   2.
 NSaved= 2 IEnMin= 1 EnMin= -284.010021446694     IErMin= 1 ErrMin= 6.68D-06
 ErrMax= 1.93D-05  0.00D+00 EMaxC= 1.00D-01 BMatC= 1.65D-08 BMatP= 3.11D-09
 IDIUse=1 WtCom= 1.00D+00 WtEn= 0.00D+00
 Coeff-Com:  0.712D+00 0.288D+00
 Coeff:      0.712D+00 0.288D+00
 Gap=     0.130 Goal=   None    Shift=    0.000
 RMSDP=2.27D-06 MaxDP=2.78D-05 DE= 1.05D-08 OVMax= 6.24D-05

 Cycle   9  Pass 1  IDiag  1:
 E= -284.010021449454     Delta-E=       -0.000000013290 Rises=F Damp=F
 DIIS: error= 4.02D-06 at cycle   3 NSaved=   3.
 NSaved= 3 IEnMin= 3 EnMin= -284.010021449454     IErMin= 3 ErrMin= 4.02D-06
 ErrMax= 4.02D-06  0.00D+00 EMaxC= 1.00D-01 BMatC= 1.07D-09 BMatP= 3.11D-09
 IDIUse=1 WtCom= 1.00D+00 WtEn= 0.00D+00
 Coeff-Com:  0.380D+00 0.200D+00 0.420D+00
 Coeff:      0.380D+00 0.200D+00 0.420D+00
 Gap=     0.130 Goal=   None    Shift=    0.000
 RMSDP=6.71D-07 MaxDP=9.73D-06 DE=-1.33D-08 OVMax= 1.39D-05

 Cycle  10  Pass 1  IDiag  1:
 E= -284.010021450200     Delta-E=       -0.000000000746 Rises=F Damp=F
 DIIS: error= 1.47D-06 at cycle   4 NSaved=   4.
 NSaved= 4 IEnMin= 4 EnMin= -284.010021450200     IErMin= 4 ErrMin= 1.47D-06
 ErrMax= 1.47D-06  0.00D+00 EMaxC= 1.00D-01 BMatC= 1.78D-10 BMatP= 1.07D-09
 IDIUse=1 WtCom= 1.00D+00 WtEn= 0.00D+00
 Coeff-Com:  0.127D+00 0.802D-01 0.307D+00 0.486D+00
 Coeff:      0.127D+00 0.802D-01 0.307D+00 0.486D+00
 Gap=     0.130 Goal=   None    Shift=    0.000
 RMSDP=2.69D-07 MaxDP=3.40D-06 DE=-7.46D-10 OVMax= 4.17D-06

 Cycle  11  Pass 1  IDiag  1:
 E= -284.010021450346     Delta-E=       -0.000000000146 Rises=F Damp=F
 DIIS: error= 3.63D-07 at cycle   5 NSaved=   5.
 NSaved= 5 IEnMin= 5 EnMin= -284.010021450346     IErMin= 5 ErrMin= 3.63D-07
 ErrMax= 3.63D-07  0.00D+00 EMaxC= 1.00D-01 BMatC= 1.21D-11 BMatP= 1.78D-10
 IDIUse=1 WtCom= 1.00D+00 WtEn= 0.00D+00
 Coeff-Com:  0.303D-01 0.246D-01 0.130D+00 0.287D+00 0.528D+00
 Coeff:      0.303D-01 0.246D-01 0.130D+00 0.287D+00 0.528D+00
 Gap=     0.130 Goal=   None    Shift=    0.000
 RMSDP=6.07D-08 MaxDP=6.06D-07 DE=-1.46D-10 OVMax= 9.88D-07

 Cycle  12  Pass 1  IDiag  1:
 E= -284.010021450355     Delta-E=       -0.000000000009 Rises=F Damp=F
 DIIS: error= 9.23D-08 at cycle   6 NSaved=   6.
 NSaved= 6 IEnMin= 6 EnMin= -284.010021450355     IErMin= 6 ErrMin= 9.23D-08
 ErrMax= 9.23D-08  0.00D+00 EMaxC= 1.00D-01 BMatC= 1.06D-12 BMatP= 1.21D-11
 IDIUse=1 WtCom= 1.00D+00 WtEn= 0.00D+00
 Coeff-Com:  0.117D-02 0.412D-02 0.313D-01 0.994D-01 0.285D+00 0.579D+00
 Coeff:      0.117D-02 0.412D-02 0.313D-01 0.994D-01 0.285D+00 0.579D+00
 Gap=     0.130 Goal=   None    Shift=    0.000
 RMSDP=2.54D-08 MaxDP=2.03D-07 DE=-8.92D-12 OVMax= 2.89D-07

 Cycle  13  Pass 1  IDiag  1:
 E= -284.010021450356     Delta-E=       -0.000000000000 Rises=F Damp=F
 DIIS: error= 2.32D-08 at cycle   7 NSaved=   7.
 NSaved= 7 IEnMin= 7 EnMin= -284.010021450356     IErMin= 7 ErrMin= 2.32D-08
 ErrMax= 2.32D-08  0.00D+00 EMaxC= 1.00D-01 BMatC= 4.90D-14 BMatP= 1.06D-12
 IDIUse=1 WtCom= 1.00D+00 WtEn= 0.00D+00
 Coeff-Com: -0.134D-03 0.178D-02 0.148D-01 0.503D-01 0.151D+00 0.333D+00
 Coeff-Com:  0.450D+00
 Coeff:     -0.134D-03 0.178D-02 0.148D-01 0.503D-01 0.151D+00 0.333D+00
 Coeff:      0.450D+00
 Gap=     0.130 Goal=   None    Shift=    0.000
 RMSDP=4.57D-09 MaxDP=5.84D-08 DE=-2.27D-13 OVMax= 6.03D-08

 SCF Done:  E(RPBE-PBE) =  -284.010021450     A.U. after   13 cycles
            NFock= 13  Conv=0.46D-08     -V/T= 2.0055
 KE= 2.824633607573D+02 PE=-1.020742544711D+03 EE= 2.771094716529D+02
 Leave Link  502 at Mon Jan  1 12:05:03 2024, MaxMem=   134217728 cpu:              20.4 elap:               5.2
 (Enter /home/emanuele/chem_software/gaussian//gdv/l701.exe)
 ... and contract with generalized density number  0.
 Compute integral first derivatives.
 Leave Link  701 at Mon Jan  1 12:05:03 2024, MaxMem=   134217728 cpu:               0.3 elap:               0.1
 (Enter /home/emanuele/chem_software/gaussian//gdv/l702.exe)
 L702 exits ... SP integral derivatives will be done elsewhere.
 Leave Link  702 at Mon Jan  1 12:05:03 2024, MaxMem=   134217728 cpu:               0.1 elap:               0.0
 (Enter /home/emanuele/chem_software/gaussian//gdv/l703.exe)
 Integral derivatives from FoFJK, PRISM(SPDF).
 Compute integral first derivatives, UseDBF=F ICtDFT=           0.
 Calling FoFJK, ICntrl=      2527 FMM=F ISym2X=0 I1Cent= 0 IOpClX= 0 NMat=1 NMatS=1 NMatT=0.
 FoFJK:  IHMeth= 1 ICntrl=    2527 DoSepK=F KAlg= 0 I1Cent=           0 FoldK=F
 IRaf=         0 NMat=       1 IRICut=       1 DoRegI=T DoRafI=F ISym2E= 0 IDoP0=0 IntGTp=1.
 FoFCou: FMM=F IPFlag=           0 FMFlag=      100000 FMFlg1=         800
         NFxFlg=           0 DoJE=F BraDBF=F KetDBF=F FulRan=T
         wScrn=  0.000000 ICntrl=      2527 IOpCl=  0 I1Cent=           0 NGrid=           0
         NMat0=    1 NMatS0=      1 NMatT0=    0 NMatD0=    1 NMtDS0=    0 NMtDT0=    0
 Symmetry not used in FoFCou.
 Leave Link  703 at Mon Jan  1 12:05:04 2024, MaxMem=   134217728 cpu:               4.8 elap:               1.2
 (Enter /home/emanuele/chem_software/gaussian//gdv/l716.exe)
 Dipole        =-1.25132562D-01-5.11666466D-01 6.04454458D-01
 -------------------------------------------------------------------
 Center     Atomic                   Forces (Hartrees/Bohr)
 Number     Number              X              Y              Z
 -------------------------------------------------------------------
      1        6           0.003967643   -0.005192937    0.000053387
      2        8          -0.001042738   -0.004484030   -0.000335543
      3        6           0.000120622    0.004566510   -0.001670609
      4        1           0.000726896   -0.001569036    0.000385982
      5        1           0.000861395   -0.000291080    0.000138442
      6        7           0.000344324   -0.000301447    0.007727637
      7        1          -0.002400250   -0.001618469   -0.003300761
      8        1          -0.001514084   -0.001455712   -0.003109122
      9        8          -0.001733951    0.007940956    0.000022261
     10        1           0.000670141    0.002405244    0.000088327
 -------------------------------------------------------------------
 Cartesian Forces:  Max     0.007940956 RMS     0.002928306
 Leave Link  716 at Mon Jan  1 12:05:04 2024, MaxMem=   134217728 cpu:               0.1 elap:               0.0
 (Enter /home/emanuele/chem_software/gaussian//gdv/l103.exe)

 GradGradGradGradGradGradGradGradGradGradGradGradGradGradGradGradGradGrad
 Berny optimization.
 Using GEDIIS/GDIIS optimizer.
 FormGI is forming the generalized inverse of G from B-inverse, IUseBI=4.
 Internal  Forces:  Max     0.007980074 RMS     0.002067440
 Search for a local minimum.
 Step number   2 out of a maximum of  100 on scan point     1 out of    11
 All quantities printed in internal units (Hartrees-Bohrs-Radians)
 RMS Force = .20325D-02 SwitMx=.10000D-02 MixMth= 1
 Mixed Optimization -- RFO/linear search
 Update second derivatives using D2CorX and points    1    2
 DE= -5.83D-03 DEPred=-6.04D-03 R= 9.66D-01
 TightC=F SS=  1.41D+00  RLast= 2.12D-01 DXNew= 5.0454D-01 6.3573D-01
 Trust test= 9.66D-01 RLast= 2.12D-01 DXMaxT set to 5.05D-01
 ITU=  1  0
 Use linear search instead of GDIIS.
     Eigenvalues ---    0.00641   0.01062   0.02157   0.02341   0.04871
     Eigenvalues ---    0.05839   0.09330   0.12854   0.15978   0.16000
     Eigenvalues ---    0.17024   0.21714   0.24959   0.25100   0.31478
     Eigenvalues ---    0.33441   0.34579   0.38850   0.45728   0.46917
     Eigenvalues ---    0.53892   0.54611   0.949811000.000001000.00000
     Eigenvalues --- 1000.000001000.000001000.000001000.000001000.00000
     Eigenvalues --- 1000.000001000.000001000.000001000.000001000.00000
     Eigenvalues --- 1000.00000
 RFO step:  Lambda=-6.86252391D-04 EMin= 6.40593694D-03
 Quartic linear search produced a step of  0.05401.
 Iteration  1 RMS(Cart)=  0.02146716 RMS(Int)=  0.00067276
 Iteration  2 RMS(Cart)=  0.00061994 RMS(Int)=  0.00018654
 Iteration  3 RMS(Cart)=  0.00000018 RMS(Int)=  0.00018654
 Fixing frozen coordinates.
 Iteration  1 RMS(Cart)=  0.00001748 RMS(Int)=  0.00002073
 Iteration  2 RMS(Cart)=  0.00000882 RMS(Int)=  0.00002318
 Iteration  3 RMS(Cart)=  0.00000445 RMS(Int)=  0.00002594
 Iteration  4 RMS(Cart)=  0.00000224 RMS(Int)=  0.00002761
 Iteration  5 RMS(Cart)=  0.00000113 RMS(Int)=  0.00002850
 Iteration  6 RMS(Cart)=  0.00000057 RMS(Int)=  0.00002897
 ITry= 1 IFail=0 DXMaxC= 9.08D-02 DCOld= 1.00D+10 DXMaxT= 5.05D-01 DXLimC= 3.00D+00 Rises=F
 Variable       Old X    -DE/DX   Delta X   Delta X   Delta X     New X
                                 (Linear)    (Quad)   (Total)
    R1        2.61362   0.00151   0.00328   0.00221   0.00550   2.61912
    R2        2.86494  -0.00116   0.00067  -0.00402  -0.00335   2.86159
    R3        2.34072   0.00798   0.00365   0.00732   0.01097   2.35169
    R4        1.87314   0.00080   0.00239   0.00106   0.00345   1.87660
    R5        2.11096   0.00096   0.00167   0.00268   0.00435   2.11531
    R6        2.08638   0.00007   0.00123  -0.00004   0.00119   2.08757
    R7        2.77031  -0.00503   0.00145  -0.01423  -0.01278   2.75753
    R8        1.94199  -0.00227   0.00153  -0.00558  -0.00405   1.93794
    R9        1.93504  -0.00183   0.00142  -0.00449  -0.00307   1.93197
    A1        1.94395  -0.00082  -0.00032  -0.00323  -0.00358   1.94037
    A2        2.15699  -0.00139   0.00054  -0.00574  -0.00524   2.15175
    A3        2.18141   0.00222  -0.00024   0.00956   0.00929   2.19070
    A4        1.93195  -0.00443   0.00327  -0.02958  -0.02631   1.90564
    A5        1.83481   0.00106  -0.00026   0.00615   0.00582   1.84063
    A6        1.88937   0.00078  -0.00011   0.00455   0.00441   1.89378
    A7        1.90934  -0.00067  -0.00114  -0.00366  -0.00483   1.90451
    A8        1.85835  -0.00054   0.00024  -0.00160  -0.00133   1.85702
    A9        2.01704   0.00012   0.00066   0.00205   0.00273   2.01977
   A10        1.94801  -0.00060   0.00057  -0.00643  -0.00583   1.94218
   A11        1.95641  -0.00117   0.00198   0.00266   0.00412   1.96053
   A12        1.98298   0.00013   0.00207   0.01096   0.01252   1.99550
   A13        1.92714   0.00261   0.00169   0.03443   0.03533   1.96247
    D1        3.09211   0.00016  -0.00003   0.00941   0.00933   3.10144
    D2       -0.00744  -0.00008   0.00053  -0.00559  -0.00501  -0.01245
    D3       -1.25053  -0.00004   0.00017  -0.01121  -0.01108  -1.26161
    D4        0.73016   0.00020   0.00027  -0.00810  -0.00784   0.72232
    D5        2.85639  -0.00045   0.00019  -0.01536  -0.01517   2.84122
    D6        1.84831   0.00010  -0.00038   0.00360   0.00322   1.85153
    D7       -2.45418   0.00034  -0.00028   0.00671   0.00646  -2.44773
    D8       -0.32795  -0.00031  -0.00035  -0.00055  -0.00087  -0.32883
    D9        0.59133  -0.00118  -0.00073   0.00659   0.00575   0.59708
   D10        2.79121   0.00151   0.00448   0.06481   0.06944   2.86065
   D11       -1.47459  -0.00214  -0.00000   0.00000  -0.00000  -1.47459
   D12        0.72529   0.00056   0.00521   0.05822   0.06369   0.78898
   D13        2.68189  -0.00102  -0.00126   0.00579   0.00443   2.68631
   D14       -1.40142   0.00167   0.00395   0.06401   0.06812  -1.33330
         Item               Value     Threshold  Converged?
 Maximum Force            0.007980     0.000450     NO 
 RMS     Force            0.002033     0.000300     NO 
 Maximum Displacement     0.090806     0.001800     NO 
 RMS     Displacement     0.021578     0.001200     NO 
 Predicted change in Energy=-3.439689D-04
 Lowest energy point so far.  Saving SCF results.
 GradGradGradGradGradGradGradGradGradGradGradGradGradGradGradGradGradGrad

 Leave Link  103 at Mon Jan  1 12:05:04 2024, MaxMem=   134217728 cpu:               0.0 elap:               0.0
 (Enter /home/emanuele/chem_software/gaussian//gdv/l202.exe)
                          Input orientation:                          
 ---------------------------------------------------------------------
 Center     Atomic      Atomic             Coordinates (Angstroms)
 Number     Number       Type             X           Y           Z
 ---------------------------------------------------------------------
      1          6           0       -0.529132    0.110278    0.024330
      2          8           0       -1.656223   -0.688543   -0.087420
      3          6           0        0.727097   -0.728304    0.132706
      4          1           0        0.699167   -1.176458    1.158074
      5          1           0        0.648915   -1.570429   -0.577973
      6          7           0        1.886500    0.107348   -0.161900
      7          1           0        1.763349    1.072661    0.161645
      8          1           0        2.779876   -0.292340    0.133627
      9          8           0       -0.573934    1.353399    0.060760
     10          1           0       -2.463589   -0.111200   -0.118898
 ---------------------------------------------------------------------
                    Distance matrix (angstroms):
                    1          2          3          4          5
     1  C    0.000000
     2  O    1.385979   0.000000
     3  C    1.514291   2.393794   0.000000
     4  H    2.109450   2.708723   1.119375   0.000000
     5  H    2.139005   2.516352   1.104696   1.780898   0.000000
     6  N    2.422802   3.631787   1.459220   2.190947   2.125952
     7  H    2.490081   3.854523   2.078012   2.680278   2.962250
     8  H    3.335203   4.459239   2.098563   2.482036   2.584740
     9  O    1.244461   2.315778   2.455880   3.037278   3.232972
    10  H    1.952355   0.993053   3.259539   3.573297   3.468108
                    6          7          8          9         10
     6  N    0.000000
     7  H    1.025513   0.000000
     8  H    1.022354   1.702158   0.000000
     9  O    2.766940   2.356244   3.736551   0.000000
    10  H    4.355787   4.398549   5.252666   2.397524   0.000000
 Symmetry turned off by external request.
 Stoichiometry    C2H5NO2
 Framework group  C1[X(C2H5NO2)]
 Deg. of freedom    24
 Full point group                 C1      NOp   1
 Rotational constants (GHZ):           9.8911492           3.9174377           2.8863911
 Leave Link  202 at Mon Jan  1 12:05:04 2024, MaxMem=   134217728 cpu:               0.1 elap:               0.0
 (Enter /home/emanuele/chem_software/gaussian//gdv/l301.exe)
 Standard basis: 6-31G (6D, 7F)
 Ernie: Thresh=  0.10000D-02 Tol=  0.10000D-05 Strict=F.
    55 basis functions,   130 primitive gaussians,    55 cartesian basis functions
    20 alpha electrons       20 beta electrons
       nuclear repulsion energy       177.1361009962 Hartrees.
 IExCor=   10009 DFT=T Ex=PBE Corr=PBE N6=None ScaHFX=  0.000000
 ScaDFX=  1.000000  1.000000  1.000000  1.000000  1.000000  0.000000
 ScaDFX=  0.000000  0.000000  0.000000  0.000000  0.000000  0.000000
 IRadAn=      5 IRanWt=     -1 IRanGd=            0 ICorTp=0 IEmpDi=  4
 NAtoms=   10 NActive=   10 NUniq=   10 SFac= 1.00D+00 NAtFMM=   60 NAOKFM=F Big=F
 Integral buffers will be    131072 words long.
 Raffenetti 2 integral format.
 Two-electron integral symmetry is turned off.
 Leave Link  301 at Mon Jan  1 12:05:05 2024, MaxMem=   134217728 cpu:               0.2 elap:               0.1
 (Enter /home/emanuele/chem_software/gaussian//gdv/l302.exe)
 NPDir=0 NMtPBC=     1 NCelOv=     1 NCel=       1 NClECP=     1 NCelD=      1
         NCelK=      1 NCelE2=     1 NClLst=     1 CellRange=     0.0.
 One-electron integrals computed using PRISM.
 NBasis=    55 RedAO= T EigKep=  6.03D-03  NBF=    55
 NBsUse=    55 1.00D-06 EigRej= -1.00D+00 NBFU=    55
 Precomputing XC quadrature grid using
 IXCGrd= 4 IRadAn=           5 IRanWt=          -1 IRanGd=           0 AccXCQ= 0.00D+00.
 Generated NRdTot=       0 NPtTot=      219293 NUsed=           0 NTot=          64
 NSgBfM=    55    55    55    55    55 MxSgAt=    10 MxSgA2=    10 SizInc=   0.000
 NMBTot=     1883 MaxBatPerAtom=       84 MaxMicBPerAtom=      197.
 Leave Link  302 at Mon Jan  1 12:05:05 2024, MaxMem=   134217728 cpu:               0.6 elap:               0.2
 (Enter /home/emanuele/chem_software/gaussian//gdv/l303.exe)
 DipDrv:  MaxL=1.
 Leave Link  303 at Mon Jan  1 12:05:05 2024, MaxMem=   134217728 cpu:               0.2 elap:               0.0
 (Enter /home/emanuele/chem_software/gaussian//gdv/l401.exe)
 Initial guess from the checkpoint file:  "1_qm.chk"
 B after Tr=    -0.005740    0.000067    0.006820
         Rot=    0.999998   -0.000595    0.001713   -0.001147 Ang=  -0.25 deg.
 AO Guess basis will be translated and rotated to current coordinates.
 JPrj=2 DoOrth=T DoCkMO=T.
 Generating alternative initial guess.
 ExpMin= 1.61D-01 ExpMax= 5.48D+03 ExpMxC= 8.25D+02 IAcc=3 IRadAn=         5 AccDes= 0.00D+00
 Harris functional with IExCor=10009 and IRadAn=       5 diagonalized for initial guess.
 HarFok:  IExCor=   10009 AccDes= 0.00D+00 IRadAn=         5 IDoV= 1 UseB2=F ITyADJ=14 ICtDFT=  3500011
 FoFCou: FMM=F IPFlag=           0 FMFlag=      100000 FMFlg1=           0
         NFxFlg=           0 DoJE=T BraDBF=F KetDBF=T FulRan=T
         wScrn=  0.000000 ICntrl=       500 IOpCl=  0 I1Cent=   200000004 NGrid=           0
         NMat0=    1 NMatS0=      1 NMatT0=    0 NMatD0=    1 NMtDS0=    0 NMtDT0=    0
 Symmetry not used in FoFCou.
 Harris En= -284.093976387743    
 Leave Link  401 at Mon Jan  1 12:05:05 2024, MaxMem=   134217728 cpu:               2.4 elap:               0.6
 (Enter /home/emanuele/chem_software/gaussian//gdv/l502.exe)
 Keep J ints in memory in canonical form, NReq=4700713.
 FoFCou: FMM=F IPFlag=           0 FMFlag=           0 FMFlg1=           0
         NFxFlg=           0 DoJE=F BraDBF=F KetDBF=F FulRan=T
         wScrn=  0.000000 ICntrl=       600 IOpCl=  0 I1Cent=           0 NGrid=           0
         NMat0=    1 NMatS0=   1540 NMatT0=    0 NMatD0=    1 NMtDS0=    0 NMtDT0=    0
 Symmetry not used in FoFCou.
 Two-electron integral symmetry not used.
 Closed shell SCF:
 Using DIIS extrapolation, IDIIS=  1040.
 NGot=   134217728 LenX=   133023731 LenY=   133020265
 Requested convergence on RMS density matrix=1.00D-08 within 128 cycles.
 Requested convergence on MAX density matrix=1.00D-06.
 Requested convergence on             energy=1.00D-06.
 No special actions if energy rises.
 Integral accuracy reduced to 1.0D-05 until final iterations.

 Cycle   1  Pass 0  IDiag  1:
 E= -284.009838232503    
 DIIS: error= 2.19D-03 at cycle   1 NSaved=   1.
 NSaved= 1 IEnMin= 1 EnMin= -284.009838232503     IErMin= 1 ErrMin= 2.19D-03
 ErrMax= 2.19D-03  0.00D+00 EMaxC= 1.00D-01 BMatC= 2.97D-04 BMatP= 2.97D-04
 IDIUse=3 WtCom= 9.78D-01 WtEn= 2.19D-02
 Coeff-Com:  0.100D+01
 Coeff-En:   0.100D+01
 Coeff:      0.100D+01
 Gap=     0.522 Goal=   None    Shift=    0.000
 GapD=    0.522 DampG=2.000 DampE=1.000 DampFc=2.0000 IDamp=-1.
 RMSDP=8.70D-04 MaxDP=1.18D-02              OVMax= 1.24D-02

 Cycle   2  Pass 0  IDiag  1:
 E= -284.010437312677     Delta-E=       -0.000599080174 Rises=F Damp=F
 DIIS: error= 4.84D-04 at cycle   2 NSaved=   2.
 NSaved= 2 IEnMin= 2 EnMin= -284.010437312677     IErMin= 2 ErrMin= 4.84D-04
 ErrMax= 4.84D-04  0.00D+00 EMaxC= 1.00D-01 BMatC= 2.90D-05 BMatP= 2.97D-04
 IDIUse=3 WtCom= 9.95D-01 WtEn= 4.84D-03
 Coeff-Com:  0.129D+00 0.871D+00
 Coeff-En:   0.000D+00 0.100D+01
 Coeff:      0.129D+00 0.871D+00
 Gap=     0.125 Goal=   None    Shift=    0.000
 RMSDP=2.64D-04 MaxDP=2.72D-03 DE=-5.99D-04 OVMax= 5.00D-03

 Cycle   3  Pass 0  IDiag  1:
 E= -284.010381986681     Delta-E=        0.000055325996 Rises=F Damp=F
 DIIS: error= 1.27D-03 at cycle   3 NSaved=   3.
 NSaved= 3 IEnMin= 2 EnMin= -284.010437312677     IErMin= 2 ErrMin= 4.84D-04
 ErrMax= 1.27D-03  0.00D+00 EMaxC= 1.00D-01 BMatC= 1.01D-04 BMatP= 2.90D-05
 IDIUse=3 WtCom= 2.19D-01 WtEn= 7.81D-01
 Coeff-Com:  0.305D-01 0.645D+00 0.324D+00
 Coeff-En:   0.000D+00 0.707D+00 0.293D+00
 Coeff:      0.669D-02 0.694D+00 0.300D+00
 Gap=     0.126 Goal=   None    Shift=    0.000
 RMSDP=1.58D-04 MaxDP=1.92D-03 DE= 5.53D-05 OVMax= 4.27D-03

 Cycle   4  Pass 0  IDiag  1:
 E= -284.010460190873     Delta-E=       -0.000078204193 Rises=F Damp=F
 DIIS: error= 2.61D-04 at cycle   4 NSaved=   4.
 NSaved= 4 IEnMin= 4 EnMin= -284.010460190873     IErMin= 4 ErrMin= 2.61D-04
 ErrMax= 2.61D-04  0.00D+00 EMaxC= 1.00D-01 BMatC= 6.55D-06 BMatP= 2.90D-05
 IDIUse=3 WtCom= 9.97D-01 WtEn= 2.61D-03
 Coeff-Com:  0.798D-02 0.404D+00 0.200D+00 0.389D+00
 Coeff-En:   0.000D+00 0.145D-01 0.000D+00 0.986D+00
 Coeff:      0.796D-02 0.403D+00 0.199D+00 0.390D+00
 Gap=     0.127 Goal=   None    Shift=    0.000
 RMSDP=5.48D-05 MaxDP=6.95D-04 DE=-7.82D-05 OVMax= 8.60D-04

 Cycle   5  Pass 0  IDiag  1:
 E= -284.010465181781     Delta-E=       -0.000004990908 Rises=F Damp=F
 DIIS: error= 9.39D-05 at cycle   5 NSaved=   5.
 NSaved= 5 IEnMin= 5 EnMin= -284.010465181781     IErMin= 5 ErrMin= 9.39D-05
 ErrMax= 9.39D-05  0.00D+00 EMaxC= 1.00D-01 BMatC= 6.87D-07 BMatP= 6.55D-06
 IDIUse=1 WtCom= 1.00D+00 WtEn= 0.00D+00
 Coeff-Com:  0.101D-02 0.149D+00 0.695D-01 0.264D+00 0.517D+00
 Coeff:      0.101D-02 0.149D+00 0.695D-01 0.264D+00 0.517D+00
 Gap=     0.127 Goal=   None    Shift=    0.000
 RMSDP=1.69D-05 MaxDP=2.04D-04 DE=-4.99D-06 OVMax= 2.44D-04

 Cycle   6  Pass 0  IDiag  1:
 E= -284.010465741745     Delta-E=       -0.000000559964 Rises=F Damp=F
 DIIS: error= 2.57D-05 at cycle   6 NSaved=   6.
 NSaved= 6 IEnMin= 6 EnMin= -284.010465741745     IErMin= 6 ErrMin= 2.57D-05
 ErrMax= 2.57D-05  0.00D+00 EMaxC= 1.00D-01 BMatC= 6.00D-08 BMatP= 6.87D-07
 IDIUse=1 WtCom= 1.00D+00 WtEn= 0.00D+00
 Coeff-Com:  0.245D-03 0.687D-01 0.305D-01 0.145D+00 0.335D+00 0.421D+00
 Coeff:      0.245D-03 0.687D-01 0.305D-01 0.145D+00 0.335D+00 0.421D+00
 Gap=     0.127 Goal=   None    Shift=    0.000
 RMSDP=4.11D-06 MaxDP=5.60D-05 DE=-5.60D-07 OVMax= 6.61D-05

 Initial convergence to 1.0D-05 achieved.  Increase integral accuracy.
 Cycle   7  Pass 1  IDiag  1:
 E= -284.010472381906     Delta-E=       -0.000006640161 Rises=F Damp=F
 DIIS: error= 4.91D-06 at cycle   1 NSaved=   1.
 NSaved= 1 IEnMin= 1 EnMin= -284.010472381906     IErMin= 1 ErrMin= 4.91D-06
 ErrMax= 4.91D-06  0.00D+00 EMaxC= 1.00D-01 BMatC= 1.76D-09 BMatP= 1.76D-09
 IDIUse=1 WtCom= 1.00D+00 WtEn= 0.00D+00
 Coeff-Com:  0.100D+01
 Coeff:      0.100D+01
 Gap=     0.127 Goal=   None    Shift=    0.000
 RMSDP=4.11D-06 MaxDP=5.60D-05 DE=-6.64D-06 OVMax= 1.90D-05

 Cycle   8  Pass 1  IDiag  1:
 E= -284.010472380075     Delta-E=        0.000000001831 Rises=F Damp=F
 DIIS: error= 7.63D-06 at cycle   2 NSaved=   2.
 NSaved= 2 IEnMin= 1 EnMin= -284.010472381906     IErMin= 1 ErrMin= 4.91D-06
 ErrMax= 7.63D-06  0.00D+00 EMaxC= 1.00D-01 BMatC= 4.45D-09 BMatP= 1.76D-09
 IDIUse=1 WtCom= 1.00D+00 WtEn= 0.00D+00
 Coeff-Com:  0.621D+00 0.379D+00
 Coeff:      0.621D+00 0.379D+00
 Gap=     0.127 Goal=   None    Shift=    0.000
 RMSDP=1.04D-06 MaxDP=1.43D-05 DE= 1.83D-09 OVMax= 1.28D-05

 Cycle   9  Pass 1  IDiag  1:
 E= -284.010472383674     Delta-E=       -0.000000003599 Rises=F Damp=F
 DIIS: error= 1.00D-06 at cycle   3 NSaved=   3.
 NSaved= 3 IEnMin= 3 EnMin= -284.010472383674     IErMin= 3 ErrMin= 1.00D-06
 ErrMax= 1.00D-06  0.00D+00 EMaxC= 1.00D-01 BMatC= 8.32D-11 BMatP= 1.76D-09
 IDIUse=1 WtCom= 1.00D+00 WtEn= 0.00D+00
 Coeff-Com:  0.170D+00 0.160D+00 0.671D+00
 Coeff:      0.170D+00 0.160D+00 0.671D+00
 Gap=     0.127 Goal=   None    Shift=    0.000
 RMSDP=2.65D-07 MaxDP=3.66D-06 DE=-3.60D-09 OVMax= 4.38D-06

 Cycle  10  Pass 1  IDiag  1:
 E= -284.010472383692     Delta-E=       -0.000000000018 Rises=F Damp=F
 DIIS: error= 9.65D-07 at cycle   4 NSaved=   4.
 NSaved= 4 IEnMin= 4 EnMin= -284.010472383692     IErMin= 4 ErrMin= 9.65D-07
 ErrMax= 9.65D-07  0.00D+00 EMaxC= 1.00D-01 BMatC= 6.79D-11 BMatP= 8.32D-11
 IDIUse=1 WtCom= 1.00D+00 WtEn= 0.00D+00
 Coeff-Com:  0.441D-01 0.681D-01 0.507D+00 0.381D+00
 Coeff:      0.441D-01 0.681D-01 0.507D+00 0.381D+00
 Gap=     0.127 Goal=   None    Shift=    0.000
 RMSDP=1.52D-07 MaxDP=2.33D-06 DE=-1.78D-11 OVMax= 3.25D-06

 Cycle  11  Pass 1  IDiag  1:
 E= -284.010472383742     Delta-E=       -0.000000000050 Rises=F Damp=F
 DIIS: error= 4.55D-07 at cycle   5 NSaved=   5.
 NSaved= 5 IEnMin= 5 EnMin= -284.010472383742     IErMin= 5 ErrMin= 4.55D-07
 ErrMax= 4.55D-07  0.00D+00 EMaxC= 1.00D-01 BMatC= 9.52D-12 BMatP= 6.79D-11
 IDIUse=1 WtCom= 1.00D+00 WtEn= 0.00D+00
 Coeff-Com:  0.129D-01 0.325D-01 0.309D+00 0.288D+00 0.357D+00
 Coeff:      0.129D-01 0.325D-01 0.309D+00 0.288D+00 0.357D+00
 Gap=     0.127 Goal=   None    Shift=    0.000
 RMSDP=6.03D-08 MaxDP=8.18D-07 DE=-5.02D-11 OVMax= 1.65D-06

 Cycle  12  Pass 1  IDiag  1:
 E= -284.010472383750     Delta-E=       -0.000000000008 Rises=F Damp=F
 DIIS: error= 1.23D-07 at cycle   6 NSaved=   6.
 NSaved= 6 IEnMin= 6 EnMin= -284.010472383750     IErMin= 6 ErrMin= 1.23D-07
 ErrMax= 1.23D-07  0.00D+00 EMaxC= 1.00D-01 BMatC= 1.04D-12 BMatP= 9.52D-12
 IDIUse=1 WtCom= 1.00D+00 WtEn= 0.00D+00
 Coeff-Com:  0.821D-03 0.108D-01 0.131D+00 0.138D+00 0.261D+00 0.458D+00
 Coeff:      0.821D-03 0.108D-01 0.131D+00 0.138D+00 0.261D+00 0.458D+00
 Gap=     0.127 Goal=   None    Shift=    0.000
 RMSDP=1.83D-08 MaxDP=2.16D-07 DE=-7.96D-12 OVMax= 3.68D-07

 Cycle  13  Pass 1  IDiag  1:
 E= -284.010472383751     Delta-E=       -0.000000000001 Rises=F Damp=F
 DIIS: error= 1.70D-08 at cycle   7 NSaved=   7.
 NSaved= 7 IEnMin= 7 EnMin= -284.010472383751     IErMin= 7 ErrMin= 1.70D-08
 ErrMax= 1.70D-08  0.00D+00 EMaxC= 1.00D-01 BMatC= 3.34D-14 BMatP= 1.04D-12
 IDIUse=1 WtCom= 1.00D+00 WtEn= 0.00D+00
 Coeff-Com: -0.380D-03 0.363D-02 0.484D-01 0.544D-01 0.112D+00 0.245D+00
 Coeff-Com:  0.537D+00
 Coeff:     -0.380D-03 0.363D-02 0.484D-01 0.544D-01 0.112D+00 0.245D+00
 Coeff:      0.537D+00
 Gap=     0.127 Goal=   None    Shift=    0.000
 RMSDP=4.04D-09 MaxDP=2.85D-08 DE=-1.02D-12 OVMax= 3.77D-08

 SCF Done:  E(RPBE-PBE) =  -284.010472384     A.U. after   13 cycles
            NFock= 13  Conv=0.40D-08     -V/T= 2.0055
 KE= 2.824492081915D+02 PE=-1.020692379434D+03 EE= 2.770965978623D+02
 Leave Link  502 at Mon Jan  1 12:05:11 2024, MaxMem=   134217728 cpu:              20.7 elap:               5.3
 (Enter /home/emanuele/chem_software/gaussian//gdv/l701.exe)
 ... and contract with generalized density number  0.
 Compute integral first derivatives.
 Leave Link  701 at Mon Jan  1 12:05:11 2024, MaxMem=   134217728 cpu:               0.3 elap:               0.1
 (Enter /home/emanuele/chem_software/gaussian//gdv/l702.exe)
 L702 exits ... SP integral derivatives will be done elsewhere.
 Leave Link  702 at Mon Jan  1 12:05:11 2024, MaxMem=   134217728 cpu:               0.1 elap:               0.0
 (Enter /home/emanuele/chem_software/gaussian//gdv/l703.exe)
 Integral derivatives from FoFJK, PRISM(SPDF).
 Compute integral first derivatives, UseDBF=F ICtDFT=           0.
 Calling FoFJK, ICntrl=      2527 FMM=F ISym2X=0 I1Cent= 0 IOpClX= 0 NMat=1 NMatS=1 NMatT=0.
 FoFJK:  IHMeth= 1 ICntrl=    2527 DoSepK=F KAlg= 0 I1Cent=           0 FoldK=F
 IRaf=         0 NMat=       1 IRICut=       1 DoRegI=T DoRafI=F ISym2E= 0 IDoP0=0 IntGTp=1.
 FoFCou: FMM=F IPFlag=           0 FMFlag=      100000 FMFlg1=         800
         NFxFlg=           0 DoJE=F BraDBF=F KetDBF=F FulRan=T
         wScrn=  0.000000 ICntrl=      2527 IOpCl=  0 I1Cent=           0 NGrid=           0
         NMat0=    1 NMatS0=      1 NMatT0=    0 NMatD0=    1 NMtDS0=    0 NMtDT0=    0
 Symmetry not used in FoFCou.
 Leave Link  703 at Mon Jan  1 12:05:12 2024, MaxMem=   134217728 cpu:               4.9 elap:               1.3
 (Enter /home/emanuele/chem_software/gaussian//gdv/l716.exe)
 Dipole        =-7.13896044D-02-5.18971410D-01 5.62115809D-01
 -------------------------------------------------------------------
 Center     Atomic                   Forces (Hartrees/Bohr)
 Number     Number              X              Y              Z
 -------------------------------------------------------------------
      1        6           0.001886242   -0.000909382   -0.001385915
      2        8          -0.000996513   -0.000091077    0.000299559
      3        6           0.000464188    0.003422728   -0.001054752
      4        1           0.000314089   -0.001045137   -0.000247354
      5        1          -0.000270682   -0.000188775    0.000520613
      6        7           0.001047054   -0.000034112    0.005811464
[...]
         Item               Value     Threshold  Converged?
 Maximum Force            0.000036     0.000450     YES
 RMS     Force            0.000012     0.000300     YES
 Maximum Displacement     0.001489     0.001800     YES
 RMS     Displacement     0.000447     0.001200     YES
 Predicted change in Energy=-2.928136D-08
 Optimization completed.
    -- Stationary point found.
                           ----------------------------
                           !   Optimized Parameters   !
                           ! (Angstroms and Degrees)  !
 --------------------------                            --------------------------
 ! Name  Definition              Value          Derivative Info.                !
 --------------------------------------------------------------------------------
 ! R1    R(1,2)                  1.3884         -DE/DX =    0.0                 !
 ! R2    R(1,3)                  1.5122         -DE/DX =    0.0                 !
 ! R3    R(1,9)                  1.2441         -DE/DX =    0.0                 !
 ! R4    R(2,10)                 0.9933         -DE/DX =    0.0                 !
 ! R5    R(3,4)                  1.1217         -DE/DX =    0.0                 !
 ! R6    R(3,5)                  1.1055         -DE/DX =    0.0                 !
 ! R7    R(3,6)                  1.4466         -DE/DX =    0.0                 !
 ! R8    R(6,7)                  1.0183         -DE/DX =    0.0                 !
 ! R9    R(6,8)                  1.0153         -DE/DX =    0.0                 !
 ! A1    A(2,1,3)              111.4015         -DE/DX =    0.0                 !
 ! A2    A(2,1,9)              122.9001         -DE/DX =    0.0                 !
 ! A3    A(3,1,9)              125.6497         -DE/DX =    0.0                 !
 ! A4    A(1,2,10)             108.7654         -DE/DX =    0.0                 !
 ! A5    A(1,3,4)              105.3185         -DE/DX =    0.0002              !
 ! A6    A(1,3,5)              108.3184         -DE/DX =    0.0                 !
 ! A7    A(1,3,6)              109.4702         -DE/DX =    0.0001              !
 ! A8    A(4,3,5)              105.7132         -DE/DX =   -0.0002              !
 ! A9    A(4,3,6)              116.0301         -DE/DX =   -0.0001              !
 ! A10   A(5,3,6)              111.567          -DE/DX =   -0.0001              !
 ! A11   A(3,6,7)              114.8933         -DE/DX =    0.0001              !
 ! A12   A(3,6,8)              116.7338         -DE/DX =    0.0001              !
 ! A13   A(7,6,8)              115.3847         -DE/DX =    0.0001              !
 ! D1    D(3,1,2,10)           177.1949         -DE/DX =    0.0                 !
 ! D2    D(9,1,2,10)            -0.3974         -DE/DX =    0.0                 !
 ! D3    D(2,1,3,4)            -69.0639         -DE/DX =    0.0001              !
 ! D4    D(2,1,3,5)             43.6714         -DE/DX =    0.0                 !
 ! D5    D(2,1,3,6)            165.5246         -DE/DX =   -0.0001              !
 ! D6    D(9,1,3,4)            108.4483         -DE/DX =    0.0001              !
 ! D7    D(9,1,3,5)           -138.8164         -DE/DX =    0.0                 !
 ! D8    D(9,1,3,6)            -16.9633         -DE/DX =   -0.0001              !
 ! D9    D(1,3,6,7)             34.492          -DE/DX =   -0.0003              !
 ! D10   D(1,3,6,8)            174.2125         -DE/DX =    0.0001              !
 ! D11   D(4,3,6,7)            -84.4878         -DE/DX =   -0.0006              !
 ! D12   D(4,3,6,8)             55.2327         -DE/DX =   -0.0002              !
 ! D13   D(5,3,6,7)            154.3727         -DE/DX =   -0.0003              !
 ! D14   D(5,3,6,8)            -65.9068         -DE/DX =    0.0001              !
 --------------------------------------------------------------------------------
 Lowest energy point so far.  Saving SCF results.
 Summary of Optimized Potential Surface Scan (add -284.0 to energies):
                           1         2         3         4         5
     Eigenvalues --    -0.01078  -0.01423  -0.01235  -0.01105  -0.01078
           R1           1.38842   1.39206   1.39021   1.38742   1.38855
           R2           1.51229   1.52806   1.52337   1.51397   1.51247
           R3           1.24411   1.24362   1.24421   1.24521   1.24422
           R4           0.99333   0.99395   0.99367   0.99305   0.99322
           R5           1.12166   1.10451   1.10438   1.11200   1.12149
           R6           1.10554   1.10662   1.11163   1.11289   1.10701
           R7           1.44655   1.44965   1.44672   1.44458   1.44051
           R8           1.01829   1.02064   1.01530   1.01269   1.01196
           R9           1.01526   1.02118   1.01835   1.01715   1.01525
           A1         111.39595 111.21830 111.40224 111.49084 111.38061
           A2         122.89743 122.77473 122.81233 122.86724 122.86983
           A3         125.65785 126.00200 125.74228 125.63653 125.70990
           A4         108.76551 109.00933 108.98762 108.85817 108.74279
           A5         105.31918 107.82041 107.50825 106.78121 105.35700
           A6         108.30750 107.48897 106.53796 106.73540 108.03936
           A7         109.48701 114.90591 112.97375 110.42766 109.54467
           A8         105.70450 105.59237 105.79038 105.31858 105.51875
           A9         116.03337 110.01839 110.88907 113.55210 115.87819
           A10        111.56432 110.55634 112.71569 113.53472 112.03230
           A11        114.92612 114.15841 116.46744 117.98548 118.70327
           A12        116.76307 114.00124 114.98207 115.31203 116.56452
           A13        115.40361 111.13473 114.09737 116.31254 117.61918
           D1         177.19320-179.06978-177.48049-179.32644 177.46368
           D2          -0.39700   0.16320   0.25521  -0.12813  -0.36441
           D3         -69.03896 -54.52151 -53.66990 -59.60201 -66.24990
           D4          43.68199  58.88854  59.36680  52.65839  46.16116
           D5         165.53524-177.59395-176.34149 176.50259 168.45484
           D6         108.47072 126.27567 128.67478 121.22652 111.50347
           D7        -138.80833-120.31428-118.28852-126.51308-136.08548
           D8         -16.95508   3.20323   6.00319  -2.66888 -13.79180
           D9          34.50763  73.40114 108.27858 143.40863 178.49543
           D10        174.34284 -55.81823 -29.04057  -0.35593  28.64741
           D11        -84.48785 -48.48777 -12.48793  23.51198  59.51207
           D12         55.34736-177.70714-149.80708-120.25258 -90.33595
           D13        154.38405-164.72932-130.88135 -96.76540 -61.62673
           D14        -65.78074  66.05130  91.79950 119.47004 148.52525
                           6         7         8         9        10
     Eigenvalues --    -0.01104  -0.01244  -0.01429  -0.01324  -0.01109
           R1           1.38752   1.39028   1.39202   1.38979   1.38722
           R2           1.51340   1.52132   1.52727   1.52487   1.51461
           R3           1.24516   1.24426   1.24366   1.24448   1.24530
           R4           0.99313   0.99367   0.99392   0.99391   0.99311
           R5           1.11281   1.11189   1.10637   1.10357   1.11110
           R6           1.11260   1.10480   1.10494   1.10841   1.11196
           R7           1.44471   1.44664   1.45010   1.45591   1.44873
           R8           1.01291   1.01545   1.02105   1.02390   1.01921
           R9           1.01734   1.01831   1.02140   1.02182   1.01462
           A1         111.48843 111.41910 111.22106 111.50304 111.52144
           A2         122.88338 122.81521 122.77822 122.83142 122.88056
           A3         125.62449 125.72388 125.99838 125.63792 125.59161
           A4         108.83825 108.97478 109.00853 109.08213 108.90005
           A5         106.90927 107.16253 107.76477 107.70941 106.78062
           A6         106.82858 108.11727 107.98786 107.06735 106.82698
           A7         110.39618 113.48373 115.08496 113.84344 110.69214
           A8         105.11120 104.56559 105.15994 106.06549 105.44153
           A9         113.47090 112.47802 110.35985 110.39027 113.37556
           A10        113.64108 110.54583 109.98149 111.38240 113.25255
           A11        117.96625 116.39425 113.99673 112.49242 114.24105
           A12        115.26950 115.05211 113.89000 113.28916 116.80805
           A13        116.29721 114.00182 110.91332 109.85805 114.76651
           D1         179.49497 177.51782 179.35697-177.82069-179.24312
           D2           0.15913  -0.25274  -0.11639   0.36551  -0.11660
           D3         -52.29184 -58.92012 -58.08951 -52.90716 -60.05441
           D4          59.83216  53.28876  55.03593  60.79125  52.38677
           D5        -176.15134 176.29730 178.31266-175.65887 176.10552
           D6         127.02200 118.77190 121.36319 128.96816 120.84766
           D7        -120.85400-129.01922-125.51137-117.33343-126.71116
           D8           3.16251  -6.01068  -2.23464   6.21645  -2.99241
           D9        -144.50442-106.62022 -70.27596 -35.21715  -0.52297
           D10         -0.86370  30.53752  58.37053  90.12807 137.40369
           D11         95.51212 131.51246 167.51224-156.48788-120.48792
           D12       -120.84715 -91.32980 -63.84128 -31.14267  17.43874
           D13        -24.50885  15.04234  51.93413  85.95737 119.41743
           D14        119.13187 152.20008-179.41938-148.69742-102.65591
                          11
     Eigenvalues --    -0.01078
           R1           1.38842
           R2           1.51221
           R3           1.24410
           R4           0.99334
           R5           1.12165
           R6           1.10553
           R7           1.44664
           R8           1.01834
           R9           1.01531
           A1         111.40154
           A2         122.90009
           A3         125.64970
           A4         108.76541
           A5         105.31849
           A6         108.31840
           A7         109.47023
           A8         105.71321
           A9         116.03014
           A10        111.56703
           A11        114.89330
           A12        116.73382
           A13        115.38473
           D1         177.19490
           D2          -0.39741
           D3         -69.06387
           D4          43.67144
           D5         165.52455
           D6         108.44832
           D7        -138.81638
           D8         -16.96326
           D9          34.49198
           D10        174.21246
           D11        -84.48776
           D12         55.23272
           D13        154.37267
           D14        -65.90685
 Largest change from initial coordinates is atom    9       0.782 Angstoms.
 GradGradGradGradGradGradGradGradGradGradGradGradGradGradGradGradGradGrad

 Leave Link  103 at Mon Jan  1 12:18:54 2024, MaxMem=   134217728 cpu:               0.0 elap:               0.0
 (Enter /home/emanuele/chem_software/gaussian//gdv/l202.exe)
                          Input orientation:                          
 ---------------------------------------------------------------------
 Center     Atomic      Atomic             Coordinates (Angstroms)
 Number     Number       Type             X           Y           Z
 ---------------------------------------------------------------------
      1          6           0       -0.466944   -0.101888   -0.367985
      2          8           0       -1.616497   -0.836281   -0.109335
      3          6           0        0.651635   -0.476318    0.578254
      4          1           0        0.330011   -0.095043    1.582890
      5          1           0        0.675380   -1.577810    0.669613
      6          7           0        1.904158    0.042540    0.073525
      7          1           0        1.834423    0.936541   -0.409090
      8          1           0        2.717872   -0.067393    0.670723
      9          8           0       -0.411358    0.780370   -1.243378
     10          1           0       -2.336656   -0.528306   -0.720267
 ---------------------------------------------------------------------
                    Distance matrix (angstroms):
                    1          2          3          4          5
     1  C    0.000000
     2  O    1.388419   0.000000
     3  C    1.512212   2.397243   0.000000
     4  H    2.107391   2.683645   1.121653   0.000000
     5  H    2.135383   2.531665   1.105529   1.775373   0.000000
     6  N    2.416178   3.633287   1.446644   2.185189   2.119139
     7  H    2.525136   3.891221   2.090456   2.701001   2.971354
     8  H    3.350098   4.470619   2.108342   2.556305   2.540302
     9  O    1.244099   2.313434   2.455110   3.050208   3.225143
    10  H    1.949810   0.993335   3.258641   3.550121   3.479308
                    6          7          8          9         10
     6  N    0.000000
     7  H    1.018341   0.000000
     8  H    1.015313   1.718826   0.000000
     9  O    2.764099   2.400824   3.764913   0.000000
    10  H    4.352066   4.431761   5.262656   2.386012   0.000000
 Symmetry turned off by external request.
 Stoichiometry    C2H5NO2
 Framework group  C1[X(C2H5NO2)]
 Deg. of freedom    24
 Full point group                 C1      NOp   1
 Rotational constants (GHZ):           9.9557788           3.9141185           2.8818156
 Leave Link  202 at Mon Jan  1 12:18:54 2024, MaxMem=   134217728 cpu:               0.1 elap:               0.0
 (Enter /home/emanuele/chem_software/gaussian//gdv/l601.exe)
 Copying SCF densities to generalized density rwf, IOpCl= 0 IROHF=0.

 **********************************************************************

            Population analysis using the SCF Density.

 **********************************************************************

 Alpha  occ. eigenvalues --      -18.82254     -18.77521     -13.97391     -10.03469      -9.93975
 Alpha  occ. eigenvalues --       -1.02190      -0.94098      -0.80662      -0.66049      -0.54757
 Alpha  occ. eigenvalues --       -0.47574      -0.43117      -0.41948      -0.39841      -0.38059
 Alpha  occ. eigenvalues --       -0.34864      -0.33159      -0.27539      -0.23534      -0.16967
 Alpha virt. eigenvalues --       -0.04409       0.03167       0.06438       0.09972       0.12686
 Alpha virt. eigenvalues --        0.14121       0.17603       0.19181       0.24706       0.30863
 Alpha virt. eigenvalues --        0.50712       0.52681       0.54739       0.57903       0.60631
 Alpha virt. eigenvalues --        0.64417       0.67968       0.72674       0.75080       0.77149
 Alpha virt. eigenvalues --        0.83745       0.86608       0.87453       0.88415       0.90933
 Alpha virt. eigenvalues --        0.92017       0.96313       1.02695       1.03291       1.13306
 Alpha virt. eigenvalues --        1.14006       1.28030       1.53094       1.69508       1.81009
          Condensed to atoms (all electrons):
               1          2          3          4          5          6
     1  C    4.856944   0.156308   0.164906  -0.041314  -0.012487  -0.040889
     2  O    0.156308   8.360730  -0.120573   0.003630   0.004025   0.002122
     3  C    0.164906  -0.120573   5.333825   0.346639   0.344689   0.287074
     4  H   -0.041314   0.003630   0.346639   0.637413  -0.051946  -0.059685
     5  H   -0.012487   0.004025   0.344689  -0.051946   0.562211  -0.048382
     6  N   -0.040889   0.002122   0.287074  -0.059685  -0.048382   6.921161
     7  H   -0.002757   0.000546  -0.047189   0.000732   0.004705   0.322461
     8  H    0.006313  -0.000059  -0.033220  -0.002286  -0.001461   0.324764
     9  O    0.486225  -0.102383  -0.109796  -0.000624   0.002233  -0.002518
    10  H   -0.007923   0.210854   0.011720  -0.000574  -0.000259  -0.000224
               7          8          9         10
     1  C   -0.002757   0.006313   0.486225  -0.007923
     2  O    0.000546  -0.000059  -0.102383   0.210854
     3  C   -0.047189  -0.033220  -0.109796   0.011720
     4  H    0.000732  -0.002286  -0.000624  -0.000574
     5  H    0.004705  -0.001461   0.002233  -0.000259
     6  N    0.322461   0.324764  -0.002518  -0.000224
     7  H    0.422814  -0.029345   0.018194  -0.000028
     8  H   -0.029345   0.441678   0.000334   0.000004
     9  O    0.018194   0.000334   8.085433   0.006152
    10  H   -0.000028   0.000004   0.006152   0.400374
 Mulliken charges:
               1
     1  C    0.434672
     2  O   -0.515201
     3  C   -0.178076
     4  H    0.168015
     5  H    0.196672
     6  N   -0.705883
     7  H    0.309866
     8  H    0.293278
     9  O   -0.383250
    10  H    0.379905
 Sum of Mulliken charges =  -0.00000
 Mulliken charges with hydrogens summed into heavy atoms:
               1
     1  C    0.434672
     2  O   -0.135295
     3  C    0.186612
     6  N   -0.102739
     9  O   -0.383250
 Electronic spatial extent (au):  <R**2>=            432.2149
 Charge=             -0.0000 electrons
 Dipole moment (field-independent basis, Debye):
    X=             -0.3364    Y=             -0.1295    Z=              1.7306  Tot=              1.7677
 Quadrupole moment (field-independent basis, Debye-Ang):
   XX=            -23.1792   YY=            -31.0635   ZZ=            -31.1982
   XY=              1.4574   XZ=              4.8812   YZ=              1.6834
 Traceless Quadrupole moment (field-independent basis, Debye-Ang):
   XX=              5.3011   YY=             -2.5832   ZZ=             -2.7179
   XY=              1.4574   XZ=              4.8812   YZ=              1.6834
 Octapole moment (field-independent basis, Debye-Ang**2):
  XXX=            -13.8110  YYY=             12.4717  ZZZ=             17.5601  XYY=              1.7860
  XXY=              8.1708  XXZ=              3.6967  XZZ=             -2.8078  YZZ=              0.5046
  YYZ=              5.9037  XYZ=             -5.2539
 Hexadecapole moment (field-independent basis, Debye-Ang**3):
 XXXX=           -233.7685 YYYY=            -89.4172 ZZZZ=           -112.2271 XXXY=             -2.7278
 XXXZ=              9.5064 YYYX=            -17.8958 YYYZ=             20.3629 ZZZX=            -27.0676
 ZZZY=             25.0810 XXYY=            -67.9208 XXZZ=            -63.5455 YYZZ=            -34.9972
 XXYZ=              7.0204 YYXZ=             -9.8108 ZZXY=             -2.6681
 N-N= 1.772638335591D+02 E-N=-1.021006144827D+03  KE= 2.824612455665D+02
 No NMR shielding tensors so no spin-rotation constants.
 Leave Link  601 at Mon Jan  1 12:18:54 2024, MaxMem=   134217728 cpu:               0.3 elap:               0.1
 (Enter /home/emanuele/chem_software/gaussian//gdv/l9999.exe)
 Unable to Open any file for archive entry.
 1\1\GINC-EMANUELE-XPS-13-9343\Scan\RPBEPBE\6-31G\C2H5N1O2\EMANUELE\01-
 Jan-2024\0\\#p nosymm geom=nocrowd opt=(modredundant,maxcycle=100) PBE
 PBE/6-31G\\Title\\0,1\C,-0.4669436664,-0.1018876302,-0.3679851173\O,-1
 .6164970846,-0.8362806639,-0.1093348325\C,0.6516350265,-0.4763181427,0
 .5782540756\H,0.3300110951,-0.0950434853,1.5828899961\H,0.6753801756,-
 1.5778100198,0.6696131965\N,1.9041582524,0.0425401389,0.073525283\H,1.
 8344226039,0.9365413484,-0.4090898318\H,2.7178723505,-0.0673933891,0.6
 707230334\O,-0.4113577263,0.7803701171,-1.243378115\H,-2.3366560265,-0
 .5283062735,-0.7202666881\\Version=ES64L-GDVRevJ.14\HF=-284.0107805,-2
 84.0142251,-284.0123459,-284.011053,-284.0107822,-284.0110396,-284.012
 4417,-284.0142936,-284.0132409,-284.0110936,-284.0107803\RMSD=5.538e-0
 9,1.772e-09,6.127e-09,7.587e-09,5.995e-09,8.430e-09,5.254e-09,3.140e-0
 9,3.162e-09,3.781e-09,6.379e-09\PG=C01 [X(C2H5N1O2)]\\@
 The archive entry for this job was punched.


 THE PROMISED LAND ALWAYS LIES ON THE OTHER SIDE OF A WILDERNESS.

                         -- HAVELOCK ELLIS
 Job cpu time:       0 days  0 hours 50 minutes 18.8 seconds.
 Elapsed time:       0 days  0 hours 13 minutes 56.0 seconds.
 File lengths (MBytes):  RWF=      6 Int=      0 D2E=      0 Chk=      2 Scr=      1
 Normal termination of Gaussian DV at Mon Jan  1 12:18:54 2024.
