 Entering Gaussian System, Link 0=/home/emanuele/chem_software/gaussian//g09/g09
 Input=1_zmat_qm.gjf
 Output=1_zmat_qm.log
 Initial command:
 /home/emanuele/chem_software/gaussian//gdv/l1.exe "/home/emanuele/chem_software/gaussian/scratch/Gau-19671.inp" -scrdir="/home/emanuele/chem_software/gaussian/scratch/"
 Entering Link 1 = /home/emanuele/chem_software/gaussian//gdv/l1.exe PID=     19673.
  
 Copyright (c) 1988-2020, Gaussian, Inc.  All Rights Reserved.
  
 This is the private, development version of
 the Gaussian(R) DV system of programs. It is based on
 the Gaussian(R) 16 system (copyright 2016, Gaussian, Inc.),
 the Gaussian(R) 09 system (copyright 2009, Gaussian, Inc.),
 the Gaussian(R) 03 system (copyright 2003, Gaussian, Inc.),
 the Gaussian(R) 98 system (copyright 1998, Gaussian, Inc.),
 the Gaussian(R) 94 system (copyright 1995, Gaussian, Inc.),
 the Gaussian 92(TM) system (copyright 1992, Gaussian, Inc.),
 the Gaussian 90(TM) system (copyright 1990, Gaussian, Inc.),
 the Gaussian 88(TM) system (copyright 1988, Gaussian, Inc.),
 the Gaussian 86(TM) system (copyright 1986, Carnegie Mellon
 University), and the Gaussian 82(TM) system (copyright 1983,
 Carnegie Mellon University). Gaussian is a federally registered
 trademark of Gaussian, Inc.
  
 This software contains proprietary and confidential information,
 including trade secrets, belonging to Gaussian, Inc.
  
 This software is provided under written license and may be
 used, copied, transmitted, or stored only in accord with that
 written license.
  
 The following legend is applicable only to US Government
 contracts under FAR:
  
                    RESTRICTED RIGHTS LEGEND
  
 Use, reproduction and disclosure by the US Government is
 subject to restrictions as set forth in subparagraphs (a)
 and (c) of the Commercial Computer Software - Restricted
 Rights clause in FAR 52.227-19.
  
 Gaussian, Inc.
 340 Quinnipiac St., Bldg. 40, Wallingford CT 06492
  
  
 ---------------------------------------------------------------
 Warning -- This program may not be used in any manner that
 competes with the business of Gaussian, Inc. or will provide
 assistance to any competitor of Gaussian, Inc.  The licensee
 of this program is prohibited from giving any competitor of
 Gaussian, Inc. access to this program.  By using this program,
 the user acknowledges that Gaussian, Inc. is engaged in the
 business of creating and licensing software in the field of
 computational chemistry and represents and warrants to the
 licensee that it is not a competitor of Gaussian, Inc. and that
 it will not use this program in any manner prohibited above.
 ---------------------------------------------------------------
  

 Cite this work as:
 Gaussian Development Version, Revision J.14,
 M. J. Frisch, G. W. Trucks, H. B. Schlegel, G. E. Scuseria, 
 M. A. Robb, J. R. Cheeseman, G. Scalmani, V. Barone, 
 G. A. Petersson, H. Nakatsuji, X. Li, A. V. Marenich, M. Caricato, 
 J. Bloino, B. G. Janesko, J. Zheng, R. Gomperts, B. Mennucci, 
 H. P. Hratchian, J. V. Ortiz, A. F. Izmaylov, J. L. Sonnenberg, 
 D. Williams-Young, F. Ding, F. Lipparini, F. Egidi, J. Goings, 
 B. Peng, A. Petrone, T. Henderson, D. Ranasinghe, V. G. Zakrzewski, 
 J. Gao, N. Rega, G. Zheng, W. Liang, M. Hada, M. Ehara, K. Toyota, 
 R. Fukuda, J. Hasegawa, M. Ishida, T. Nakajima, Y. Honda, O. Kitao, 
 H. Nakai, T. Vreven, K. Throssell, J. A. Montgomery, Jr., 
 J. E. Peralta, F. Ogliaro, M. J. Bearpark, J. J. Heyd, 
 E. N. Brothers, K. N. Kudin, V. N. Staroverov, T. A. Keith, 
 R. Kobayashi, J. Normand, K. Raghavachari, A. P. Rendell, 
 J. C. Burant, S. S. Iyengar, J. Tomasi, M. Cossi, J. M. Millam, 
 M. Klene, C. Adamo, R. Cammi, J. W. Ochterski, R. L. Martin, 
 K. Morokuma, O. Farkas, J. B. Foresman, and D. J. Fox, 
 Gaussian, Inc., Wallingford CT, 2020.
 
 ******************************************
 Gaussian DV:  ES64L-GDVRevJ.14 29-Dec-2020
                25-Nov-2023 
 ******************************************
 %mem=1GB
 %nprocshared=4
 Will use up to    4 processors via shared memory.
 %chk=1_zmat_qm.chk
 ----------------------------------------------------------
 #p nosymm geom=nocrowd opt=(modredundant,maxcycle=100) PM6
 ----------------------------------------------------------
 1/6=100,18=120,19=15,26=1,37=210000000,38=1/1,3;
 2/9=110,12=1,15=1,40=1/2;
 3/5=2,25=1,41=3900000,71=1/1,2,3;
 4/35=1/1;
 5/5=2,35=1,38=5/2;
 6/7=2,8=2,9=2,10=2,28=1/1;
 7/30=1/1,2,3,16;
 1/6=100,18=20,19=15,26=1/3(2);
 2/9=110,12=1,15=1/2;
 99//99;
 2/9=110,12=1,15=1/2;
 3/5=2,25=1,41=3900000,71=1,135=20/1,2,3;
 4/5=5,16=3,35=1/1;
 5/5=2,35=1,38=5/2;
 7/30=1/1,2,3,16;
 1/6=100,18=20,19=15,26=1/3(-5);
 2/9=110,12=1,15=1/2;
 6/7=2,8=2,9=2,10=2,19=2,28=1/1;
 99/9=1/99;
 Leave Link    1 at Sat Nov 25 14:45:28 2023, MaxMem=   134217728 cpu:               0.2 elap:               0.1
 (Enter /home/emanuele/chem_software/gaussian//gdv/l101.exe)
 -----
 Title
 -----
 Symbolic Z-matrix:
 Charge =  0 Multiplicity = 1
 C                    -0.53685   0.10417   0.01464 
 O                    -1.63632  -0.67637  -0.06827 
 C                     0.72601  -0.7177    0.10528 
 H                     0.71699  -1.15712   1.11445 
 H                     0.64338  -1.5538   -0.59228 
 N                     1.88901   0.09773  -0.1951 
 H                     1.74816   1.04081   0.14593 
 H                     2.72354  -0.27843   0.23189 
 O                    -0.58681   1.30563   0.04628 
 H                    -2.40509  -0.08851  -0.07785 
 
 The following ModRedundant input section has been read:
 D       9       1       2      10 S  10 36.000                                
 
 ITRead=  0  0  0  0  0  0  0  0  0  0
 MicOpt= -1 -1 -1 -1 -1 -1 -1 -1 -1 -1
 NAtoms=     10 NQM=       10 NQMF=       0 NMMI=      0 NMMIF=      0
                NMic=       0 NMicF=      0.
                    Isotopes and Nuclear Properties:
 (Nuclear quadrupole moments (NQMom) in fm**2, nuclear magnetic moments (NMagM)
  in nuclear magnetons)

  Atom         1           2           3           4           5           6           7           8           9          10
 IAtWgt=          12          16          12           1           1          14           1           1          16           1
 AtmWgt=  12.0000000  15.9949146  12.0000000   1.0078250   1.0078250  14.0030740   1.0078250   1.0078250  15.9949146   1.0078250
 NucSpn=           0           0           0           1           1           2           1           1           0           1
 AtZEff=  -0.0000000  -0.0000000  -0.0000000  -0.0000000  -0.0000000  -0.0000000  -0.0000000  -0.0000000  -0.0000000  -0.0000000
 NQMom=    0.0000000   0.0000000   0.0000000   0.0000000   0.0000000   2.0440000   0.0000000   0.0000000   0.0000000   0.0000000
 NMagM=    0.0000000   0.0000000   0.0000000   2.7928460   2.7928460   0.4037610   2.7928460   2.7928460   0.0000000   2.7928460
 AtZNuc=   6.0000000   8.0000000   6.0000000   1.0000000   1.0000000   7.0000000   1.0000000   1.0000000   8.0000000   1.0000000
 Leave Link  101 at Sat Nov 25 14:45:28 2023, MaxMem=   134217728 cpu:               0.9 elap:               0.3
 (Enter /home/emanuele/chem_software/gaussian//gdv/l103.exe)

 GradGradGradGradGradGradGradGradGradGradGradGradGradGradGradGradGradGrad
 Berny optimization.
 Initialization pass.
                           ----------------------------
                           !    Initial Parameters    !
                           ! (Angstroms and Degrees)  !
 --------------------------                            --------------------------
 ! Name  Definition              Value          Derivative Info.                !
 --------------------------------------------------------------------------------
 ! R1    R(1,2)                  1.3509         estimate D2E/DX2                !
 ! R2    R(1,3)                  1.5095         estimate D2E/DX2                !
 ! R3    R(1,9)                  1.2029         estimate D2E/DX2                !
 ! R4    R(2,10)                 0.9678         estimate D2E/DX2                !
 ! R5    R(3,4)                  1.1007         estimate D2E/DX2                !
 ! R6    R(3,5)                  1.092          estimate D2E/DX2                !
 ! R7    R(3,6)                  1.4518         estimate D2E/DX2                !
 ! R8    R(6,7)                  1.0127         estimate D2E/DX2                !
 ! R9    R(6,8)                  1.0101         estimate D2E/DX2                !
 ! A1    A(2,1,3)              111.7154         estimate D2E/DX2                !
 ! A2    A(2,1,9)              123.0182         estimate D2E/DX2                !
 ! A3    A(3,1,9)              125.2388         estimate D2E/DX2                !
 ! A4    A(1,2,10)             107.2257         estimate D2E/DX2                !
 ! A5    A(1,3,4)              105.4003         estimate D2E/DX2                !
 ! A6    A(1,3,5)              108.3736         estimate D2E/DX2                !
 ! A7    A(1,3,6)              110.6071         estimate D2E/DX2                !
 ! A8    A(4,3,5)              106.2232         estimate D2E/DX2                !
 ! A9    A(4,3,6)              114.8648         estimate D2E/DX2                !
 ! A10   A(5,3,6)              111.0079         estimate D2E/DX2                !
 ! A11   A(3,6,7)              109.9968         estimate D2E/DX2                !
 ! A12   A(3,6,8)              111.4207         estimate D2E/DX2                !
 ! A13   A(7,6,8)              108.6253         estimate D2E/DX2                !
 ! D1    D(3,1,2,10)           177.195          estimate D2E/DX2                !
 ! D2    D(9,1,2,10)            -0.9857         Scan                            !
 ! D3    D(2,1,3,4)            -71.8288         estimate D2E/DX2                !
 ! D4    D(2,1,3,5)             41.552          estimate D2E/DX2                !
 ! D5    D(2,1,3,6)            163.4539         estimate D2E/DX2                !
 ! D6    D(9,1,3,4)            106.3034         estimate D2E/DX2                !
 ! D7    D(9,1,3,5)           -140.3158         estimate D2E/DX2                !
 ! D8    D(9,1,3,6)            -18.4139         estimate D2E/DX2                !
 ! D9    D(1,3,6,7)             34.6533         estimate D2E/DX2                !
 ! D10   D(1,3,6,8)            155.1742         estimate D2E/DX2                !
 ! D11   D(4,3,6,7)            -84.4877         estimate D2E/DX2                !
 ! D12   D(4,3,6,8)             36.0331         estimate D2E/DX2                !
 ! D13   D(5,3,6,7)            154.9936         estimate D2E/DX2                !
 ! D14   D(5,3,6,8)            -84.4855         estimate D2E/DX2                !
 --------------------------------------------------------------------------------
 Trust Radius=3.00D-01 FncErr=1.00D-07 GrdErr=1.00D-07 EigMax=2.50D+02 EigMin=1.00D-04
 Number of optimizations in scan=  11
 Number of steps in this run=    100 maximum allowed number of steps=    100.
 GradGradGradGradGradGradGradGradGradGradGradGradGradGradGradGradGradGrad

 Leave Link  103 at Sat Nov 25 14:45:28 2023, MaxMem=   134217728 cpu:               0.0 elap:               0.0
 (Enter /home/emanuele/chem_software/gaussian//gdv/l202.exe)
                          Input orientation:                          
 ---------------------------------------------------------------------
 Center     Atomic      Atomic             Coordinates (Angstroms)
 Number     Number       Type             X           Y           Z
 ---------------------------------------------------------------------
      1          6           0       -0.536850    0.104174    0.014636
      2          8           0       -1.636322   -0.676373   -0.068268
      3          6           0        0.726013   -0.717700    0.105280
      4          1           0        0.716994   -1.157121    1.114447
      5          1           0        0.643380   -1.553795   -0.592281
      6          7           0        1.889013    0.097733   -0.195097
      7          1           0        1.748159    1.040807    0.145925
      8          1           0        2.723536   -0.278432    0.231888
      9          8           0       -0.586810    1.305633    0.046275
     10          1           0       -2.405088   -0.088514   -0.077854
 ---------------------------------------------------------------------
                    Distance matrix (angstroms):
                    1          2          3          4          5
     1  C    0.000000
     2  O    1.350913   0.000000
     3  C    1.509475   2.369062   0.000000
     4  H    2.091070   2.677318   1.100723   0.000000
     5  H    2.123712   2.498299   1.092005   1.753764   0.000000
     6  N    2.434921   3.611553   1.451801   2.159443   2.106395
     7  H    2.473011   3.801223   2.034400   2.613852   2.915038
     8  H    3.289940   4.388258   2.049167   2.361613   2.575433
     9  O    1.202913   2.245650   2.412646   2.984301   3.177648
    10  H    1.880424   0.967818   3.198938   3.508689   3.421234
                    6          7          8          9         10
     6  N    0.000000
     7  H    1.012682   0.000000
     8  H    1.010072   1.642906   0.000000
     9  O    2.765318   2.352051   3.674521   0.000000
    10  H    4.299737   4.309861   5.141478   2.294600   0.000000
 Symmetry turned off by external request.
 Stoichiometry    C2H5NO2
 Framework group  C1[X(C2H5NO2)]
 Deg. of freedom    24
 Full point group                 C1      NOp   1
 Rotational constants (GHZ):          10.4489861           3.9571341           2.9518000
 Leave Link  202 at Sat Nov 25 14:45:28 2023, MaxMem=   134217728 cpu:               0.1 elap:               0.0
 (Enter /home/emanuele/chem_software/gaussian//gdv/l301.exe)
 Standard basis: VSTO-6G (5D, 7F)
 Ernie: Thresh=  0.10000D-02 Tol=  0.10000D-05 Strict=F.
  NNHCO=     0 NNPyr=     0 NCTC=     0               EPep=         0.000000000
    EC=        84.002832998  ECS=         2.253874644   EG=         0.126211539
   EHC=         0.001112369  EAt=       -38.066560349  AtH=         1.329713788
 EPDDG=         0.000000000  ECC=        86.384031549 EAtT=        39.396274136
    25 basis functions,   150 primitive gaussians,    25 cartesian basis functions
    15 alpha electrons       15 beta electrons
       nuclear repulsion energy       125.7803056858 Hartrees.
 IExCor=       0 DFT=F Ex=HF Corr=None N6=None ScaHFX=  1.000000
 ScaDFX=  1.000000  1.000000  1.000000  1.000000  1.000000  0.000000
 ScaDFX=  0.000000  0.000000  0.000000  0.000000  0.000000  0.000000
 IRadAn=      5 IRanWt=     -1 IRanGd=            0 ICorTp=0 IEmpDi=  4
 Integral buffers will be    131072 words long.
 Regular integral format.
 Two-electron integral symmetry is turned off.
 Leave Link  301 at Sat Nov 25 14:45:28 2023, MaxMem=   134217728 cpu:               0.2 elap:               0.1
 (Enter /home/emanuele/chem_software/gaussian//gdv/l302.exe)
 Do NDO integrals.
 NPDir=0 NMtPBC=     1 NCelOv=     1 NCel=       1 NClECP=     1 NCelD=      1
         NCelK=      1 NCelE2=     1 NClLst=     1 CellRange=     0.0.
 One-electron integrals computed using PRISM.
 NBasis=    25 RedAO= F EigKep=  0.00D+00  NBF=    25
 NBsUse=    25 1.00D-04 EigRej=  0.00D+00 NBFU=    25
 Leave Link  302 at Sat Nov 25 14:45:28 2023, MaxMem=   134217728 cpu:               0.3 elap:               0.1
 (Enter /home/emanuele/chem_software/gaussian//gdv/l303.exe)
 DipDrv:  MaxL=1.
 Leave Link  303 at Sat Nov 25 14:45:28 2023, MaxMem=   134217728 cpu:               0.1 elap:               0.0
 (Enter /home/emanuele/chem_software/gaussian//gdv/l401.exe)
 Simple Huckel Guess.
 JPrj=0 DoOrth=F DoCkMO=F.
 Leave Link  401 at Sat Nov 25 14:45:28 2023, MaxMem=   134217728 cpu:               0.2 elap:               0.0
 (Enter /home/emanuele/chem_software/gaussian//gdv/l502.exe)
 Keep J ints in memory in canonical form, NReq=861126.
 FoFCou: FMM=F IPFlag=           0 FMFlag=           0 FMFlg1=           0
         NFxFlg=           0 DoJE=F BraDBF=F KetDBF=F FulRan=T
         wScrn=  0.000000 ICntrl=       600 IOpCl=  2 I1Cent=           0 NGrid=           0
         NMat0=    1 NMatS0=     55 NMatT0=    0 NMatD0=    1 NMtDS0=    0 NMtDT0=    0
 Symmetry not used in FoFCou.
 Two-electron integral symmetry not used.
 Closed shell SCF:
 Using DIIS extrapolation, IDIIS=  1040.
 Overlap will be assumed to be unity.
 NGot=   134217728 LenX=   134155015 LenY=   134153949
 Requested convergence on RMS density matrix=1.00D-08 within 128 cycles.
 Requested convergence on MAX density matrix=1.00D-06.
 Requested convergence on             energy=1.00D-06.
 No special actions if energy rises.

 Cycle   1  Pass 1  IDiag  1:
 E= 0.171768323968593    
 DIIS: error= 5.87D-02 at cycle   1 NSaved=   1.
 NSaved= 1 IEnMin= 1 EnMin= 0.171768323968593     IErMin= 1 ErrMin= 5.87D-02
 ErrMax= 5.87D-02  0.00D+00 EMaxC= 1.00D-01 BMatC= 8.86D-02 BMatP= 8.86D-02
 IDIUse=3 WtCom= 4.13D-01 WtEn= 5.87D-01
 Coeff-Com:  0.100D+01
 Coeff-En:   0.100D+01
 Coeff:      0.100D+01
 GapD=    2.000 DampG=2.000 DampE=0.500 DampFc=1.0000 IDamp=-1.
 RMSDP=1.97D-02 MaxDP=1.61D-01              OVMax= 0.00D+00

 Cycle   2  Pass 1  IDiag  1:
 E=-0.907243624587153E-01 Delta-E=       -0.262492686427 Rises=F Damp=F
 DIIS: error= 1.89D-02 at cycle   2 NSaved=   2.
 NSaved= 2 IEnMin= 2 EnMin=-0.907243624587153E-01 IErMin= 2 ErrMin= 1.89D-02
 ErrMax= 1.89D-02  0.00D+00 EMaxC= 1.00D-01 BMatC= 1.04D-02 BMatP= 8.86D-02
 IDIUse=3 WtCom= 8.11D-01 WtEn= 1.89D-01
 Coeff-Com: -0.330D+00 0.133D+01
 Coeff-En:   0.000D+00 0.100D+01
 Coeff:     -0.268D+00 0.127D+01
 RMSDP=9.09D-03 MaxDP=5.88D-02 DE=-2.62D-01 OVMax= 0.00D+00

 Cycle   3  Pass 1  IDiag  3:
 E=-0.131686604490383     Delta-E=       -0.040962242032 Rises=F Damp=F
 DIIS: error= 5.72D-03 at cycle   3 NSaved=   3.
 NSaved= 3 IEnMin= 3 EnMin=-0.131686604490383     IErMin= 3 ErrMin= 5.72D-03
 ErrMax= 5.72D-03  0.00D+00 EMaxC= 1.00D-01 BMatC= 9.51D-04 BMatP= 1.04D-02
 IDIUse=3 WtCom= 9.43D-01 WtEn= 5.72D-02
 Coeff-Com:  0.114D+00-0.663D+00 0.155D+01
 Coeff-En:   0.000D+00 0.000D+00 0.100D+01
 Coeff:      0.108D+00-0.625D+00 0.152D+01
 Gap=     0.372 Goal=   None    Shift=    0.000
 RMSDP=4.00D-03 MaxDP=3.01D-02 DE=-4.10D-02 OVMax= 2.54D-02

 Cycle   4  Pass 1  IDiag  3:
 E=-0.136696101732383     Delta-E=       -0.005009497242 Rises=F Damp=F
 DIIS: error= 1.40D-03 at cycle   4 NSaved=   4.
 NSaved= 4 IEnMin= 4 EnMin=-0.136696101732383     IErMin= 4 ErrMin= 1.40D-03
 ErrMax= 1.40D-03  0.00D+00 EMaxC= 1.00D-01 BMatC= 4.28D-05 BMatP= 9.51D-04
 IDIUse=3 WtCom= 9.86D-01 WtEn= 1.40D-02
 Coeff-Com: -0.400D-01 0.258D+00-0.755D+00 0.154D+01
 Coeff-En:   0.000D+00 0.000D+00 0.000D+00 0.100D+01
 Coeff:     -0.394D-01 0.254D+00-0.745D+00 0.153D+01
 Gap=     0.372 Goal=   None    Shift=    0.000
 RMSDP=1.04D-03 MaxDP=9.03D-03 DE=-5.01D-03 OVMax= 7.57D-03

 Cycle   5  Pass 1  IDiag  3:
 E=-0.136963559301549     Delta-E=       -0.000267457569 Rises=F Damp=F
 DIIS: error= 1.91D-04 at cycle   5 NSaved=   5.
 NSaved= 5 IEnMin= 5 EnMin=-0.136963559301549     IErMin= 5 ErrMin= 1.91D-04
 ErrMax= 1.91D-04  0.00D+00 EMaxC= 1.00D-01 BMatC= 1.66D-06 BMatP= 4.28D-05
 IDIUse=3 WtCom= 9.98D-01 WtEn= 1.91D-03
 Coeff-Com:  0.842D-02-0.624D-01 0.208D+00-0.597D+00 0.144D+01
 Coeff-En:   0.000D+00 0.000D+00 0.000D+00 0.000D+00 0.100D+01
 Coeff:      0.840D-02-0.622D-01 0.208D+00-0.596D+00 0.144D+01
 Gap=     0.372 Goal=   None    Shift=    0.000
 RMSDP=2.12D-04 MaxDP=1.77D-03 DE=-2.67D-04 OVMax= 1.33D-03

 Cycle   6  Pass 1  IDiag  3:
 E=-0.136973636601908     Delta-E=       -0.000010077300 Rises=F Damp=F
 DIIS: error= 3.70D-05 at cycle   6 NSaved=   6.
 NSaved= 6 IEnMin= 6 EnMin=-0.136973636601908     IErMin= 6 ErrMin= 3.70D-05
 ErrMax= 3.70D-05  0.00D+00 EMaxC= 1.00D-01 BMatC= 5.72D-08 BMatP= 1.66D-06
 IDIUse=1 WtCom= 1.00D+00 WtEn= 0.00D+00
 Coeff-Com: -0.207D-02 0.176D-01-0.620D-01 0.206D+00-0.642D+00 0.148D+01
 Coeff:     -0.207D-02 0.176D-01-0.620D-01 0.206D+00-0.642D+00 0.148D+01
 Gap=     0.372 Goal=   None    Shift=    0.000
 RMSDP=3.64D-05 MaxDP=2.48D-04 DE=-1.01D-05 OVMax= 2.53D-04

 Cycle   7  Pass 1  IDiag  3:
 E=-0.136973965269405     Delta-E=       -0.000000328667 Rises=F Damp=F
 DIIS: error= 5.99D-06 at cycle   7 NSaved=   7.
 NSaved= 7 IEnMin= 7 EnMin=-0.136973965269405     IErMin= 7 ErrMin= 5.99D-06
 ErrMax= 5.99D-06  0.00D+00 EMaxC= 1.00D-01 BMatC= 2.51D-09 BMatP= 5.72D-08
 IDIUse=1 WtCom= 1.00D+00 WtEn= 0.00D+00
 Coeff-Com:  0.699D-03-0.607D-02 0.203D-01-0.682D-01 0.223D+00-0.593D+00
 Coeff-Com:  0.142D+01
 Coeff:      0.699D-03-0.607D-02 0.203D-01-0.682D-01 0.223D+00-0.593D+00
 Coeff:      0.142D+01
 Gap=     0.372 Goal=   None    Shift=    0.000
 RMSDP=8.01D-06 MaxDP=5.07D-05 DE=-3.29D-07 OVMax= 6.55D-05

 Cycle   8  Pass 1  IDiag  3:
 E=-0.136973981683084     Delta-E=       -0.000000016414 Rises=F Damp=F
 DIIS: error= 2.82D-06 at cycle   8 NSaved=   8.
 NSaved= 8 IEnMin= 8 EnMin=-0.136973981683084     IErMin= 8 ErrMin= 2.82D-06
 ErrMax= 2.82D-06  0.00D+00 EMaxC= 1.00D-01 BMatC= 2.98D-10 BMatP= 2.51D-09
 IDIUse=1 WtCom= 1.00D+00 WtEn= 0.00D+00
 Coeff-Com: -0.111D-03 0.111D-02-0.319D-02 0.121D-01-0.468D-01 0.147D+00
 Coeff-Com: -0.696D+00 0.159D+01
 Coeff:     -0.111D-03 0.111D-02-0.319D-02 0.121D-01-0.468D-01 0.147D+00
 Coeff:     -0.696D+00 0.159D+01
 Gap=     0.372 Goal=   None    Shift=    0.000
 RMSDP=3.21D-06 MaxDP=1.72D-05 DE=-1.64D-08 OVMax= 1.97D-05

 Cycle   9  Pass 1  IDiag  3:
 E=-0.136973983708913     Delta-E=       -0.000000002026 Rises=F Damp=F
 DIIS: error= 6.46D-07 at cycle   9 NSaved=   9.
 NSaved= 9 IEnMin= 9 EnMin=-0.136973983708913     IErMin= 9 ErrMin= 6.46D-07
 ErrMax= 6.46D-07  0.00D+00 EMaxC= 1.00D-01 BMatC= 1.61D-11 BMatP= 2.98D-10
 IDIUse=1 WtCom= 1.00D+00 WtEn= 0.00D+00
 Coeff-Com: -0.274D-06-0.722D-04-0.551D-04-0.350D-03 0.401D-02-0.184D-01
 Coeff-Com:  0.170D+00-0.565D+00 0.141D+01
 Coeff:     -0.274D-06-0.722D-04-0.551D-04-0.350D-03 0.401D-02-0.184D-01
 Coeff:      0.170D+00-0.565D+00 0.141D+01
 Gap=     0.372 Goal=   None    Shift=    0.000
 RMSDP=6.23D-07 MaxDP=3.84D-06 DE=-2.03D-09 OVMax= 3.31D-06

 Cycle  10  Pass 1  IDiag  3:
 E=-0.136973983799180     Delta-E=       -0.000000000090 Rises=F Damp=F
 DIIS: error= 1.49D-07 at cycle  10 NSaved=  10.
 NSaved=10 IEnMin=10 EnMin=-0.136973983799180     IErMin=10 ErrMin= 1.49D-07
 ErrMax= 1.49D-07  0.00D+00 EMaxC= 1.00D-01 BMatC= 1.06D-12 BMatP= 1.61D-11
 IDIUse=1 WtCom= 1.00D+00 WtEn= 0.00D+00
 Coeff-Com:  0.607D-05-0.280D-04 0.163D-03-0.381D-03 0.520D-03 0.145D-03
 Coeff-Com: -0.175D-01 0.762D-01-0.426D+00 0.137D+01
 Coeff:      0.607D-05-0.280D-04 0.163D-03-0.381D-03 0.520D-03 0.145D-03
 Coeff:     -0.175D-01 0.762D-01-0.426D+00 0.137D+01
 Gap=     0.372 Goal=   None    Shift=    0.000
 RMSDP=1.63D-07 MaxDP=1.11D-06 DE=-9.03D-11 OVMax= 8.46D-07

 Cycle  11  Pass 1  IDiag  3:
 E=-0.136973983805575     Delta-E=       -0.000000000006 Rises=F Damp=F
 DIIS: error= 4.05D-08 at cycle  11 NSaved=  11.
 NSaved=11 IEnMin=11 EnMin=-0.136973983805575     IErMin=11 ErrMin= 4.05D-08
 ErrMax= 4.05D-08  0.00D+00 EMaxC= 1.00D-01 BMatC= 8.06D-14 BMatP= 1.06D-12
 IDIUse=1 WtCom= 1.00D+00 WtEn= 0.00D+00
 Coeff-Com: -0.131D-05 0.896D-05-0.282D-04 0.921D-04-0.355D-03 0.116D-02
 Coeff-Com: -0.918D-02 0.286D-01 0.130D-01-0.454D+00 0.142D+01
 Coeff:     -0.131D-05 0.896D-05-0.282D-04 0.921D-04-0.355D-03 0.116D-02
 Coeff:     -0.918D-02 0.286D-01 0.130D-01-0.454D+00 0.142D+01
 Gap=     0.372 Goal=   None    Shift=    0.000
 RMSDP=4.85D-08 MaxDP=2.87D-07 DE=-6.39D-12 OVMax= 3.58D-07

 Cycle  12  Pass 1  IDiag  3:
 E=-0.136973983806030     Delta-E=       -0.000000000000 Rises=F Damp=F
 DIIS: error= 9.46D-09 at cycle  12 NSaved=  12.
 NSaved=12 IEnMin=12 EnMin=-0.136973983806030     IErMin=12 ErrMin= 9.46D-09
 ErrMax= 9.46D-09  0.00D+00 EMaxC= 1.00D-01 BMatC= 5.27D-15 BMatP= 8.06D-14
 IDIUse=1 WtCom= 1.00D+00 WtEn= 0.00D+00
 Coeff-Com:  0.184D-06-0.112D-05 0.111D-05-0.665D-05 0.719D-04-0.344D-03
 Coeff-Com:  0.455D-02-0.166D-01 0.736D-02 0.197D+00-0.845D+00 0.165D+01
 Coeff:      0.184D-06-0.112D-05 0.111D-05-0.665D-05 0.719D-04-0.344D-03
 Coeff:      0.455D-02-0.166D-01 0.736D-02 0.197D+00-0.845D+00 0.165D+01
 Gap=     0.372 Goal=   None    Shift=    0.000
 RMSDP=1.45D-08 MaxDP=8.88D-08 DE=-4.55D-13 OVMax= 1.01D-07

 Cycle  13  Pass 1  IDiag  3:
 E=-0.136973983806101     Delta-E=       -0.000000000000 Rises=F Damp=F
 DIIS: error= 1.67D-09 at cycle  13 NSaved=  13.
 NSaved=13 IEnMin=13 EnMin=-0.136973983806101     IErMin=13 ErrMin= 1.67D-09
 ErrMax= 1.67D-09  0.00D+00 EMaxC= 1.00D-01 BMatC= 1.79D-16 BMatP= 5.27D-15
 IDIUse=1 WtCom= 1.00D+00 WtEn= 0.00D+00
 Coeff-Com:  0.881D-08-0.179D-06 0.222D-05-0.531D-05-0.960D-05 0.107D-03
 Coeff-Com: -0.209D-02 0.799D-02-0.547D-02-0.862D-01 0.398D+00-0.885D+00
 Coeff-Com:  0.157D+01
 Coeff:      0.881D-08-0.179D-06 0.222D-05-0.531D-05-0.960D-05 0.107D-03
 Coeff:     -0.209D-02 0.799D-02-0.547D-02-0.862D-01 0.398D+00-0.885D+00
 Coeff:      0.157D+01
 Gap=     0.372 Goal=   None    Shift=    0.000
 RMSDP=2.50D-09 MaxDP=1.75D-08 DE=-7.11D-14 OVMax= 2.13D-08

 Cycle  14  Pass 2  IDiag  1:
 SCF Done:  E(RPM6) = -0.136973983806     A.U. after   14 cycles
            NFock= 13  Conv=0.25D-08     -V/T= 0.9979
 KE=-6.559711597378D+01 PE=-1.647720729518D+02 EE= 1.044519092559D+02
 Leave Link  502 at Sat Nov 25 14:45:28 2023, MaxMem=   134217728 cpu:               0.2 elap:               0.1
 (Enter /home/emanuele/chem_software/gaussian//gdv/l601.exe)
 Copying SCF densities to generalized density rwf, IOpCl= 0 IROHF=0.

 **********************************************************************

            Population analysis using the SCF Density.

 **********************************************************************

 Alpha  occ. eigenvalues --       -1.22033      -1.17650      -1.15177      -0.96585      -0.79048
 Alpha  occ. eigenvalues --       -0.69293      -0.65535      -0.63929      -0.58072      -0.56742
 Alpha  occ. eigenvalues --       -0.53691      -0.50561      -0.46483      -0.42332      -0.36139
 Alpha virt. eigenvalues --        0.01043       0.05109       0.09137       0.11428       0.13931
 Alpha virt. eigenvalues --        0.16361       0.16810       0.19059       0.21211       0.24502
          Condensed to atoms (all electrons):
               1          2          3          4          5          6
     1  C    3.389636   0.000000   0.000000   0.000000   0.000000   0.000000
     2  O    0.000000   6.491501   0.000000   0.000000   0.000000   0.000000
     3  C    0.000000   0.000000   4.256520   0.000000   0.000000   0.000000
     4  H    0.000000   0.000000   0.000000   0.847919   0.000000   0.000000
     5  H    0.000000   0.000000   0.000000   0.000000   0.808674   0.000000
     6  N    0.000000   0.000000   0.000000   0.000000   0.000000   5.485381
     7  H    0.000000   0.000000   0.000000   0.000000   0.000000   0.000000
     8  H    0.000000   0.000000   0.000000   0.000000   0.000000   0.000000
     9  O    0.000000   0.000000   0.000000   0.000000   0.000000   0.000000
    10  H    0.000000   0.000000   0.000000   0.000000   0.000000   0.000000
               7          8          9         10
     1  C    0.000000   0.000000   0.000000   0.000000
     2  O    0.000000   0.000000   0.000000   0.000000
     3  C    0.000000   0.000000   0.000000   0.000000
     4  H    0.000000   0.000000   0.000000   0.000000
     5  H    0.000000   0.000000   0.000000   0.000000
     6  N    0.000000   0.000000   0.000000   0.000000
     7  H    0.770909   0.000000   0.000000   0.000000
     8  H    0.000000   0.782627   0.000000   0.000000
     9  O    0.000000   0.000000   6.501898   0.000000
    10  H    0.000000   0.000000   0.000000   0.664933
 Mulliken charges:
               1
     1  C    0.610364
     2  O   -0.491501
     3  C   -0.256520
     4  H    0.152081
     5  H    0.191326
     6  N   -0.485381
     7  H    0.229091
     8  H    0.217373
     9  O   -0.501898
    10  H    0.335067
 Sum of Mulliken charges =  -0.00000
 Mulliken charges with hydrogens summed into heavy atoms:
               1
     1  C    0.610364
     2  O   -0.156434
     3  C    0.086886
     6  N   -0.038918
     9  O   -0.501898
 Charge=             -0.0000 electrons
 Dipole moment (field-independent basis, Debye):
    X=             -0.0442    Y=             -1.7562    Z=              2.0287  Tot=              2.6836
 N-N= 1.257803056858D+02 E-N=-1.647720729272D+02  KE=-6.559711597378D+01
 Leave Link  601 at Sat Nov 25 14:45:28 2023, MaxMem=   134217728 cpu:               0.2 elap:               0.0
 (Enter /home/emanuele/chem_software/gaussian//gdv/l701.exe)
 ... and contract with generalized density number  0.
 Compute integral first derivatives.
 Leave Link  701 at Sat Nov 25 14:45:28 2023, MaxMem=   134217728 cpu:               0.2 elap:               0.1
 (Enter /home/emanuele/chem_software/gaussian//gdv/l702.exe)
 L702 exits ... SP integral derivatives will be done elsewhere.
 Leave Link  702 at Sat Nov 25 14:45:28 2023, MaxMem=   134217728 cpu:               0.1 elap:               0.0
 (Enter /home/emanuele/chem_software/gaussian//gdv/l703.exe)
 Integral derivatives from FoFJK, PRISM(SPDF).
 Compute integral first derivatives, UseDBF=F ICtDFT=           0.
 Calling FoFJK, ICntrl=      2127 FMM=F ISym2X=0 I1Cent= 0 IOpClX= 0 NMat=1 NMatS=1 NMatT=0.
 FoFJK:  IHMeth=40 ICntrl=    2127 DoSepK=F KAlg= 0 I1Cent=           0 FoldK=F
 IRaf=         0 NMat=       1 IRICut=       1 DoRegI=T DoRafI=F ISym2E= 0 IDoP0=3 IntGTp=3.
 FoFCou: FMM=F IPFlag=           0 FMFlag=      100000 FMFlg1=         800
         NFxFlg=           0 DoJE=F BraDBF=F KetDBF=F FulRan=T
         wScrn=  0.000000 ICntrl=      2127 IOpCl=  0 I1Cent=           0 NGrid=           0
         NMat0=    1 NMatS0=      1 NMatT0=    0 NMatD0=    1 NMtDS0=    0 NMtDT0=    0
 Symmetry not used in FoFCou.
 Leave Link  703 at Sat Nov 25 14:45:28 2023, MaxMem=   134217728 cpu:               0.2 elap:               0.0
 (Enter /home/emanuele/chem_software/gaussian//gdv/l716.exe)
 Dipole        =-1.73953341D-02-6.90951364D-01 7.98140051D-01
 -------------------------------------------------------------------
 Center     Atomic                   Forces (Hartrees/Bohr)
 Number     Number              X              Y              Z
 -------------------------------------------------------------------
      1        6           0.029519480    0.004598071   -0.001501695
      2        8          -0.002629323   -0.006351354    0.000288808
      3        6          -0.021332520   -0.010188111    0.011815132
      4        1           0.002225947   -0.007671509    0.009764009
      5        1           0.003016531   -0.011675785   -0.010628727
      6        7           0.018023015    0.011316189   -0.011554417
      7        1           0.003069768    0.006682372    0.000517805
      8        1           0.002494252   -0.001031591    0.002148452
      9        8          -0.009778131    0.012789983    0.001092432
     10        1          -0.024609020    0.001531735   -0.001941798
 -------------------------------------------------------------------
 Cartesian Forces:  Max     0.029519480 RMS     0.010928384
 Leave Link  716 at Sat Nov 25 14:45:28 2023, MaxMem=   134217728 cpu:               0.1 elap:               0.0
 (Enter /home/emanuele/chem_software/gaussian//gdv/l103.exe)

 GradGradGradGradGradGradGradGradGradGradGradGradGradGradGradGradGradGrad
 Berny optimization.
 FormGI is forming the generalized inverse of G from B-inverse, IUseBI=4.
 Internal  Forces:  Max     0.030263752 RMS     0.010202630
 Search for a local minimum.
 Step number   1 out of a maximum of  100 on scan point     1 out of    11
 All quantities printed in internal units (Hartrees-Bohrs-Radians)
 RMS Force = .10346D-01 SwitMx=.10000D-02 MixMth= 1
 Mixed Optimization -- RFO/linear search
 Second derivative matrix not updated -- first step.
 ITU=  0
     Eigenvalues ---    0.00641   0.01007   0.01302   0.04206   0.05224
     Eigenvalues ---    0.06483   0.09827   0.13119   0.16000   0.16000
     Eigenvalues ---    0.16000   0.21891   0.24987   0.25000   0.31403
     Eigenvalues ---    0.33602   0.34582   0.38010   0.45526   0.45961
     Eigenvalues ---    0.53825   0.54828   1.033731000.000001000.00000
     Eigenvalues --- 1000.000001000.000001000.000001000.000001000.00000
     Eigenvalues --- 1000.000001000.000001000.000001000.000001000.00000
     Eigenvalues --- 1000.00000
 RFO step:  Lambda=-1.19407510D-02 EMin= 6.40605360D-03
 Linear search not attempted -- first point.
 Iteration  1 RMS(Cart)=  0.07251209 RMS(Int)=  0.00358244
 Iteration  2 RMS(Cart)=  0.00362736 RMS(Int)=  0.00015867
 Iteration  3 RMS(Cart)=  0.00002007 RMS(Int)=  0.00015775
 Iteration  4 RMS(Cart)=  0.00000000 RMS(Int)=  0.00015775
 Fixing frozen coordinates.
 Iteration  1 RMS(Cart)=  0.00000937 RMS(Int)=  0.00001186
 Iteration  2 RMS(Cart)=  0.00000365 RMS(Int)=  0.00001319
 Iteration  3 RMS(Cart)=  0.00000142 RMS(Int)=  0.00001432
 Iteration  4 RMS(Cart)=  0.00000055 RMS(Int)=  0.00001483
 ITry= 1 IFail=0 DXMaxC= 2.26D-01 DCOld= 1.00D+10 DXMaxT= 3.00D-01 DXLimC= 3.00D+00 Rises=F
 Variable       Old X    -DE/DX   Delta X   Delta X   Delta X     New X
                                 (Linear)    (Quad)   (Total)
    R1        2.55286   0.02505   0.00000   0.04472   0.04472   2.59758
    R2        2.85250   0.01324   0.00000   0.04061   0.04061   2.89311
    R3        2.27318   0.01321   0.00000   0.01263   0.01263   2.28581
    R4        1.82891   0.02050   0.00000   0.03725   0.03725   1.86617
    R5        2.08006   0.01200   0.00000   0.03448   0.03448   2.11454
    R6        2.06359   0.01550   0.00000   0.04333   0.04333   2.10692
    R7        2.74351   0.03026   0.00000   0.07720   0.07720   2.82070
    R8        1.91369   0.00597   0.00000   0.01278   0.01278   1.92647
    R9        1.90876   0.00335   0.00000   0.00711   0.00711   1.91587
    A1        1.94980  -0.00359   0.00000  -0.01363  -0.01363   1.93617
    A2        2.14707  -0.00860   0.00000  -0.03284  -0.03284   2.11423
    A3        2.18583   0.01219   0.00000   0.04664   0.04664   2.23247
    A4        1.87144   0.02526   0.00000   0.14692   0.14692   2.01836
    A5        1.83958   0.00243   0.00000   0.03378   0.03340   1.87298
    A6        1.89148   0.00261   0.00000   0.01392   0.01374   1.90521
    A7        1.93046   0.00003   0.00000   0.00379   0.00354   1.93400
    A8        1.85394  -0.00055   0.00000  -0.01016  -0.01059   1.84336
    A9        2.00477   0.00048   0.00000   0.00947   0.00896   2.01373
   A10        1.93745  -0.00453   0.00000  -0.04683  -0.04689   1.89057
   A11        1.91981   0.00706   0.00000   0.04371   0.04364   1.96345
   A12        1.94466  -0.00170   0.00000  -0.00730  -0.00737   1.93729
   A13        1.89587  -0.00228   0.00000  -0.00829  -0.00841   1.88746
    D1        3.09264   0.00086   0.00000   0.00682   0.00664   3.09927
    D2       -0.01720   0.00071   0.00000   0.00000   0.00000  -0.01720
    D3       -1.25365  -0.00021   0.00000  -0.02266  -0.02266  -1.27631
    D4        0.72522   0.00150   0.00000  -0.01185  -0.01175   0.71347
    D5        2.85281  -0.00239   0.00000  -0.05841  -0.05867   2.79414
    D6        1.85534  -0.00051   0.00000  -0.01742  -0.01731   1.83803
    D7       -2.44897   0.00119   0.00000  -0.00661  -0.00640  -2.45538
    D8       -0.32138  -0.00270   0.00000  -0.05317  -0.05332  -0.37470
    D9        0.60481   0.00046   0.00000   0.00387   0.00380   0.60862
   D10        2.70830   0.00122   0.00000   0.01796   0.01795   2.72625
   D11       -1.47459  -0.00306   0.00000  -0.04937  -0.04935  -1.52394
   D12        0.62890  -0.00230   0.00000  -0.03529  -0.03520   0.59369
   D13        2.70515   0.00077   0.00000  -0.00702  -0.00706   2.69809
   D14       -1.47455   0.00153   0.00000   0.00707   0.00709  -1.46746
         Item               Value     Threshold  Converged?
 Maximum Force            0.030264     0.000450     NO 
 RMS     Force            0.010346     0.000300     NO 
 Maximum Displacement     0.225654     0.001800     NO 
 RMS     Displacement     0.073002     0.001200     NO 
 Predicted change in Energy=-6.310653D-03
 Lowest energy point so far.  Saving SCF results.
 GradGradGradGradGradGradGradGradGradGradGradGradGradGradGradGradGradGrad

 Leave Link  103 at Sat Nov 25 14:45:28 2023, MaxMem=   134217728 cpu:               0.1 elap:               0.0
 (Enter /home/emanuele/chem_software/gaussian//gdv/l202.exe)
                          Input orientation:                          
 ---------------------------------------------------------------------
 Center     Atomic      Atomic             Coordinates (Angstroms)
 Number     Number       Type             X           Y           Z
 ---------------------------------------------------------------------
      1          6           0       -0.545439    0.142755    0.037532
      2          8           0       -1.661960   -0.648398   -0.092573
      3          6           0        0.721643   -0.711009    0.134747
      4          1           0        0.728003   -1.183224    1.149172
      5          1           0        0.650035   -1.555921   -0.589180
      6          7           0        1.931531    0.095190   -0.203220
      7          1           0        1.854575    1.063112    0.107378
      8          1           0        2.763572   -0.305430    0.215196
      9          8           0       -0.635436    1.347872    0.089715
     10          1           0       -2.524499   -0.168535   -0.123815
 ---------------------------------------------------------------------
                    Distance matrix (angstroms):
                    1          2          3          4          5
     1  C    0.000000
     2  O    1.374579   0.000000
     3  C    1.530968   2.395236   0.000000
     4  H    2.148399   2.745886   1.118966   0.000000
     5  H    2.169661   2.532891   1.114933   1.779565   0.000000
     6  N    2.489098   3.671286   1.492651   2.216254   2.125409
     7  H    2.571382   3.916026   2.105182   2.720390   2.965711
     8  H    3.343948   4.449458   2.083372   2.405488   2.584142
     9  O    1.209598   2.252126   2.466309   3.063962   3.247360
    10  H    2.009879   0.987532   3.301298   3.637150   3.495579
                    6          7          8          9         10
     6  N    0.000000
     7  H    1.019444   0.000000
     8  H    1.013835   1.646453   0.000000
     9  O    2.871296   2.506303   3.781852   0.000000
    10  H    4.464534   4.554854   5.300695   2.431798   0.000000
 Symmetry turned off by external request.
 Stoichiometry    C2H5NO2
 Framework group  C1[X(C2H5NO2)]
 Deg. of freedom    24
 Full point group                 C1      NOp   1
 Rotational constants (GHZ):          10.1138429           3.7759190           2.8354194
 Leave Link  202 at Sat Nov 25 14:45:28 2023, MaxMem=   134217728 cpu:               0.1 elap:               0.0
 (Enter /home/emanuele/chem_software/gaussian//gdv/l301.exe)
 Standard basis: VSTO-6G (5D, 7F)
 Ernie: Thresh=  0.10000D-02 Tol=  0.10000D-05 Strict=F.
  NNHCO=     0 NNPyr=     0 NCTC=     0               EPep=         0.000000000
    EC=        82.768988752  ECS=         2.132585974   EG=         0.120862297
   EHC=         0.000970235  EAt=       -38.066560349  AtH=         1.329713788
 EPDDG=         0.000000000  ECC=        85.023407258 EAtT=        39.396274136
    25 basis functions,   150 primitive gaussians,    25 cartesian basis functions
    15 alpha electrons       15 beta electrons
       nuclear repulsion energy       124.4196813944 Hartrees.
 IExCor=       0 DFT=F Ex=HF Corr=None N6=None ScaHFX=  1.000000
 ScaDFX=  1.000000  1.000000  1.000000  1.000000  1.000000  0.000000
 ScaDFX=  0.000000  0.000000  0.000000  0.000000  0.000000  0.000000
 IRadAn=      5 IRanWt=     -1 IRanGd=            0 ICorTp=0 IEmpDi=  4
 Integral buffers will be    131072 words long.
 Regular integral format.
 Two-electron integral symmetry is turned off.
 Leave Link  301 at Sat Nov 25 14:45:29 2023, MaxMem=   134217728 cpu:               0.2 elap:               0.1
 (Enter /home/emanuele/chem_software/gaussian//gdv/l302.exe)
 Do NDO integrals.
 NPDir=0 NMtPBC=     1 NCelOv=     1 NCel=       1 NClECP=     1 NCelD=      1
         NCelK=      1 NCelE2=     1 NClLst=     1 CellRange=     0.0.
 One-electron integrals computed using PRISM.
 NBasis=    25 RedAO= F EigKep=  0.00D+00  NBF=    25
 NBsUse=    25 1.00D-04 EigRej=  0.00D+00 NBFU=    25
 Leave Link  302 at Sat Nov 25 14:45:29 2023, MaxMem=   134217728 cpu:               0.3 elap:               0.1
 (Enter /home/emanuele/chem_software/gaussian//gdv/l303.exe)
 DipDrv:  MaxL=1.
 Leave Link  303 at Sat Nov 25 14:45:29 2023, MaxMem=   134217728 cpu:               0.2 elap:               0.0
 (Enter /home/emanuele/chem_software/gaussian//gdv/l401.exe)
 Initial guess from the checkpoint file:  "1_zmat_qm.chk"
 B after Tr=     0.000000    0.000000    0.000000
         Rot=    1.000000    0.000000    0.000000    0.000000 Ang=   0.00 deg.
 AO Guess basis will be translated and rotated to current coordinates.
 JPrj=0 DoOrth=T DoCkMO=T.
 Leave Link  401 at Sat Nov 25 14:45:29 2023, MaxMem=   134217728 cpu:               0.8 elap:               0.2
 (Enter /home/emanuele/chem_software/gaussian//gdv/l502.exe)
 Keep J ints in memory in canonical form, NReq=861126.
 FoFCou: FMM=F IPFlag=           0 FMFlag=           0 FMFlg1=           0
         NFxFlg=           0 DoJE=F BraDBF=F KetDBF=F FulRan=T
         wScrn=  0.000000 ICntrl=       600 IOpCl=  2 I1Cent=           0 NGrid=           0
         NMat0=    1 NMatS0=     55 NMatT0=    0 NMatD0=    1 NMtDS0=    0 NMtDT0=    0
 Symmetry not used in FoFCou.
 Two-electron integral symmetry not used.
 Closed shell SCF:
 Using DIIS extrapolation, IDIIS=  1040.
 Overlap will be assumed to be unity.
 NGot=   134217728 LenX=   134155015 LenY=   134153949
 Requested convergence on RMS density matrix=1.00D-08 within 128 cycles.
 Requested convergence on MAX density matrix=1.00D-06.
 Requested convergence on             energy=1.00D-06.
 No special actions if energy rises.

 Cycle   1  Pass 1  IDiag  1:
 E=-0.134374210060500    
 DIIS: error= 7.35D-03 at cycle   1 NSaved=   1.
 NSaved= 1 IEnMin= 1 EnMin=-0.134374210060500     IErMin= 1 ErrMin= 7.35D-03
 ErrMax= 7.35D-03  0.00D+00 EMaxC= 1.00D-01 BMatC= 1.86D-03 BMatP= 1.86D-03
 IDIUse=3 WtCom= 9.27D-01 WtEn= 7.35D-02
 Coeff-Com:  0.100D+01
 Coeff-En:   0.100D+01
 Coeff:      0.100D+01
 GapD=    2.000 DampG=2.000 DampE=1.000 DampFc=2.0000 IDamp=-1.
 RMSDP=2.98D-03 MaxDP=1.95D-02              OVMax= 0.00D+00

 Cycle   2  Pass 1  IDiag  3:
 E=-0.140271092221809     Delta-E=       -0.005896882161 Rises=F Damp=F
 DIIS: error= 2.62D-03 at cycle   2 NSaved=   2.
 NSaved= 2 IEnMin= 2 EnMin=-0.140271092221809     IErMin= 2 ErrMin= 2.62D-03
 ErrMax= 2.62D-03  0.00D+00 EMaxC= 1.00D-01 BMatC= 2.29D-04 BMatP= 1.86D-03
 IDIUse=3 WtCom= 9.74D-01 WtEn= 2.62D-02
 Coeff-Com: -0.455D+00 0.145D+01
 Coeff-En:   0.000D+00 0.100D+01
 Coeff:     -0.443D+00 0.144D+01
 Gap=     0.375 Goal=   None    Shift=    0.000
 RMSDP=1.69D-03 MaxDP=1.16D-02 DE=-5.90D-03 OVMax= 9.54D-03

 Cycle   3  Pass 1  IDiag  3:
 E=-0.141282660471816     Delta-E=       -0.001011568250 Rises=F Damp=F
 DIIS: error= 3.44D-04 at cycle   3 NSaved=   3.
 NSaved= 3 IEnMin= 3 EnMin=-0.141282660471816     IErMin= 3 ErrMin= 3.44D-04
 ErrMax= 3.44D-04  0.00D+00 EMaxC= 1.00D-01 BMatC= 7.53D-06 BMatP= 2.29D-04
 IDIUse=3 WtCom= 9.97D-01 WtEn= 3.44D-03
 Coeff-Com:  0.150D+00-0.578D+00 0.143D+01
 Coeff-En:   0.000D+00 0.000D+00 0.100D+01
 Coeff:      0.149D+00-0.576D+00 0.143D+01
 Gap=     0.375 Goal=   None    Shift=    0.000
 RMSDP=3.92D-04 MaxDP=2.36D-03 DE=-1.01D-03 OVMax= 2.32D-03

 Cycle   4  Pass 1  IDiag  3:
 E=-0.141325695668300     Delta-E=       -0.000043035196 Rises=F Damp=F
 DIIS: error= 7.84D-05 at cycle   4 NSaved=   4.
 NSaved= 4 IEnMin= 4 EnMin=-0.141325695668300     IErMin= 4 ErrMin= 7.84D-05
 ErrMax= 7.84D-05  0.00D+00 EMaxC= 1.00D-01 BMatC= 3.67D-07 BMatP= 7.53D-06
 IDIUse=1 WtCom= 1.00D+00 WtEn= 0.00D+00
 Coeff-Com: -0.263D-01 0.115D+00-0.446D+00 0.136D+01
 Coeff:     -0.263D-01 0.115D+00-0.446D+00 0.136D+01
 Gap=     0.376 Goal=   None    Shift=    0.000
 RMSDP=9.55D-05 MaxDP=5.36D-04 DE=-4.30D-05 OVMax= 8.54D-04

 Cycle   5  Pass 1  IDiag  3:
 E=-0.141328193051763     Delta-E=       -0.000002497383 Rises=F Damp=F
 DIIS: error= 3.14D-05 at cycle   5 NSaved=   5.
 NSaved= 5 IEnMin= 5 EnMin=-0.141328193051763     IErMin= 5 ErrMin= 3.14D-05
 ErrMax= 3.14D-05  0.00D+00 EMaxC= 1.00D-01 BMatC= 3.73D-08 BMatP= 3.67D-07
 IDIUse=1 WtCom= 1.00D+00 WtEn= 0.00D+00
 Coeff-Com:  0.995D-03-0.960D-02 0.993D-01-0.668D+00 0.158D+01
 Coeff:      0.995D-03-0.960D-02 0.993D-01-0.668D+00 0.158D+01
 Gap=     0.376 Goal=   None    Shift=    0.000
 RMSDP=3.91D-05 MaxDP=2.85D-04 DE=-2.50D-06 OVMax= 4.19D-04

 Cycle   6  Pass 1  IDiag  3:
 E=-0.141328489078688     Delta-E=       -0.000000296027 Rises=F Damp=F
 DIIS: error= 7.48D-06 at cycle   6 NSaved=   6.
 NSaved= 6 IEnMin= 6 EnMin=-0.141328489078688     IErMin= 6 ErrMin= 7.48D-06
 ErrMax= 7.48D-06  0.00D+00 EMaxC= 1.00D-01 BMatC= 1.79D-09 BMatP= 3.73D-08
 IDIUse=1 WtCom= 1.00D+00 WtEn= 0.00D+00
 Coeff-Com:  0.801D-03-0.530D-03-0.330D-01 0.307D+00-0.891D+00 0.162D+01
 Coeff:      0.801D-03-0.530D-03-0.330D-01 0.307D+00-0.891D+00 0.162D+01
 Gap=     0.376 Goal=   None    Shift=    0.000
 RMSDP=8.79D-06 MaxDP=7.22D-05 DE=-2.96D-07 OVMax= 1.05D-04

 Cycle   7  Pass 1  IDiag  3:
 E=-0.141328503166392     Delta-E=       -0.000000014088 Rises=F Damp=F
 DIIS: error= 1.39D-06 at cycle   7 NSaved=   7.
 NSaved= 7 IEnMin= 7 EnMin=-0.141328503166392     IErMin= 7 ErrMin= 1.39D-06
 ErrMax= 1.39D-06  0.00D+00 EMaxC= 1.00D-01 BMatC= 7.59D-11 BMatP= 1.79D-09
 IDIUse=1 WtCom= 1.00D+00 WtEn= 0.00D+00
 Coeff-Com: -0.489D-03 0.629D-03 0.148D-01-0.146D+00 0.437D+00-0.910D+00
 Coeff-Com:  0.160D+01
 Coeff:     -0.489D-03 0.629D-03 0.148D-01-0.146D+00 0.437D+00-0.910D+00
 Coeff:      0.160D+01
 Gap=     0.376 Goal=   None    Shift=    0.000
 RMSDP=1.70D-06 MaxDP=1.30D-05 DE=-1.41D-08 OVMax= 2.00D-05

 Cycle   8  Pass 1  IDiag  3:
 E=-0.141328503729369     Delta-E=       -0.000000000563 Rises=F Damp=F
 DIIS: error= 2.34D-07 at cycle   8 NSaved=   8.
 NSaved= 8 IEnMin= 8 EnMin=-0.141328503729369     IErMin= 8 ErrMin= 2.34D-07
 ErrMax= 2.34D-07  0.00D+00 EMaxC= 1.00D-01 BMatC= 3.73D-12 BMatP= 7.59D-11
 IDIUse=1 WtCom= 1.00D+00 WtEn= 0.00D+00
 Coeff-Com:  0.179D-03-0.124D-03-0.719D-02 0.683D-01-0.204D+00 0.432D+00
 Coeff-Com: -0.888D+00 0.160D+01
 Coeff:      0.179D-03-0.124D-03-0.719D-02 0.683D-01-0.204D+00 0.432D+00
 Coeff:     -0.888D+00 0.160D+01
 Gap=     0.376 Goal=   None    Shift=    0.000
 RMSDP=3.61D-07 MaxDP=2.27D-06 DE=-5.63D-10 OVMax= 3.59D-06

 Cycle   9  Pass 1  IDiag  3:
 E=-0.141328503756199     Delta-E=       -0.000000000027 Rises=F Damp=F
 DIIS: error= 4.89D-08 at cycle   9 NSaved=   9.
 NSaved= 9 IEnMin= 9 EnMin=-0.141328503756199     IErMin= 9 ErrMin= 4.89D-08
 ErrMax= 4.89D-08  0.00D+00 EMaxC= 1.00D-01 BMatC= 1.84D-13 BMatP= 3.73D-12
 IDIUse=1 WtCom= 1.00D+00 WtEn= 0.00D+00
 Coeff-Com: -0.736D-04 0.316D-04 0.326D-02-0.306D-01 0.909D-01-0.193D+00
 Coeff-Com:  0.403D+00-0.841D+00 0.157D+01
 Coeff:     -0.736D-04 0.316D-04 0.326D-02-0.306D-01 0.909D-01-0.193D+00
 Coeff:      0.403D+00-0.841D+00 0.157D+01
 Gap=     0.376 Goal=   None    Shift=    0.000
 RMSDP=7.94D-08 MaxDP=4.30D-07 DE=-2.68D-11 OVMax= 6.87D-07

 Cycle  10  Pass 1  IDiag  3:
 E=-0.141328503757535     Delta-E=       -0.000000000001 Rises=F Damp=F
 DIIS: error= 1.31D-08 at cycle  10 NSaved=  10.
 NSaved=10 IEnMin=10 EnMin=-0.141328503757535     IErMin=10 ErrMin= 1.31D-08
 ErrMax= 1.31D-08  0.00D+00 EMaxC= 1.00D-01 BMatC= 9.36D-15 BMatP= 1.84D-13
 IDIUse=1 WtCom= 1.00D+00 WtEn= 0.00D+00
 Coeff-Com:  0.194D-04-0.127D-05-0.981D-03 0.908D-02-0.269D-01 0.573D-01
 Coeff-Com: -0.121D+00 0.263D+00-0.663D+00 0.148D+01
 Coeff:      0.194D-04-0.127D-05-0.981D-03 0.908D-02-0.269D-01 0.573D-01
 Coeff:     -0.121D+00 0.263D+00-0.663D+00 0.148D+01
 Gap=     0.376 Goal=   None    Shift=    0.000
 RMSDP=1.85D-08 MaxDP=1.07D-07 DE=-1.34D-12 OVMax= 1.94D-07

 Cycle  11  Pass 1  IDiag  3:
 E=-0.141328503757563     Delta-E=       -0.000000000000 Rises=F Damp=F
 DIIS: error= 2.33D-09 at cycle  11 NSaved=  11.
 NSaved=11 IEnMin=11 EnMin=-0.141328503757563     IErMin=11 ErrMin= 2.33D-09
 ErrMax= 2.33D-09  0.00D+00 EMaxC= 1.00D-01 BMatC= 2.92D-16 BMatP= 9.36D-15
 IDIUse=1 WtCom= 1.00D+00 WtEn= 0.00D+00
 Coeff-Com: -0.409D-05-0.203D-05 0.245D-03-0.223D-02 0.660D-02-0.141D-01
 Coeff-Com:  0.298D-01-0.654D-01 0.184D+00-0.529D+00 0.139D+01
 Coeff:     -0.409D-05-0.203D-05 0.245D-03-0.223D-02 0.660D-02-0.141D-01
 Coeff:      0.298D-01-0.654D-01 0.184D+00-0.529D+00 0.139D+01
 Gap=     0.376 Goal=   None    Shift=    0.000
 RMSDP=2.80D-09 MaxDP=1.92D-08 DE=-2.84D-14 OVMax= 2.68D-08

 Cycle  12  Pass 2  IDiag  1:
 SCF Done:  E(RPM6) = -0.141328503758     A.U. after   12 cycles
            NFock= 11  Conv=0.28D-08     -V/T= 0.9978
 KE=-6.556106668725D+01 PE=-1.623677561540D+02 EE= 1.033678129431D+02
 Leave Link  502 at Sat Nov 25 14:45:29 2023, MaxMem=   134217728 cpu:               0.2 elap:               0.1
 (Enter /home/emanuele/chem_software/gaussian//gdv/l701.exe)
 ... and contract with generalized density number  0.
 Compute integral first derivatives.
 Leave Link  701 at Sat Nov 25 14:45:29 2023, MaxMem=   134217728 cpu:               0.2 elap:               0.1
 (Enter /home/emanuele/chem_software/gaussian//gdv/l702.exe)
 L702 exits ... SP integral derivatives will be done elsewhere.
 Leave Link  702 at Sat Nov 25 14:45:29 2023, MaxMem=   134217728 cpu:               0.2 elap:               0.0
 (Enter /home/emanuele/chem_software/gaussian//gdv/l703.exe)
 Integral derivatives from FoFJK, PRISM(SPDF).
 Compute integral first derivatives, UseDBF=F ICtDFT=           0.
 Calling FoFJK, ICntrl=      2127 FMM=F ISym2X=0 I1Cent= 0 IOpClX= 0 NMat=1 NMatS=1 NMatT=0.
 FoFJK:  IHMeth=40 ICntrl=    2127 DoSepK=F KAlg= 0 I1Cent=           0 FoldK=F
 IRaf=         0 NMat=       1 IRICut=       1 DoRegI=T DoRafI=F ISym2E= 0 IDoP0=3 IntGTp=3.
 FoFCou: FMM=F IPFlag=           0 FMFlag=      100000 FMFlg1=         800
         NFxFlg=           0 DoJE=F BraDBF=F KetDBF=F FulRan=T
         wScrn=  0.000000 ICntrl=      2127 IOpCl=  0 I1Cent=           0 NGrid=           0
         NMat0=    1 NMatS0=      1 NMatT0=    0 NMatD0=    1 NMtDS0=    0 NMtDT0=    0
 Symmetry not used in FoFCou.
 Leave Link  703 at Sat Nov 25 14:45:29 2023, MaxMem=   134217728 cpu:               0.1 elap:               0.0
 (Enter /home/emanuele/chem_software/gaussian//gdv/l716.exe)
 Dipole        = 6.22025340D-02-7.15308677D-01 7.70698833D-01
 -------------------------------------------------------------------
 Center     Atomic                   Forces (Hartrees/Bohr)
 Number     Number              X              Y              Z
 -------------------------------------------------------------------
      1        6           0.009448264    0.005631005   -0.000833400
      2        8           0.007197423   -0.004908360    0.001189036
      3        6          -0.008958283    0.006621204    0.003990164
      4        1           0.001644845    0.001556005   -0.001568142
      5        1           0.000970864   -0.000570968   -0.002326469
      6        7          -0.005373594   -0.002985221   -0.003814852
      7        1          -0.002625631   -0.001802973    0.001171025
      8        1          -0.001468733   -0.000760513    0.002062629
      9        8          -0.002584447   -0.007130992    0.000511211
     10        1           0.001749292    0.004350814   -0.000381201
 -------------------------------------------------------------------
 Cartesian Forces:  Max     0.009448264 RMS     0.004098916
 Leave Link  716 at Sat Nov 25 14:45:29 2023, MaxMem=   134217728 cpu:               0.2 elap:               0.0
 (Enter /home/emanuele/chem_software/gaussian//gdv/l103.exe)

 GradGradGradGradGradGradGradGradGradGradGradGradGradGradGradGradGradGrad
 Berny optimization.
 Using GEDIIS/GDIIS optimizer.
 FormGI is forming the generalized inverse of G from B-inverse, IUseBI=4.
 Internal  Forces:  Max     0.014263598 RMS     0.004282415
 Search for a local minimum.
 Step number   2 out of a maximum of  100 on scan point     1 out of    11
 All quantities printed in internal units (Hartrees-Bohrs-Radians)
 RMS Force = .43403D-02 SwitMx=.10000D-02 MixMth= 1
 Mixed Optimization -- RFO/linear search
 Update second derivatives using D2CorX and points    1    2
 DE= -4.35D-03 DEPred=-6.31D-03 R= 6.90D-01
 TightC=F SS=  1.41D+00  RLast= 2.38D-01 DXNew= 5.0454D-01 7.1392D-01
 Trust test= 6.90D-01 RLast= 2.38D-01 DXMaxT set to 5.05D-01
 ITU=  1  0
 Use linear search instead of GDIIS.
     Eigenvalues ---    0.00640   0.01005   0.01257   0.04019   0.05110
     Eigenvalues ---    0.06590   0.09594   0.13163   0.15732   0.16000
     Eigenvalues ---    0.17994   0.21880   0.23296   0.25179   0.32153
     Eigenvalues ---    0.33948   0.34536   0.43639   0.45785   0.46006
     Eigenvalues ---    0.53226   0.58431   1.049801000.000001000.00000
     Eigenvalues --- 1000.000001000.000001000.000001000.000001000.00000
     Eigenvalues --- 1000.000001000.000001000.000001000.000001000.00000
     Eigenvalues --- 1000.00000
 RFO step:  Lambda=-1.30241580D-03 EMin= 6.40187172D-03
 Quartic linear search produced a step of -0.20127.
 Iteration  1 RMS(Cart)=  0.02871575 RMS(Int)=  0.00042957
 Iteration  2 RMS(Cart)=  0.00042540 RMS(Int)=  0.00023856
 Iteration  3 RMS(Cart)=  0.00000013 RMS(Int)=  0.00023856
 Fixing frozen coordinates.
 Iteration  1 RMS(Cart)=  0.00000093 RMS(Int)=  0.00000116
 ITry= 1 IFail=0 DXMaxC= 8.17D-02 DCOld= 1.00D+10 DXMaxT= 5.05D-01 DXLimC= 3.00D+00 Rises=F
 Variable       Old X    -DE/DX   Delta X   Delta X   Delta X     New X
                                 (Linear)    (Quad)   (Total)
    R1        2.59758  -0.00702  -0.00900   0.00342  -0.00558   2.59199
    R2        2.89311  -0.01426  -0.00817  -0.02387  -0.03204   2.86107
    R3        2.28581  -0.00689  -0.00254  -0.00144  -0.00398   2.28183
    R4        1.86617   0.00060  -0.00750   0.01222   0.00472   1.87088
    R5        2.11454  -0.00207  -0.00694   0.00549  -0.00144   2.11310
    R6        2.10692   0.00188  -0.00872   0.01739   0.00866   2.11558
    R7        2.82070  -0.01054  -0.01554   0.00129  -0.01425   2.80645
    R8        1.92647  -0.00116  -0.00257   0.00186  -0.00072   1.92575
    R9        1.91587  -0.00005  -0.00143   0.00206   0.00063   1.91650
    A1        1.93617  -0.00630   0.00274  -0.02405  -0.02130   1.91487
    A2        2.11423  -0.00029   0.00661  -0.01074  -0.00413   2.11010
    A3        2.23247   0.00658  -0.00939   0.03486   0.02547   2.25794
    A4        2.01836  -0.00859  -0.02957   0.00055  -0.02902   1.98934
    A5        1.87298   0.00233  -0.00672   0.02088   0.01416   1.88715
    A6        1.90521   0.00192  -0.00277   0.01210   0.00916   1.91438
    A7        1.93400  -0.00427  -0.00071  -0.01723  -0.01792   1.91608
    A8        1.84336   0.00040   0.00213   0.00885   0.01093   1.85429
    A9        2.01373   0.00026  -0.00180  -0.00058  -0.00221   2.01152
   A10        1.89057  -0.00028   0.00944  -0.02171  -0.01226   1.87830
   A11        1.96345  -0.00480  -0.00878  -0.01996  -0.02924   1.93421
   A12        1.93729  -0.00287   0.00148  -0.02557  -0.02459   1.91270
   A13        1.88746   0.00239   0.00169  -0.00723  -0.00654   1.88092
    D1        3.09927   0.00059  -0.00134   0.00326   0.00195   3.10122
    D2       -0.01720   0.00072  -0.00000   0.00000  -0.00001  -0.01721
    D3       -1.27631  -0.00135   0.00456  -0.04238  -0.03792  -1.31424
    D4        0.71347   0.00128   0.00237  -0.01518  -0.01275   0.70072
    D5        2.79414  -0.00046   0.01181  -0.04483  -0.03297   2.76118
    D6        1.83803  -0.00165   0.00348  -0.03975  -0.03639   1.80164
    D7       -2.45538   0.00098   0.00129  -0.01256  -0.01121  -2.46658
    D8       -0.37470  -0.00075   0.01073  -0.04220  -0.03143  -0.40613
    D9        0.60862   0.00094  -0.00077   0.00509   0.00401   0.61262
   D10        2.72625  -0.00141  -0.00361  -0.03662  -0.04001   2.68625
   D11       -1.52394   0.00105   0.00993  -0.00860   0.00103  -1.52292
   D12        0.59369  -0.00130   0.00709  -0.05030  -0.04299   0.55071
   D13        2.69809   0.00057   0.00142  -0.00399  -0.00276   2.69533
   D14       -1.46746  -0.00178  -0.00143  -0.04570  -0.04677  -1.51423
         Item               Value     Threshold  Converged?
 Maximum Force            0.014264     0.000450     NO 
 RMS     Force            0.004340     0.000300     NO 
 Maximum Displacement     0.081703     0.001800     NO 
 RMS     Displacement     0.028886     0.001200     NO 
 Predicted change in Energy=-9.592071D-04
 Lowest energy point so far.  Saving SCF results.
 GradGradGradGradGradGradGradGradGradGradGradGradGradGradGradGradGradGrad

 Leave Link  103 at Sat Nov 25 14:45:29 2023, MaxMem=   134217728 cpu:               0.0 elap:               0.0
 (Enter /home/emanuele/chem_software/gaussian//gdv/l202.exe)
                          Input orientation:                          
 ---------------------------------------------------------------------
 Center     Atomic      Atomic             Coordinates (Angstroms)
 Number     Number       Type             X           Y           Z
 ---------------------------------------------------------------------
      1          6           0       -0.526031    0.146575    0.046599
      2          8           0       -1.631558   -0.651283   -0.103687
      3          6           0        0.716134   -0.714054    0.139219
      4          1           0        0.743073   -1.177673    1.156424
      5          1           0        0.643229   -1.561099   -0.589149
      6          7           0        1.911956    0.088645   -0.223043
      7          1           0        1.811339    1.051867    0.094089
      8          1           0        2.732565   -0.301418    0.227504
      9          8           0       -0.632330    1.347614    0.111742
     10          1           0       -2.486351   -0.152763   -0.134747
 ---------------------------------------------------------------------
                    Distance matrix (angstroms):
                    1          2          3          4          5
     1  C    0.000000
     2  O    1.371624   0.000000
     3  C    1.514013   2.361059   0.000000
     4  H    2.143822   2.739313   1.118202   0.000000
     5  H    2.165062   2.497617   1.119518   1.789975   0.000000
     6  N    2.453537   3.621910   1.485109   2.207437   2.113139
     7  H    2.507012   3.846216   2.078458   2.690836   2.942599
     8  H    3.294219   4.390633   2.060111   2.364063   2.572750
     9  O    1.207492   2.245096   2.463653   3.059440   3.252524
    10  H    1.991317   0.990030   3.262823   3.625844   3.461814
                    6          7          8          9         10
     6  N    0.000000
     7  H    1.019065   0.000000
     8  H    1.014170   1.642510   0.000000
     9  O    2.858405   2.461565   3.749031   0.000000
    10  H    4.405812   4.469188   5.233585   2.397766   0.000000
 Symmetry turned off by external request.
 Stoichiometry    C2H5NO2
 Framework group  C1[X(C2H5NO2)]
 Deg. of freedom    24
 Full point group                 C1      NOp   1
 Rotational constants (GHZ):          10.0490196           3.8707356           2.8906525
 Leave Link  202 at Sat Nov 25 14:45:29 2023, MaxMem=   134217728 cpu:               0.1 elap:               0.0
 (Enter /home/emanuele/chem_software/gaussian//gdv/l301.exe)
 Standard basis: VSTO-6G (5D, 7F)
 Ernie: Thresh=  0.10000D-02 Tol=  0.10000D-05 Strict=F.
  NNHCO=     0 NNPyr=     0 NCTC=     0               EPep=         0.000000000
    EC=        83.185223622  ECS=         2.151789918   EG=         0.122598372
   EHC=         0.000975177  EAt=       -38.066560349  AtH=         1.329713788
 EPDDG=         0.000000000  ECC=        85.460587088 EAtT=        39.396274136
    25 basis functions,   150 primitive gaussians,    25 cartesian basis functions
    15 alpha electrons       15 beta electrons
       nuclear repulsion energy       124.8568612248 Hartrees.
 IExCor=       0 DFT=F Ex=HF Corr=None N6=None ScaHFX=  1.000000
 ScaDFX=  1.000000  1.000000  1.000000  1.000000  1.000000  0.000000
 ScaDFX=  0.000000  0.000000  0.000000  0.000000  0.000000  0.000000
 IRadAn=      5 IRanWt=     -1 IRanGd=            0 ICorTp=0 IEmpDi=  4
 Integral buffers will be    131072 words long.
 Regular integral format.
 Two-electron integral symmetry is turned off.
 Leave Link  301 at Sat Nov 25 14:45:29 2023, MaxMem=   134217728 cpu:               0.2 elap:               0.1
 (Enter /home/emanuele/chem_software/gaussian//gdv/l302.exe)
 Do NDO integrals.
 NPDir=0 NMtPBC=     1 NCelOv=     1 NCel=       1 NClECP=     1 NCelD=      1
         NCelK=      1 NCelE2=     1 NClLst=     1 CellRange=     0.0.
 One-electron integrals computed using PRISM.
 NBasis=    25 RedAO= F EigKep=  0.00D+00  NBF=    25
 NBsUse=    25 1.00D-04 EigRej=  0.00D+00 NBFU=    25
 Leave Link  302 at Sat Nov 25 14:45:29 2023, MaxMem=   134217728 cpu:               0.3 elap:               0.1
 (Enter /home/emanuele/chem_software/gaussian//gdv/l303.exe)
 DipDrv:  MaxL=1.
 Leave Link  303 at Sat Nov 25 14:45:29 2023, MaxMem=   134217728 cpu:               0.1 elap:               0.0
 (Enter /home/emanuele/chem_software/gaussian//gdv/l401.exe)
 Initial guess from the checkpoint file:  "1_zmat_qm.chk"
 B after Tr=     0.000000    0.000000    0.000000
         Rot=    1.000000    0.000000    0.000000    0.000000 Ang=   0.00 deg.
 AO Guess basis will be translated and rotated to current coordinates.
 JPrj=0 DoOrth=T DoCkMO=T.
 Leave Link  401 at Sat Nov 25 14:45:30 2023, MaxMem=   134217728 cpu:               0.8 elap:               0.2
 (Enter /home/emanuele/chem_software/gaussian//gdv/l502.exe)
 Keep J ints in memory in canonical form, NReq=861126.
 FoFCou: FMM=F IPFlag=           0 FMFlag=           0 FMFlg1=           0
         NFxFlg=           0 DoJE=F BraDBF=F KetDBF=F FulRan=T
         wScrn=  0.000000 ICntrl=       600 IOpCl=  2 I1Cent=           0 NGrid=           0
         NMat0=    1 NMatS0=     55 NMatT0=    0 NMatD0=    1 NMtDS0=    0 NMtDT0=    0
 Symmetry not used in FoFCou.
 Two-electron integral symmetry not used.
 Closed shell SCF:
 Using DIIS extrapolation, IDIIS=  1040.
 Overlap will be assumed to be unity.
 NGot=   134217728 LenX=   134155015 LenY=   134153949
 Requested convergence on RMS density matrix=1.00D-08 within 128 cycles.
 Requested convergence on MAX density matrix=1.00D-06.
 Requested convergence on             energy=1.00D-06.
 No special actions if energy rises.

 Cycle   1  Pass 1  IDiag  1:
 E=-0.141376259185648    
 DIIS: error= 2.35D-03 at cycle   1 NSaved=   1.
 NSaved= 1 IEnMin= 1 EnMin=-0.141376259185648     IErMin= 1 ErrMin= 2.35D-03
 ErrMax= 2.35D-03  0.00D+00 EMaxC= 1.00D-01 BMatC= 2.41D-04 BMatP= 2.41D-04
 IDIUse=3 WtCom= 9.77D-01 WtEn= 2.35D-02
 Coeff-Com:  0.100D+01
 Coeff-En:   0.100D+01
 Coeff:      0.100D+01
 GapD=    2.000 DampG=2.000 DampE=1.000 DampFc=2.0000 IDamp=-1.
 RMSDP=1.15D-03 MaxDP=6.37D-03              OVMax= 0.00D+00

 Cycle   2  Pass 1  IDiag  3:
 E=-0.142215392890506     Delta-E=       -0.000839133705 Rises=F Damp=F
 DIIS: error= 8.52D-04 at cycle   2 NSaved=   2.
 NSaved= 2 IEnMin= 2 EnMin=-0.142215392890506     IErMin= 2 ErrMin= 8.52D-04
 ErrMax= 8.52D-04  0.00D+00 EMaxC= 1.00D-01 BMatC= 3.53D-05 BMatP= 2.41D-04
 IDIUse=3 WtCom= 9.91D-01 WtEn= 8.52D-03
 Coeff-Com: -0.541D+00 0.154D+01
 Coeff-En:   0.000D+00 0.100D+01
 Coeff:     -0.536D+00 0.154D+01
 Gap=     0.378 Goal=   None    Shift=    0.000
 RMSDP=7.65D-04 MaxDP=4.88D-03 DE=-8.39D-04 OVMax= 4.66D-03

 Cycle   3  Pass 1  IDiag  3:
 E=-0.142393069756267     Delta-E=       -0.000177676866 Rises=F Damp=F
 DIIS: error= 1.77D-04 at cycle   3 NSaved=   3.
 NSaved= 3 IEnMin= 3 EnMin=-0.142393069756267     IErMin= 3 ErrMin= 1.77D-04
 ErrMax= 1.77D-04  0.00D+00 EMaxC= 1.00D-01 BMatC= 1.10D-06 BMatP= 3.53D-05
 IDIUse=3 WtCom= 9.98D-01 WtEn= 1.77D-03
 Coeff-Com:  0.260D+00-0.830D+00 0.157D+01
 Coeff-En:   0.000D+00 0.000D+00 0.100D+01
 Coeff:      0.260D+00-0.828D+00 0.157D+01
 Gap=     0.378 Goal=   None    Shift=    0.000
 RMSDP=1.80D-04 MaxDP=1.27D-03 DE=-1.78D-04 OVMax= 1.08D-03

 Cycle   4  Pass 1  IDiag  3:
 E=-0.142400307337155     Delta-E=       -0.000007237581 Rises=F Damp=F
 DIIS: error= 2.83D-05 at cycle   4 NSaved=   4.
 NSaved= 4 IEnMin= 4 EnMin=-0.142400307337155     IErMin= 4 ErrMin= 2.83D-05
 ErrMax= 2.83D-05  0.00D+00 EMaxC= 1.00D-01 BMatC= 4.39D-08 BMatP= 1.10D-06
 IDIUse=1 WtCom= 1.00D+00 WtEn= 0.00D+00
 Coeff-Com: -0.143D+00 0.462D+00-0.957D+00 0.164D+01
 Coeff:     -0.143D+00 0.462D+00-0.957D+00 0.164D+01
 Gap=     0.378 Goal=   None    Shift=    0.000
 RMSDP=3.70D-05 MaxDP=2.11D-04 DE=-7.24D-06 OVMax= 2.76D-04

 Cycle   5  Pass 1  IDiag  3:
 E=-0.142400618733490     Delta-E=       -0.000000311396 Rises=F Damp=F
 DIIS: error= 8.37D-06 at cycle   5 NSaved=   5.
 NSaved= 5 IEnMin= 5 EnMin=-0.142400618733490     IErMin= 5 ErrMin= 8.37D-06
 ErrMax= 8.37D-06  0.00D+00 EMaxC= 1.00D-01 BMatC= 2.82D-09 BMatP= 4.39D-08
 IDIUse=1 WtCom= 1.00D+00 WtEn= 0.00D+00
 Coeff-Com:  0.574D-01-0.186D+00 0.395D+00-0.856D+00 0.159D+01
 Coeff:      0.574D-01-0.186D+00 0.395D+00-0.856D+00 0.159D+01
 Gap=     0.378 Goal=   None    Shift=    0.000
 RMSDP=1.02D-05 MaxDP=6.58D-05 DE=-3.11D-07 OVMax= 8.92D-05

 Cycle   6  Pass 1  IDiag  3:
 E=-0.142400639443991     Delta-E=       -0.000000020711 Rises=F Damp=F
 DIIS: error= 1.74D-06 at cycle   6 NSaved=   6.
 NSaved= 6 IEnMin= 6 EnMin=-0.142400639443991     IErMin= 6 ErrMin= 1.74D-06
 ErrMax= 1.74D-06  0.00D+00 EMaxC= 1.00D-01 BMatC= 1.53D-10 BMatP= 2.82D-09
 IDIUse=1 WtCom= 1.00D+00 WtEn= 0.00D+00
 Coeff-Com: -0.199D-01 0.647D-01-0.138D+00 0.330D+00-0.807D+00 0.157D+01
 Coeff:     -0.199D-01 0.647D-01-0.138D+00 0.330D+00-0.807D+00 0.157D+01
 Gap=     0.378 Goal=   None    Shift=    0.000
 RMSDP=2.20D-06 MaxDP=1.35D-05 DE=-2.07D-08 OVMax= 1.85D-05

 Cycle   7  Pass 1  IDiag  3:
 E=-0.142400640465596     Delta-E=       -0.000000001022 Rises=F Damp=F
 DIIS: error= 3.18D-07 at cycle   7 NSaved=   7.
 NSaved= 7 IEnMin= 7 EnMin=-0.142400640465596     IErMin= 7 ErrMin= 3.18D-07
 ErrMax= 3.18D-07  0.00D+00 EMaxC= 1.00D-01 BMatC= 5.77D-12 BMatP= 1.53D-10
 IDIUse=1 WtCom= 1.00D+00 WtEn= 0.00D+00
 Coeff-Com:  0.665D-02-0.216D-01 0.464D-01-0.115D+00 0.304D+00-0.716D+00
 Coeff-Com:  0.150D+01
 Coeff:      0.665D-02-0.216D-01 0.464D-01-0.115D+00 0.304D+00-0.716D+00
 Coeff:      0.150D+01
 Gap=     0.378 Goal=   None    Shift=    0.000
 RMSDP=3.94D-07 MaxDP=2.07D-06 DE=-1.02D-09 OVMax= 2.79D-06

 Cycle   8  Pass 1  IDiag  3:
 E=-0.142400640503396     Delta-E=       -0.000000000038 Rises=F Damp=F
 DIIS: error= 9.59D-08 at cycle   8 NSaved=   8.
 NSaved= 8 IEnMin= 8 EnMin=-0.142400640503396     IErMin= 8 ErrMin= 9.59D-08
 ErrMax= 9.59D-08  0.00D+00 EMaxC= 1.00D-01 BMatC= 3.54D-13 BMatP= 5.77D-12
 IDIUse=1 WtCom= 1.00D+00 WtEn= 0.00D+00
 Coeff-Com: -0.150D-02 0.490D-02-0.106D-01 0.284D-01-0.832D-01 0.225D+00
 Coeff-Com: -0.686D+00 0.152D+01
 Coeff:     -0.150D-02 0.490D-02-0.106D-01 0.284D-01-0.832D-01 0.225D+00
 Coeff:     -0.686D+00 0.152D+01
 Gap=     0.378 Goal=   None    Shift=    0.000
 RMSDP=1.05D-07 MaxDP=7.62D-07 DE=-3.78D-11 OVMax= 8.07D-07

 Cycle   9  Pass 1  IDiag  3:
 E=-0.142400640505855     Delta-E=       -0.000000000002 Rises=F Damp=F
 DIIS: error= 1.60D-08 at cycle   9 NSaved=   9.
 NSaved= 9 IEnMin= 9 EnMin=-0.142400640505855     IErMin= 9 ErrMin= 1.60D-08
 ErrMax= 1.60D-08  0.00D+00 EMaxC= 1.00D-01 BMatC= 1.43D-14 BMatP= 3.54D-13
 IDIUse=1 WtCom= 1.00D+00 WtEn= 0.00D+00
 Coeff-Com:  0.421D-03-0.138D-02 0.300D-02-0.844D-02 0.261D-01-0.748D-01
 Coeff-Com:  0.254D+00-0.699D+00 0.150D+01
 Coeff:      0.421D-03-0.138D-02 0.300D-02-0.844D-02 0.261D-01-0.748D-01
 Coeff:      0.254D+00-0.699D+00 0.150D+01
 Gap=     0.378 Goal=   None    Shift=    0.000
 RMSDP=2.00D-08 MaxDP=1.43D-07 DE=-2.46D-12 OVMax= 1.21D-07

 Cycle  10  Pass 1  IDiag  3:
 E=-0.142400640506139     Delta-E=       -0.000000000000 Rises=F Damp=F
 DIIS: error= 3.82D-09 at cycle  10 NSaved=  10.
 NSaved=10 IEnMin=10 EnMin=-0.142400640506139     IErMin=10 ErrMin= 3.82D-09
 ErrMax= 3.82D-09  0.00D+00 EMaxC= 1.00D-01 BMatC= 5.86D-16 BMatP= 1.43D-14
 IDIUse=1 WtCom= 1.00D+00 WtEn= 0.00D+00
 Coeff-Com: -0.474D-04 0.156D-03-0.346D-03 0.109D-02-0.372D-02 0.115D-01
 Coeff-Com: -0.422D-01 0.128D+00-0.410D+00 0.132D+01
 Coeff:     -0.474D-04 0.156D-03-0.346D-03 0.109D-02-0.372D-02 0.115D-01
 Coeff:     -0.422D-01 0.128D+00-0.410D+00 0.132D+01
 Gap=     0.378 Goal=   None    Shift=    0.000
 RMSDP=3.75D-09 MaxDP=1.88D-08 DE=-2.84D-13 OVMax= 2.06D-08

 Cycle  11  Pass 2  IDiag  1:
 SCF Done:  E(RPM6) = -0.142400640506     A.U. after   11 cycles
            NFock= 10  Conv=0.38D-08     -V/T= 0.9978
 KE=-6.556997337766D+01 PE=-1.631758623202D+02 EE= 1.037465738326D+02
 Leave Link  502 at Sat Nov 25 14:45:30 2023, MaxMem=   134217728 cpu:               0.2 elap:               0.1
 (Enter /home/emanuele/chem_software/gaussian//gdv/l701.exe)
 ... and contract with generalized density number  0.
 Compute integral first derivatives.
 Leave Link  701 at Sat Nov 25 14:45:30 2023, MaxMem=   134217728 cpu:               0.2 elap:               0.1
 (Enter /home/emanuele/chem_software/gaussian//gdv/l702.exe)
 L702 exits ... SP integral derivatives will be done elsewhere.
 Leave Link  702 at Sat Nov 25 14:45:30 2023, MaxMem=   134217728 cpu:               0.1 elap:               0.0
 (Enter /home/emanuele/chem_software/gaussian//gdv/l703.exe)
 Integral derivatives from FoFJK, PRISM(SPDF).
 Compute integral first derivatives, UseDBF=F ICtDFT=           0.
 Calling FoFJK, ICntrl=      2127 FMM=F ISym2X=0 I1Cent= 0 IOpClX= 0 NMat=1 NMatS=1 NMatT=0.
 FoFJK:  IHMeth=40 ICntrl=    2127 DoSepK=F KAlg= 0 I1Cent=           0 FoldK=F
 IRaf=         0 NMat=       1 IRICut=       1 DoRegI=T DoRafI=F ISym2E= 0 IDoP0=3 IntGTp=3.
 FoFCou: FMM=F IPFlag=           0 FMFlag=      100000 FMFlg1=         800
         NFxFlg=           0 DoJE=F BraDBF=F KetDBF=F FulRan=T
         wScrn=  0.000000 ICntrl=      2127 IOpCl=  0 I1Cent=           0 NGrid=           0
         NMat0=    1 NMatS0=      1 NMatT0=    0 NMatD0=    1 NMtDS0=    0 NMtDT0=    0
 Symmetry not used in FoFCou.
 Leave Link  703 at Sat Nov 25 14:45:30 2023, MaxMem=   134217728 cpu:               0.2 elap:               0.0
 (Enter /home/emanuele/chem_software/gaussian//gdv/l716.exe)
 Dipole        = 6.20491305D-02-6.99610996D-01 7.80997109D-01
 -------------------------------------------------------------------
 Center     Atomic                   Forces (Hartrees/Bohr)
 Number     Number              X              Y              Z
 -------------------------------------------------------------------
      1        6           0.003070231    0.002872143   -0.000841137
      2        8           0.000774375   -0.003368622    0.000765711
      3        6          -0.005488150    0.000494714    0.002134078
      4        1           0.000725484    0.000375604   -0.001436986
      5        1          -0.000169932   -0.000728619   -0.000516051
      6        7           0.000920242   -0.001050418   -0.000861243
      7        1           0.000336160    0.001029532   -0.000003408
      8        1           0.001508572    0.000471076    0.000568163
      9        8          -0.001277559   -0.002122785    0.000847666
     10        1          -0.000399422    0.002027376   -0.000656794
 -------------------------------------------------------------------
 Cartesian Forces:  Max     0.005488150 RMS     0.001709165
 Leave Link  716 at Sat Nov 25 14:45:30 2023, MaxMem=   134217728 cpu:               0.1 elap:               0.0
 (Enter /home/emanuele/chem_software/gaussian//gdv/l103.exe)

 GradGradGradGradGradGradGradGradGradGradGradGradGradGradGradGradGradGrad
 Berny optimization.
 Using GEDIIS/GDIIS optimizer.
 FormGI is forming the generalized inverse of G from B-inverse, IUseBI=4.
 Internal  Forces:  Max     0.002761969 RMS     0.001125581
 Search for a local minimum.
 Step number   3 out of a maximum of  100 on scan point     1 out of    11
 All quantities printed in internal units (Hartrees-Bohrs-Radians)
 RMS Force = .11293D-02 SwitMx=.10000D-02 MixMth= 1
 Mixed Optimization -- RFO/linear search
 Update second derivatives using D2CorX and points    1    2    3
 DE= -1.07D-03 DEPred=-9.59D-04 R= 1.12D+00
 TightC=F SS=  1.41D+00  RLast= 1.28D-01 DXNew= 8.4853D-01 3.8549D-01
 Trust test= 1.12D+00 RLast= 1.28D-01 DXMaxT set to 5.05D-01
 ITU=  1  1  0
 Use linear search instead of GDIIS.
     Eigenvalues ---    0.00620   0.00986   0.01239   0.04441   0.05206
     Eigenvalues ---    0.06764   0.09256   0.13106   0.15977   0.16662
     Eigenvalues ---    0.17196   0.20167   0.22828   0.25175   0.30829
     Eigenvalues ---    0.33790   0.34446   0.44112   0.45779   0.47401
     Eigenvalues ---    0.53075   0.59513   1.039191000.000001000.00000
     Eigenvalues --- 1000.000001000.000001000.000001000.000001000.00000
     Eigenvalues --- 1000.000001000.000001000.000001000.000001000.00000
     Eigenvalues --- 1000.00000
 RFO step:  Lambda=-2.92078553D-04 EMin= 6.20374574D-03
 Quartic linear search produced a step of  0.11937.
 Iteration  1 RMS(Cart)=  0.02658901 RMS(Int)=  0.00041519
 Iteration  2 RMS(Cart)=  0.00048662 RMS(Int)=  0.00003341
 Iteration  3 RMS(Cart)=  0.00000014 RMS(Int)=  0.00003341
 Fixing frozen coordinates.
 Iteration  1 RMS(Cart)=  0.00000075 RMS(Int)=  0.00000092
 ITry= 1 IFail=0 DXMaxC= 9.09D-02 DCOld= 1.00D+10 DXMaxT= 5.05D-01 DXLimC= 3.00D+00 Rises=F
 Variable       Old X    -DE/DX   Delta X   Delta X   Delta X     New X
                                 (Linear)    (Quad)   (Total)
    R1        2.59199   0.00047  -0.00067   0.00237   0.00171   2.59370
    R2        2.86107  -0.00212  -0.00382  -0.00744  -0.01126   2.84981
    R3        2.28183  -0.00195  -0.00048  -0.00186  -0.00234   2.27949
    R4        1.87088   0.00139   0.00056   0.00445   0.00501   1.87589
    R5        2.11310  -0.00145  -0.00017  -0.00382  -0.00399   2.10910
    R6        2.11558   0.00090   0.00103   0.00477   0.00581   2.12139
    R7        2.80645   0.00254  -0.00170   0.00992   0.00822   2.81467
    R8        1.92575   0.00094  -0.00009   0.00280   0.00272   1.92847
    R9        1.91650   0.00129   0.00008   0.00351   0.00359   1.92009
    A1        1.91487  -0.00142  -0.00254  -0.00768  -0.01023   1.90464
    A2        2.11010  -0.00082  -0.00049  -0.00504  -0.00553   2.10457
    A3        2.25794   0.00224   0.00304   0.01277   0.01581   2.27375
    A4        1.98934  -0.00276  -0.00346  -0.01607  -0.01953   1.96981
    A5        1.88715   0.00013   0.00169   0.00636   0.00804   1.89518
    A6        1.91438  -0.00039   0.00109  -0.00162  -0.00054   1.91384
    A7        1.91608   0.00128  -0.00214   0.00739   0.00524   1.92132
    A8        1.85429   0.00006   0.00131  -0.00295  -0.00169   1.85260
    A9        2.01152  -0.00071  -0.00026  -0.00379  -0.00409   2.00743
   A10        1.87830  -0.00043  -0.00146  -0.00588  -0.00735   1.87095
   A11        1.93421   0.00060  -0.00349   0.00591   0.00235   1.93656
   A12        1.91270   0.00140  -0.00294   0.01019   0.00719   1.91988
   A13        1.88092  -0.00084  -0.00078  -0.00416  -0.00507   1.87585
    D1        3.10122   0.00056   0.00023   0.00219   0.00241   3.10363
    D2       -0.01721   0.00077  -0.00000   0.00000   0.00001  -0.01720
    D3       -1.31424  -0.00009  -0.00453  -0.04244  -0.04697  -1.36121
    D4        0.70072  -0.00016  -0.00152  -0.04330  -0.04482   0.65590
    D5        2.76118  -0.00015  -0.00394  -0.04703  -0.05098   2.71019
    D6        1.80164  -0.00038  -0.00434  -0.04035  -0.04468   1.75696
    D7       -2.46658  -0.00045  -0.00134  -0.04121  -0.04253  -2.50912
    D8       -0.40613  -0.00045  -0.00375  -0.04494  -0.04870  -0.45483
    D9        0.61262  -0.00007   0.00048  -0.01686  -0.01643   0.59619
   D10        2.68625   0.00015  -0.00478  -0.01195  -0.01670   2.66955
   D11       -1.52292  -0.00074   0.00012  -0.02833  -0.02822  -1.55114
   D12        0.55071  -0.00052  -0.00513  -0.02341  -0.02849   0.52222
   D13        2.69533  -0.00007  -0.00033  -0.01811  -0.01848   2.67685
   D14       -1.51423   0.00015  -0.00558  -0.01319  -0.01875  -1.53298
         Item               Value     Threshold  Converged?
 Maximum Force            0.002762     0.000450     NO 
 RMS     Force            0.001129     0.000300     NO 
 Maximum Displacement     0.090922     0.001800     NO 
 RMS     Displacement     0.026641     0.001200     NO 
 Predicted change in Energy=-1.688885D-04
 Lowest energy point so far.  Saving SCF results.
 GradGradGradGradGradGradGradGradGradGradGradGradGradGradGradGradGradGrad

 Leave Link  103 at Sat Nov 25 14:45:30 2023, MaxMem=   134217728 cpu:               0.0 elap:               0.0
 (Enter /home/emanuele/chem_software/gaussian//gdv/l202.exe)
                          Input orientation:                          
 ---------------------------------------------------------------------
 Center     Atomic      Atomic             Coordinates (Angstroms)
 Number     Number       Type             X           Y           Z
 ---------------------------------------------------------------------
      1          6           0       -0.526149    0.148549    0.063662
      2          8           0       -1.621180   -0.655595   -0.131504
      3          6           0        0.709398   -0.711696    0.150965
      4          1           0        0.751543   -1.171657    1.166992
      5          1           0        0.627838   -1.564403   -0.574603
      6          7           0        1.911634    0.079486   -0.232641
      7          1           0        1.817235    1.052328    0.060778
      8          1           0        2.736707   -0.298406    0.224357
      9          8           0       -0.652184    1.344338    0.159856
     10          1           0       -2.472816   -0.146532   -0.162911
 ---------------------------------------------------------------------
                    Distance matrix (angstroms):
                    1          2          3          4          5
     1  C    0.000000
     2  O    1.372527   0.000000
     3  C    1.508052   2.348304   0.000000
     4  H    2.143077   2.753585   1.116088   0.000000
     5  H    2.161776   2.465837   1.122591   1.789610   0.000000
     6  N    2.456695   3.609896   1.489460   2.206840   2.113632
     7  H    2.511628   3.844043   2.084997   2.702872   2.943748
     8  H    3.297245   4.386958   2.070308   2.364742   2.586196
     9  O    1.206255   2.241334   2.466021   3.052050   3.261696
    10  H    1.981898   0.992680   3.247216   3.635384   3.434225
                    6          7          8          9         10
     6  N    0.000000
     7  H    1.020503   0.000000
     8  H    1.016069   1.642154   0.000000
     9  O    2.885665   2.488597   3.766610   0.000000
    10  H    4.390825   4.460027   5.226105   2.375200   0.000000
 Symmetry turned off by external request.
 Stoichiometry    C2H5NO2
 Framework group  C1[X(C2H5NO2)]
 Deg. of freedom    24
 Full point group                 C1      NOp   1
 Rotational constants (GHZ):           9.9855301           3.8698026           2.8953759
 Leave Link  202 at Sat Nov 25 14:45:30 2023, MaxMem=   134217728 cpu:               0.1 elap:               0.0
 (Enter /home/emanuele/chem_software/gaussian//gdv/l301.exe)
 Standard basis: VSTO-6G (5D, 7F)
 Ernie: Thresh=  0.10000D-02 Tol=  0.10000D-05 Strict=F.
  NNHCO=     0 NNPyr=     0 NCTC=     0               EPep=         0.000000000
    EC=        83.180873716  ECS=         2.149478575   EG=         0.122630676
[...]
    A1        1.92042  -0.00004  -0.00011  -0.00011  -0.00022   1.92020
    A2        2.10280   0.00004   0.00007   0.00011   0.00019   2.10299
    A3        2.25996   0.00000   0.00003   0.00000   0.00003   2.25999
    A4        1.97215  -0.00003  -0.00007  -0.00009  -0.00016   1.97199
    A5        1.90815  -0.00000  -0.00008   0.00007  -0.00001   1.90814
    A6        1.90827   0.00001   0.00011  -0.00001   0.00010   1.90837
    A7        1.99086  -0.00000  -0.00002   0.00005   0.00003   1.99089
    A8        1.83050  -0.00001   0.00001  -0.00020  -0.00019   1.83032
    A9        1.90941   0.00001   0.00000   0.00010   0.00010   1.90951
   A10        1.90979  -0.00000  -0.00002  -0.00003  -0.00005   1.90974
   A11        1.93688   0.00000   0.00002  -0.00001   0.00001   1.93690
   A12        1.93683   0.00000   0.00001   0.00004   0.00006   1.93689
   A13        1.86845  -0.00000  -0.00001   0.00003   0.00002   1.86848
    D1        3.12801   0.00018  -0.00017  -0.00000  -0.00017   3.12784
    D2       -0.01720   0.00028  -0.00000   0.00000  -0.00000  -0.01720
    D3       -1.00612   0.00006   0.00018   0.00012   0.00030  -1.00582
    D4        0.98876   0.00006   0.00021  -0.00009   0.00012   0.98888
    D5        3.13321   0.00005   0.00025  -0.00010   0.00015   3.13336
    D6        2.13952  -0.00005  -0.00001   0.00011   0.00010   2.13962
    D7       -2.14879  -0.00006   0.00002  -0.00009  -0.00007  -2.14886
    D8       -0.00434  -0.00006   0.00006  -0.00011  -0.00004  -0.00439
    D9       -1.03931  -0.00000  -0.00004   0.00014   0.00010  -1.03921
   D10        1.03594  -0.00000  -0.00003   0.00020   0.00017   1.03611
   D11        3.10071  -0.00001   0.00008  -0.00006   0.00002   3.10072
   D12       -1.10723  -0.00000   0.00009  -0.00000   0.00009  -1.10714
   D13        1.10431   0.00000   0.00008   0.00013   0.00021   1.10452
   D14       -3.10362   0.00001   0.00008   0.00020   0.00028  -3.10334
         Item               Value     Threshold  Converged?
 Maximum Force            0.000044     0.000450     YES
 RMS     Force            0.000015     0.000300     YES
 Maximum Displacement     0.000393     0.001800     YES
 RMS     Displacement     0.000142     0.001200     YES
 Predicted change in Energy=-1.945073D-08
 Optimization completed.
    -- Stationary point found.
                           ----------------------------
                           !   Optimized Parameters   !
                           ! (Angstroms and Degrees)  !
 --------------------------                            --------------------------
 ! Name  Definition              Value          Derivative Info.                !
 --------------------------------------------------------------------------------
 ! R1    R(1,2)                  1.373          -DE/DX =    0.0                 !
 ! R2    R(1,3)                  1.5162         -DE/DX =    0.0                 !
 ! R3    R(1,9)                  1.2075         -DE/DX =    0.0                 !
 ! R4    R(2,10)                 0.9953         -DE/DX =    0.0                 !
 ! R5    R(3,4)                  1.1191         -DE/DX =    0.0                 !
 ! R6    R(3,5)                  1.1191         -DE/DX =    0.0                 !
 ! R7    R(3,6)                  1.4737         -DE/DX =    0.0                 !
 ! R8    R(6,7)                  1.0179         -DE/DX =    0.0                 !
 ! R9    R(6,8)                  1.018          -DE/DX =    0.0                 !
 ! A1    A(2,1,3)              110.0319         -DE/DX =    0.0                 !
 ! A2    A(2,1,9)              120.4815         -DE/DX =    0.0                 !
 ! A3    A(3,1,9)              129.4862         -DE/DX =    0.0                 !
 ! A4    A(1,2,10)             112.9958         -DE/DX =    0.0                 !
 ! A5    A(1,3,4)              109.3289         -DE/DX =    0.0                 !
 ! A6    A(1,3,5)              109.336          -DE/DX =    0.0                 !
 ! A7    A(1,3,6)              114.0681         -DE/DX =    0.0                 !
 ! A8    A(4,3,5)              104.8802         -DE/DX =    0.0                 !
 ! A9    A(4,3,6)              109.401          -DE/DX =    0.0                 !
 ! A10   A(5,3,6)              109.4228         -DE/DX =    0.0                 !
 ! A11   A(3,6,7)              110.9753         -DE/DX =    0.0                 !
 ! A12   A(3,6,8)              110.9723         -DE/DX =    0.0                 !
 ! A13   A(7,6,8)              107.0545         -DE/DX =    0.0                 !
 ! D1    D(3,1,2,10)           179.2217         -DE/DX =    0.0002              !
 ! D2    D(9,1,2,10)            -0.9856         -DE/DX =    0.0003              !
 ! D3    D(2,1,3,4)            -57.6463         -DE/DX =    0.0001              !
 ! D4    D(2,1,3,5)             56.652          -DE/DX =    0.0001              !
 ! D5    D(2,1,3,6)            179.5197         -DE/DX =    0.0001              !
 ! D6    D(9,1,3,4)            122.5852         -DE/DX =   -0.0001              !
 ! D7    D(9,1,3,5)           -123.1165         -DE/DX =   -0.0001              !
 ! D8    D(9,1,3,6)             -0.2488         -DE/DX =   -0.0001              !
 ! D9    D(1,3,6,7)            -59.5479         -DE/DX =    0.0                 !
 ! D10   D(1,3,6,8)             59.3551         -DE/DX =    0.0                 !
 ! D11   D(4,3,6,7)            177.6575         -DE/DX =    0.0                 !
 ! D12   D(4,3,6,8)            -63.4396         -DE/DX =    0.0                 !
 ! D13   D(5,3,6,7)             63.2725         -DE/DX =    0.0                 !
 ! D14   D(5,3,6,8)           -177.8245         -DE/DX =    0.0                 !
 --------------------------------------------------------------------------------
 Lowest energy point so far.  Saving SCF results.
 Summary of Optimized Potential Surface Scan (add -0.0 to energies):
                           1         2         3         4         5
     Eigenvalues --    -0.14829  -0.14371  -0.13445  -0.13055  -0.13432
           R1           1.37304   1.37827   1.39066   1.39528   1.38595
           R2           1.51616   1.51688   1.51742   1.51826   1.52125
           R3           1.20745   1.20496   1.20003   1.19793   1.20035
           R4           0.99536   0.98728   0.97079   0.96563   0.97593
           R5           1.11909   1.11966   1.12057   1.12050   1.11877
           R6           1.11910   1.11840   1.11732   1.11624   1.11610
           R7           1.47366   1.47376   1.47388   1.47496   1.47655
           R8           1.01789   1.01813   1.01765   1.01768   1.01831
           R9           1.01792   1.01781   1.01770   1.01796   1.01821
           A1         110.01810 109.72213 110.32669 112.77633 115.16965
           A2         120.49200 120.83331 120.38684 118.73126 117.38730
           A3         129.48954 129.08072 128.65008 128.29102 127.43218
           A4         112.98631 114.19272 116.36305 116.68705 115.90723
           A5         109.32786 109.38256 108.93370 108.81338 109.32308
           A6         109.34596 109.20743 109.46288 110.07165 110.30440
           A7         114.07152 114.22053 114.55455 114.57693 114.18718
           A8         104.86153 104.78934 104.70439 104.79459 105.45516
           A9         109.40737 109.56923 109.53287 109.21447 108.75744
           A10        109.42079 109.24619 109.19107 108.91268 108.43798
           A11        110.97602 110.96737 111.01552 110.92524 110.68539
           A12        110.97510 110.94226 110.90948 110.79978 110.64459
           A13        107.05607 107.04633 107.10346 107.05604 106.89174
           D1         179.21201-151.30834-117.36530 -77.71688 -38.09481
           D2          -0.98564  35.01434  71.01433 107.01435 143.01450
           D3         -57.65101 -43.99582 -44.37049 -51.42826 -54.29768
           D4          56.62998  70.15373  69.57325  62.88305  61.22325
           D5         179.50509-167.19868-167.41842-173.98471-176.37372
           D6         122.56968 129.00712 126.36641 123.28437 124.46190
           D7        -123.14934-116.84333-119.68985-122.40432-120.01717
           D8          -0.27422   5.80426   3.31848   0.72792   2.38585
           D9         -59.55034 -57.07595 -56.51719 -56.85040 -57.49816
           D10         59.35689  61.79214  62.43239  61.91050  60.80629
           D11        177.64910 179.82225-179.24182-179.18946-179.88383
           D12        -63.44367 -61.30965 -60.29224 -60.42856 -61.57937
           D13         63.28401  65.55053  66.63748  66.90300  65.91889
           D14       -177.80876-175.58137-174.41294-174.33610-175.77665
                           6         7         8         9        10
     Eigenvalues --    -0.13734  -0.13459  -0.13061  -0.13402  -0.14324
           R1           1.37949   1.38541   1.39514   1.39155   1.37876
           R2           1.52232   1.52139   1.51837   1.51732   1.51698
           R3           1.20232   1.20052   1.19794   1.19985   1.20471
           R4           0.98099   0.97638   0.96611   0.96989   0.98645
           R5           1.11720   1.11616   1.11627   1.11714   1.11847
           R6           1.11713   1.11858   1.12035   1.12065   1.11960
           R7           1.47716   1.47663   1.47508   1.47395   1.47384
           R8           1.01850   1.01821   1.01796   1.01764   1.01777
           R9           1.01856   1.01829   1.01777   1.01779   1.01814
           A1         116.17004 115.27218 112.91433 110.44307 109.68304
           A2         116.83131 117.33001 118.64591 120.29271 120.82983
           A3         126.99865 127.38888 128.25762 128.62804 129.08896
           A4         115.89593 115.89281 116.60438 116.42252 114.37818
           A5         109.92380 110.28300 110.09792 109.50246 109.17933
           A6         109.95574 109.35717 108.82332 108.93332 109.33896
           A7         113.98793 114.15982 114.57274 114.55060 114.25435
           A8         105.79766 105.50867 104.84550 104.66394 104.82158
           A9         108.42452 108.41969 108.86783 109.20972 109.24165
           A10        108.41200 108.74316 109.18120 109.51594 109.57930
           A11        110.57399 110.64271 110.79886 110.90641 110.93991
           A12        110.57222 110.67246 110.90996 111.01624 110.96965
           A13        106.80694 106.88839 107.04248 107.11085 107.06835
           D1          -1.00247  36.02036  75.51555 115.39288 149.62667
           D2         179.01435-144.98563-108.98568 -72.98578 -36.98587
           D3         -57.92205 -61.18072 -62.72292 -69.23054 -70.41480
           D4          58.16141  54.41238  51.66885  44.68606  43.73437
           D5        -179.87648 176.47641 174.18663 167.70880 166.94108
           D6         122.05916 119.94410 122.30906 120.03761 116.90447
           D7        -121.85738-124.46281-123.29917-126.04579-128.94636
           D8           0.10473  -2.39877  -0.78139  -3.02306  -5.73965
           D9         -58.99962 -60.75419 -61.80372 -62.40786 -62.03519
           D10         59.08420  57.53675  56.92983  56.54944  56.86043
           D11        178.22332 175.88939 174.44633 174.37396 175.35461
           D12        -63.69287 -65.81967 -66.82012 -66.66873 -65.74976
           D13         63.80933  61.64612  60.52001  60.30040  61.04147
           D14       -178.10685 179.93706 179.25357 179.25771 179.93710
                          11
     Eigenvalues --    -0.14829
           R1           1.37305
           R2           1.51618
           R3           1.20746
           R4           0.99531
           R5           1.11908
           R6           1.11908
           R7           1.47368
           R8           1.01788
           R9           1.01797
           A1         110.03195
           A2         120.48147
           A3         129.48619
           A4         112.99579
           A5         109.32892
           A6         109.33596
           A7         114.06811
           A8         104.88016
           A9         109.40098
           A10        109.42279
           A11        110.97530
           A12        110.97227
           A13        107.05449
           D1         179.22174
           D2          -0.98560
           D3         -57.64633
           D4          56.65199
           D5         179.51971
           D6         122.58520
           D7        -123.11648
           D8          -0.24876
           D9         -59.54787
           D10         59.35507
           D11        177.65746
           D12        -63.43961
           D13         63.27254
           D14       -177.82453
 Largest change from initial coordinates is atom    8       0.381 Angstoms.
 GradGradGradGradGradGradGradGradGradGradGradGradGradGradGradGradGradGrad

 Leave Link  103 at Sat Nov 25 14:46:21 2023, MaxMem=   134217728 cpu:               0.0 elap:               0.0
 (Enter /home/emanuele/chem_software/gaussian//gdv/l202.exe)
                          Input orientation:                          
 ---------------------------------------------------------------------
 Center     Atomic      Atomic             Coordinates (Angstroms)
 Number     Number       Type             X           Y           Z
 ---------------------------------------------------------------------
      1          6           0       -0.465861    0.122526    0.209638
      2          8           0       -1.630916   -0.594479    0.092114
      3          6           0        0.723539   -0.764366   -0.102695
      4          1           0        0.719961   -1.645387    0.587322
      5          1           0        0.601984   -1.200405   -1.126138
      6          7           0        2.024684   -0.078181   -0.013735
      7          1           0        2.068109    0.705956   -0.661286
      8          1           0        2.175459    0.297313    0.920363
      9          8           0       -0.493321    1.289342    0.519069
     10          1           0       -2.441614   -0.055906    0.300299
 ---------------------------------------------------------------------
                    Distance matrix (angstroms):
                    1          2          3          4          5
     1  C    0.000000
     2  O    1.373048   0.000000
     3  C    1.516180   2.368600   0.000000
     4  H    2.162021   2.622262   1.119077   0.000000
     5  H    2.162115   2.614790   1.119081   1.774225   0.000000
     6  N    2.508584   3.693396   1.473683   2.125960   2.126242
     7  H    2.742244   3.992684   2.069236   2.984181   2.449454
     8  H    2.740848   3.996220   2.069270   2.450198   2.984485
     9  O    1.207461   2.241694   2.466790   3.176373   3.178874
    10  H    1.985864   0.995306   3.268412   3.550266   3.550788
                    6          7          8          9         10
     6  N    0.000000
     7  H    1.017879   0.000000
     8  H    1.017973   1.637109   0.000000
     9  O    2.914506   2.880017   2.875333   0.000000
    10  H    4.477380   4.673616   4.671895   2.377688   0.000000
 Symmetry turned off by external request.
 Stoichiometry    C2H5NO2
 Framework group  C1[X(C2H5NO2)]
 Deg. of freedom    24
 Full point group                 C1      NOp   1
 Rotational constants (GHZ):          10.1392294           3.8108144           2.8619388
 Leave Link  202 at Sat Nov 25 14:46:21 2023, MaxMem=   134217728 cpu:               0.1 elap:               0.0
 (Enter /home/emanuele/chem_software/gaussian//gdv/l601.exe)
 Copying SCF densities to generalized density rwf, IOpCl= 0 IROHF=0.

 **********************************************************************

            Population analysis using the SCF Density.

 **********************************************************************

 Alpha  occ. eigenvalues --       -1.20532      -1.15833      -1.13502      -0.95597      -0.79220
 Alpha  occ. eigenvalues --       -0.67507      -0.66429      -0.63177      -0.59066      -0.56962
 Alpha  occ. eigenvalues --       -0.51830      -0.49003      -0.46141      -0.43379      -0.37365
 Alpha virt. eigenvalues --        0.00810       0.04822       0.08472       0.11243       0.13855
 Alpha virt. eigenvalues --        0.16135       0.16856       0.18523       0.20551       0.23554
          Condensed to atoms (all electrons):
               1          2          3          4          5          6
     1  C    3.418738   0.000000   0.000000   0.000000   0.000000   0.000000
     2  O    0.000000   6.528958   0.000000   0.000000   0.000000   0.000000
     3  C    0.000000   0.000000   4.250519   0.000000   0.000000   0.000000
     4  H    0.000000   0.000000   0.000000   0.805844   0.000000   0.000000
     5  H    0.000000   0.000000   0.000000   0.000000   0.805645   0.000000
     6  N    0.000000   0.000000   0.000000   0.000000   0.000000   5.464205
     7  H    0.000000   0.000000   0.000000   0.000000   0.000000   0.000000
     8  H    0.000000   0.000000   0.000000   0.000000   0.000000   0.000000
     9  O    0.000000   0.000000   0.000000   0.000000   0.000000   0.000000
    10  H    0.000000   0.000000   0.000000   0.000000   0.000000   0.000000
               7          8          9         10
     1  C    0.000000   0.000000   0.000000   0.000000
     2  O    0.000000   0.000000   0.000000   0.000000
     3  C    0.000000   0.000000   0.000000   0.000000
     4  H    0.000000   0.000000   0.000000   0.000000
     5  H    0.000000   0.000000   0.000000   0.000000
     6  N    0.000000   0.000000   0.000000   0.000000
     7  H    0.780935   0.000000   0.000000   0.000000
     8  H    0.000000   0.780865   0.000000   0.000000
     9  O    0.000000   0.000000   6.507498   0.000000
    10  H    0.000000   0.000000   0.000000   0.656793
 Mulliken charges:
               1
     1  C    0.581262
     2  O   -0.528958
     3  C   -0.250519
     4  H    0.194156
     5  H    0.194355
     6  N   -0.464205
     7  H    0.219065
     8  H    0.219135
     9  O   -0.507498
    10  H    0.343207
 Sum of Mulliken charges =   0.00000
 Mulliken charges with hydrogens summed into heavy atoms:
               1
     1  C    0.581262
     2  O   -0.185752
     3  C    0.137993
     6  N   -0.026005
     9  O   -0.507498
 Charge=              0.0000 electrons
 Dipole moment (field-independent basis, Debye):
    X=             -0.8126    Y=             -0.6546    Z=             -0.0945  Tot=              1.0478
 N-N= 1.247895145222D+02 E-N=-1.629602578131D+02  KE=-6.560451005070D+01
 Leave Link  601 at Sat Nov 25 14:46:21 2023, MaxMem=   134217728 cpu:               0.2 elap:               0.0
 (Enter /home/emanuele/chem_software/gaussian//gdv/l9999.exe)
 Unable to Open any file for archive entry.
 1\1\GINC-EMANUELE-XPS-13-9343\Scan\RPM6\ZDO\C2H5N1O2\EMANUELE\25-Nov-2
 023\0\\#p nosymm geom=nocrowd opt=(modredundant,maxcycle=100) PM6\\Tit
 le\\0,1\C,-0.4658609733,0.1225256899,0.2096383589\O,-1.6309155089,-0.5
 944789806,0.0921141847\C,0.7235390263,-0.7643659085,-0.1026949102\H,0.
 7199610279,-1.645386977,0.5873218087\H,0.6019842631,-1.2004054269,-1.1
 261383774\N,2.0246841256,-0.0781810458,-0.0137352539\H,2.0681092733,0.
 705955539,-0.6612855874\H,2.1754585015,0.2973129133,0.9203632482\O,-0.
 4933206516,1.289341845,0.5190685394\H,-2.4416140838,-0.0559056484,0.30
 02989889\\Version=ES64L-GDVRevJ.14\HF=-0.1482905,-0.1437108,-0.1344534
 ,-0.1305548,-0.1343214,-0.1373442,-0.1345907,-0.1306123,-0.134019,-0.1
 432375,-0.1482905\RMSD=6.733e-09,2.427e-09,5.357e-09,7.957e-09,3.997e-
 09,3.244e-09,2.219e-09,2.465e-09,7.036e-09,3.584e-09,1.868e-09\PG=C01 
 [X(C2H5N1O2)]\\@
 The archive entry for this job was punched.


     "IF I COULD JUST GET IT ON PAPER"
 LIFE AND INK, THEY RUN OUT AT THE SAME TIME,
 OR SO SAID MY OLD FRIEND THE SQUID.
     -- JIMMY BUFFETT, 1981
 Job cpu time:       0 days  0 hours  2 minutes 58.1 seconds.
 Elapsed time:       0 days  0 hours  0 minutes 47.4 seconds.
 File lengths (MBytes):  RWF=      6 Int=      0 D2E=      0 Chk=      2 Scr=      1
 Normal termination of Gaussian DV at Sat Nov 25 14:46:21 2023.
