 Entering Gaussian System, Link 0=/home/emanuele/chem_software/gaussian//g09/g09
 Input=2_mm_0.gjf
 Output=2_mm_0.log
 Initial command:
 /home/emanuele/chem_software/gaussian//gdv/l1.exe "/home/emanuele/chem_software/gaussian/scratch/Gau-4552.inp" -scrdir="/home/emanuele/chem_software/gaussian/scratch/"
 Entering Link 1 = /home/emanuele/chem_software/gaussian//gdv/l1.exe PID=      4554.
  
 Copyright (c) 1988-2020, Gaussian, Inc.  All Rights Reserved.
  
 This is the private, development version of
 the Gaussian(R) DV system of programs. It is based on
 the Gaussian(R) 16 system (copyright 2016, Gaussian, Inc.),
 the Gaussian(R) 09 system (copyright 2009, Gaussian, Inc.),
 the Gaussian(R) 03 system (copyright 2003, Gaussian, Inc.),
 the Gaussian(R) 98 system (copyright 1998, Gaussian, Inc.),
 the Gaussian(R) 94 system (copyright 1995, Gaussian, Inc.),
 the Gaussian 92(TM) system (copyright 1992, Gaussian, Inc.),
 the Gaussian 90(TM) system (copyright 1990, Gaussian, Inc.),
 the Gaussian 88(TM) system (copyright 1988, Gaussian, Inc.),
 the Gaussian 86(TM) system (copyright 1986, Carnegie Mellon
 University), and the Gaussian 82(TM) system (copyright 1983,
 Carnegie Mellon University). Gaussian is a federally registered
 trademark of Gaussian, Inc.
  
 This software contains proprietary and confidential information,
 including trade secrets, belonging to Gaussian, Inc.
  
 This software is provided under written license and may be
 used, copied, transmitted, or stored only in accord with that
 written license.
  
 The following legend is applicable only to US Government
 contracts under FAR:
  
                    RESTRICTED RIGHTS LEGEND
  
 Use, reproduction and disclosure by the US Government is
 subject to restrictions as set forth in subparagraphs (a)
 and (c) of the Commercial Computer Software - Restricted
 Rights clause in FAR 52.227-19.
  
 Gaussian, Inc.
 340 Quinnipiac St., Bldg. 40, Wallingford CT 06492
  
  
 ---------------------------------------------------------------
 Warning -- This program may not be used in any manner that
 competes with the business of Gaussian, Inc. or will provide
 assistance to any competitor of Gaussian, Inc.  The licensee
 of this program is prohibited from giving any competitor of
 Gaussian, Inc. access to this program.  By using this program,
 the user acknowledges that Gaussian, Inc. is engaged in the
 business of creating and licensing software in the field of
 computational chemistry and represents and warrants to the
 licensee that it is not a competitor of Gaussian, Inc. and that
 it will not use this program in any manner prohibited above.
 ---------------------------------------------------------------
  

 Cite this work as:
 Gaussian Development Version, Revision J.14,
 M. J. Frisch, G. W. Trucks, H. B. Schlegel, G. E. Scuseria, 
 M. A. Robb, J. R. Cheeseman, G. Scalmani, V. Barone, 
 G. A. Petersson, H. Nakatsuji, X. Li, A. V. Marenich, M. Caricato, 
 J. Bloino, B. G. Janesko, J. Zheng, R. Gomperts, B. Mennucci, 
 H. P. Hratchian, J. V. Ortiz, A. F. Izmaylov, J. L. Sonnenberg, 
 D. Williams-Young, F. Ding, F. Lipparini, F. Egidi, J. Goings, 
 B. Peng, A. Petrone, T. Henderson, D. Ranasinghe, V. G. Zakrzewski, 
 J. Gao, N. Rega, G. Zheng, W. Liang, M. Hada, M. Ehara, K. Toyota, 
 R. Fukuda, J. Hasegawa, M. Ishida, T. Nakajima, Y. Honda, O. Kitao, 
 H. Nakai, T. Vreven, K. Throssell, J. A. Montgomery, Jr., 
 J. E. Peralta, F. Ogliaro, M. J. Bearpark, J. J. Heyd, 
 E. N. Brothers, K. N. Kudin, V. N. Staroverov, T. A. Keith, 
 R. Kobayashi, J. Normand, K. Raghavachari, A. P. Rendell, 
 J. C. Burant, S. S. Iyengar, J. Tomasi, M. Cossi, J. M. Millam, 
 M. Klene, C. Adamo, R. Cammi, J. W. Ochterski, R. L. Martin, 
 K. Morokuma, O. Farkas, J. B. Foresman, and D. J. Fox, 
 Gaussian, Inc., Wallingford CT, 2020.
 
 ******************************************
 Gaussian DV:  ES64L-GDVRevJ.14 29-Dec-2020
                28-Nov-2023 
 ******************************************
 %mem=1GB
 %nprocshared=1
 Will use up to    1 processors via shared memory.
 %chk=2_mm_0.chk
 -----------------------------------------------------------------
 #p Amber=(SoftFirst,Print) geom=nocrowd nosymm opt=(maxcycle=300)
 -----------------------------------------------------------------
 1/6=300,10=10,18=4000020,19=15,37=210000000,38=1,56=2,64=203/1,3;
 2/9=110,12=1,15=1,40=1/2;
 3/5=30,11=9,25=1,30=1,41=10030000,43=2,71=1/1;
 4/20=11,22=1001,24=3,119=11/2;
 7/30=1,44=-1/16;
 1/6=300,10=10,18=4000020,19=15,64=203/3(2);
 2/9=110,12=1,15=1/2;
 99//99;
 2/9=110,12=1,15=1/2;
 3/5=30,11=9,25=1,30=1,41=10030000,43=2,71=1/1;
 4/16=2,20=11,22=1001,24=3,119=11/2;
 7/30=1,44=-1/16;
 1/6=300,10=10,18=4000020,19=15,64=203/3(-4);
 2/9=110,12=1,15=1/2;
 99/9=10/99;
 Leave Link    1 at Tue Nov 28 09:32:03 2023, MaxMem=   134217728 cpu:               0.0 elap:               0.0
 (Enter /home/emanuele/chem_software/gaussian//gdv/l101.exe)
 -----
 Title
 -----
 Symbolic Z-matrix:
 Charge =  0 Multiplicity = 1
 C-C-+0.299289        -0.56761   0.1163   -0.00875 
 O-OH--0.289770       -1.61094  -0.70336  -0.06717 
 C-CT--0.035454        0.72292  -0.63286   0.21551 
 H-HC-+0.090426        0.87681  -1.14171   1.17109 
 H-HC-+0.095387        0.4901   -1.39548  -0.51964 
 N-N3--0.336253        1.84527   0.14642  -0.25319 
 H-H-+0.142619         1.92604   0.90808   0.40269 
 H-H-+0.128282         2.66898  -0.34039   0.03919 
 O-O2--0.308037       -0.67046   1.29729  -0.0842 
 H-HO-+0.213510       -2.39908  -0.17788  -0.17058 
 
 ITRead=  3  3  3  3  3  3  3  3  3  3
 MicOpt=  0  0  0  0  0  0  0  0  0  0
 NAtoms=     10 NQM=        0 NQMF=       0 NMMI=      0 NMMIF=      0
                NMic=      10 NMicF=      0.
                    Isotopes and Nuclear Properties:
 (Nuclear quadrupole moments (NQMom) in fm**2, nuclear magnetic moments (NMagM)
  in nuclear magnetons)

  Atom         1           2           3           4           5           6           7           8           9          10
 IAtWgt=          12          16          12           1           1          14           1           1          16           1
 AtmWgt=  12.0000000  15.9949146  12.0000000   1.0078250   1.0078250  14.0030740   1.0078250   1.0078250  15.9949146   1.0078250
 NucSpn=           0           0           0           1           1           2           1           1           0           1
 AtZEff=  -0.0000000  -0.0000000  -0.0000000  -0.0000000  -0.0000000  -0.0000000  -0.0000000  -0.0000000  -0.0000000  -0.0000000
 NQMom=    0.0000000   0.0000000   0.0000000   0.0000000   0.0000000   2.0440000   0.0000000   0.0000000   0.0000000   0.0000000
 NMagM=    0.0000000   0.0000000   0.0000000   2.7928460   2.7928460   0.4037610   2.7928460   2.7928460   0.0000000   2.7928460
 AtZNuc=   6.0000000   8.0000000   6.0000000   1.0000000   1.0000000   7.0000000   1.0000000   1.0000000   8.0000000   1.0000000
 Generating MM parameters.
 Read MM parameter file:
 Include all MM classes

 MM sanity checks:
 All charges sum to:               -0.00000100
 Charges of atoms sum to:          -0.00000100
 WARNING -- The following centers have non-zero partial charges, but zero Vanderwaals
 parameters.  These centers can collapse onto other centers with non-zero charge.
   Center  Layer   Charge
     10 H    R    0.213510
 MMInit generated parameter data with length LenPar=        2069.
 MM Charge=             -0.0000 electrons
 MM Dipole moment (Debye):
    X=              0.4238    Y=             -1.8073    Z=              0.9733  Tot=              2.0960
 MM Quadrupole moment (Debye-Ang):
   XX=              3.8746   YY=             -1.1349   ZZ=              0.7332
   XY=             -0.4157   XZ=              1.8458   YZ=              0.2024
 MM Traceless Quadrupole moment (Debye-Ang):
   XX=              2.7170   YY=             -2.2925   ZZ=             -0.4244
   XY=             -0.4157   XZ=              1.8458   YZ=              0.2024
 MM Octapole moment (Debye-Ang**2):
  XXX=             -1.4153  YYY=             -4.1143  ZZZ=              0.6988  XYY=              4.7888
  XXY=              0.2115  XXZ=              2.1901  XZZ=              0.5481  YZZ=             -0.7768
  YYZ=              0.6739  XYZ=              0.1652
 MM Hexadecapole moment (Debye-Ang**3):
 XXXX=             46.6533 YYYY=             -1.6086 ZZZZ=              0.8621 XXXY=             -2.4235
 XXXZ=              7.2898 YYYX=              1.1662 YYYZ=              0.3466 ZZZX=              0.7245
 ZZZY=             -0.6595 XXYY=              0.3869 XXZZ=              0.7006 YYZZ=              1.0839
 XXYZ=              0.8007 YYXZ=              0.6036 ZZXY=             -0.4971
 Leave Link  101 at Tue Nov 28 09:32:04 2023, MaxMem=   134217728 cpu:               0.2 elap:               0.3
 (Enter /home/emanuele/chem_software/gaussian//gdv/l103.exe)

 GradGradGradGradGradGradGradGradGradGradGradGradGradGradGradGradGradGrad
 Berny optimization.
 Initialization pass.
 No Z-matrix variables, so optimization will use Cartesian coordinates.
 Trust Radius=1.00D-01 FncErr=1.00D-07 GrdErr=1.00D-07 EigMax=2.50D+02 EigMin=1.00D-04
 Number of steps in this run=      2 maximum allowed number of steps=      2.
 GradGradGradGradGradGradGradGradGradGradGradGradGradGradGradGradGradGrad

 Leave Link  103 at Tue Nov 28 09:32:04 2023, MaxMem=   134217728 cpu:               0.0 elap:               0.0
 (Enter /home/emanuele/chem_software/gaussian//gdv/l202.exe)
                          Input orientation:                          
 ---------------------------------------------------------------------
 Center     Atomic      Atomic             Coordinates (Angstroms)
 Number     Number       Type             X           Y           Z
 ---------------------------------------------------------------------
      1          6    20001002       -0.567613    0.116298   -0.008752
      2          8    20001022       -1.610944   -0.703358   -0.067166
      3          6    20001001        0.722922   -0.632860    0.215514
      4          1    20001034        0.876813   -1.141712    1.171093
      5          1    20001034        0.490096   -1.395477   -0.519642
      6          7    20001020        1.845272    0.146416   -0.253193
      7          1    20001029        1.926043    0.908075    0.402687
      8          1    20001029        2.668978   -0.340389    0.039188
      9          8    20001025       -0.670464    1.297294   -0.084200
     10          1    20001031       -2.399078   -0.177876   -0.170579
 ---------------------------------------------------------------------
                    Distance matrix (angstroms):
                    1          2          3          4          5
     1  C    0.000000
     2  O    1.328077   0.000000
     3  C    1.508978   2.351980   0.000000
     4  H    2.249664   2.813250   1.093501   0.000000
     5  H    1.914477   2.257904   1.084549   1.752864   0.000000
     6  N    2.425422   3.564008   1.444516   2.150762   2.070008
     7  H    2.648493   3.915068   1.963928   2.427542   2.866877
     8  H    3.269003   4.296602   1.975795   2.266094   2.484558
     9  O    1.187865   2.210747   2.399343   3.149377   2.964376
    10  H    1.861986   0.952880   3.178516   3.668859   3.154635
                    6          7          8          9         10
     6  N    0.000000
     7  H    1.008378   0.000000
     8  H    1.000479   1.497580   0.000000
     9  O    2.771643   2.670281   3.721438   0.000000
    10  H    4.257522   4.496064   5.074998   2.274136   0.000000
 Symmetry turned off by external request.
 Stoichiometry    C2H5NO2
 Framework group  C1[X(C2H5NO2)]
 Deg. of freedom    24
 Full point group                 C1      NOp   1
 Rotational constants (GHZ):          10.6182332           3.9773977           3.0014847
 Leave Link  202 at Tue Nov 28 09:32:04 2023, MaxMem=   134217728 cpu:               0.0 elap:               0.0
 (Enter /home/emanuele/chem_software/gaussian//gdv/l301.exe)
 Standard basis: Dummy (5D, 7F)
    10 basis functions,    10 primitive gaussians,    10 cartesian basis functions
     7 alpha electrons        7 beta electrons
       nuclear repulsion energy        23.0616748627 Hartrees.
 IExCor=       0 DFT=F Ex=HF Corr=None N6=None ScaHFX=  1.000000
 ScaDFX=  1.000000  1.000000  1.000000  1.000000  1.000000  0.000000
 ScaDFX=  0.000000  0.000000  0.000000  0.000000  0.000000  0.000000
 IRadAn=      5 IRanWt=     -1 IRanGd=            0 ICorTp=0 IEmpDi=  4
 NAtoms=   10 NActive=   10 NUniq=   10 SFac= 1.00D+00 NAtFMM=   60 NAOKFM=F Big=F
 Integral buffers will be    131072 words long.
 Raffenetti 1 integral format.
 Two-electron integral symmetry is turned off.
 Leave Link  301 at Tue Nov 28 09:32:04 2023, MaxMem=   134217728 cpu:               0.1 elap:               0.1
 (Enter /home/emanuele/chem_software/gaussian//gdv/l402.exe)
 AMBER calculation of energy and first derivatives.
 NRF= 0 NRA=   0 NVA=  10 HaveQM=F NVQ=       0
 Convergence limit is  0.750E-04 MaxStp= 10000 StMxLn= 3.00D-04 StpMin= 1.00D-06.
 Convergence criteria             0.00011250 0.00007500 0.00045000 0.00030000
  Step  NS  ND Rises OKQ   Scale  Max. Force  RMS Force Max. Disp.  RMS Disp.     Energy   Flag
     1   0   0   F    T  1.00D+00 0.03974521 0.01549392 0.03974521 0.01549392    0.0891640 ----
     2   0   0   F    F  1.13D+00 0.03974521 0.01549392 0.04503958 0.01755783    0.0836784 ----
     3   0   0   F    T  1.41D+00 0.04326305 0.01619934 0.06872739 0.03305175    0.0815454 ----
     4   0   0   F    F  2.46D-01 0.04326305 0.01619934 0.01688183 0.00811866    0.0748878 ----
     5   0   0   F    T  1.31D+00 0.05909360 0.01704467 0.09429336 0.04117041    0.0746179 ----
     6   0   0   F    F -6.17D-03 0.05909360 0.01704467 0.00058166 0.00025396    0.0688743 ---+
     7   0   0   F    T  4.95D+00 0.01722042 0.00708204 0.07921484 0.04091644    0.0688741 ----
     8   0   0   T    F  4.38D-01 0.01722042 0.00708204 0.03472820 0.01793798    0.0698698 ----
     9   0   0   F    T  2.06D+00 0.01283597 0.00612675 0.04106372 0.01793798    0.0672479 ----
    10   0   0   F    F  7.97D-01 0.01283597 0.00612675 0.03272661 0.01429606    0.0655746 ----
    11   0   0   F    T  1.29D+00 0.03219809 0.00983876 0.08585953 0.03223404    0.0651678 ----
    12   0   0   F    F  1.68D-01 0.03219809 0.00983876 0.01443740 0.00542020    0.0628813 ----
    13   0   0   F    T  1.44D+00 0.02473470 0.01054126 0.09024664 0.03765424    0.0628268 ----
    14   0   0   F    F  8.52D-02 0.02473470 0.01054126 0.00769287 0.00320975    0.0600708 ----
    15   0   0   F    T  4.12D+00 0.02019714 0.00825656 0.08306596 0.04086399    0.0600515 ----
    16   0   0   T    F  4.47D-01 0.02019714 0.00825656 0.03713806 0.01826993    0.0608992 ----
    17   0   0   F    T  1.10D+00 0.03152607 0.00959876 0.03842412 0.01826993    0.0581873 ----
    18   0   0   F    F  4.60D-01 0.03152607 0.00959876 0.01767216 0.00840277    0.0561683 ----
    19   0   0   F    T  1.69D+00 0.02737636 0.00847533 0.06052633 0.02667270    0.0559428 ----
    20   0   0   F    F  4.72D-01 0.02737636 0.00847533 0.02858642 0.01259744    0.0534892 ----
    21   0   0   F    T  4.84D+00 0.01179458 0.00559152 0.06787463 0.03927014    0.0532002 ----
    22   0   0   F    F -4.61D-01 0.01179458 0.00559152 0.03131384 0.01811721    0.0528606 ----
    23   0   0   F    T  1.93D+00 0.02074274 0.00597574 0.03850863 0.02115293    0.0519855 ----
    24   0   0   T    F  4.69D-01 0.02074274 0.00597574 0.01806367 0.00992244    0.0521191 ----
    25   0   0   F    T  2.42D+00 0.00701714 0.00297521 0.01996435 0.00992244    0.0515014 ----
    26   0   0   F    F -6.06D-02 0.00701714 0.00297521 0.00120996 0.00060136    0.0512018 ----
    27   0   0   F    T  3.15D+00 0.00490165 0.00210589 0.02051916 0.00932108    0.0512006 ----
    28   0   0   F    F  7.98D-01 0.00490165 0.00210589 0.01637152 0.00743697    0.0508980 ----
    29   0   0   F    T  1.97D+00 0.01130797 0.00340765 0.03736679 0.01675805    0.0508240 ----
    30   0   0   T    F  4.32D-01 0.01130797 0.00340765 0.01615946 0.00724710    0.0509358 ----
    31   0   0   F    T  3.22D+00 0.00290886 0.00154741 0.01711817 0.00724710    0.0506752 ----
    32   0   0   F    F -2.56D-01 0.00290886 0.00154741 0.00438267 0.00185543    0.0505993 ----
    33   0   0   F    T  1.75D+00 0.00364420 0.00166714 0.01400791 0.00539167    0.0505890 ----
    34   0   0   F    F  4.97D-01 0.00364420 0.00166714 0.00696440 0.00268061    0.0504924 ----
    35   0   0   F    T  2.93D+00 0.00364791 0.00144472 0.02107890 0.00807228    0.0504806 ----
    36   0   0   F    F -3.18D-01 0.00364791 0.00144472 0.00671007 0.00256966    0.0504317 ----
    37   0   0   F    T  1.97D+00 0.00433169 0.00135597 0.01397643 0.00550262    0.0504180 ----
    38   0   0   F    F -4.34D-01 0.00433169 0.00135597 0.00605977 0.00238578    0.0504053 ----
    39   0   0   F    T  1.81D+00 0.00205261 0.00097138 0.00782324 0.00311685    0.0503872 ----
    40   0   0   F    F  1.25D+00 0.00205261 0.00097138 0.00976757 0.00389148    0.0503475 ----
    41   0   0   F    T  1.74D+00 0.00434783 0.00143758 0.01732416 0.00700833    0.0503298 ----
    42   0   0   F    F  5.09D-01 0.00434783 0.00143758 0.00881088 0.00356436    0.0502574 ----
    43   0   0   F    T  4.56D+00 0.00276051 0.00104297 0.02811032 0.01057269    0.0502480 ----
    44   0   0   T    F  2.95D-01 0.00276051 0.00104297 0.00829260 0.00311896    0.0503514 ----
    45   0   0   F    T  1.51D+00 0.00269651 0.00093388 0.01047513 0.00311896    0.0502261 ----
    46   0   0   F    F  2.57D-01 0.00269651 0.00093388 0.00269715 0.00080307    0.0502023 ----
    47   0   0   F    T  1.39D+00 0.00280179 0.00104927 0.01503651 0.00392204    0.0502013 ----
    48   0   0   F    F  2.91D+00 0.00280179 0.00104927 0.04376997 0.01141670    0.0501611 ----
    49   0   0   F    F -2.69D-02 0.00280179 0.00104927 0.00117667 0.00030692    0.0501115 ----
    50   0   0   F    T  4.34D+00 0.00262022 0.00114912 0.05485483 0.01503182    0.0501115 ----
    51   0   0   F    F -4.80D-01 0.00262022 0.00114912 0.02635647 0.00722244    0.0501032 ----
    52   0   0   F    T  1.95D+00 0.00338623 0.00119006 0.02753810 0.00780938    0.0500675 ----
    53   0   0   F    F -2.13D-01 0.00338623 0.00119006 0.00586697 0.00166378    0.0500374 ----
    54   0   0   F    T  1.20D+00 0.00444789 0.00130360 0.02106961 0.00614560    0.0500350 ----
    55   0   0   F    F  2.53D+00 0.00444789 0.00130360 0.05340439 0.01557703    0.0499811 ----
    56   0   0   F    F -3.71D-02 0.00444789 0.00130360 0.00197913 0.00057727    0.0499211 ----
    57   0   0   F    T  2.45D+00 0.00415259 0.00176720 0.06727305 0.02114536    0.0499210 ----
    58   0   0   F    F -3.81D-01 0.00415259 0.00176720 0.02566345 0.00806657    0.0498781 ----
    59   0   0   F    T  3.55D+00 0.00299300 0.00135012 0.03499755 0.01307879    0.0498486 ----
    60   0   0   F    F -3.72D-01 0.00299300 0.00135012 0.01300663 0.00486066    0.0498089 ----
    61   0   0   F    T  1.00D+00 0.00674816 0.00199068 0.02086810 0.00821813    0.0497874 ----
    62   0   0   F    F  1.52D+00 0.00674816 0.00199068 0.03162441 0.01245412    0.0496937 ----
    63   0   0   F    T  4.17D+00 0.00325735 0.00146677 0.06076568 0.02067225    0.0496426 ----
    64   0   0   T    F  4.97D-01 0.00325735 0.00146677 0.03017656 0.01026595    0.0496490 ----
    65   0   0   F    T  3.35D+00 0.00257329 0.00113639 0.03135666 0.01026595    0.0495751 ----
    66   0   0   F    F -2.75D-01 0.00257329 0.00113639 0.00861787 0.00282143    0.0495349 ----
    67   0   0   F    T  1.68D+00 0.00358574 0.00134210 0.02427436 0.00744452    0.0495282 ----
    68   0   0   F    F  7.09D-01 0.00358574 0.00134210 0.01720789 0.00527736    0.0494634 ----
    69   0   0   F    T  1.76D+00 0.00526426 0.00169666 0.03829387 0.01272188    0.0494497 ----
    70   0   0   F    F -3.32D-01 0.00526426 0.00169666 0.01272067 0.00422602    0.0494115 ----
    71   0   0   F    T  3.54D+00 0.00187673 0.00092591 0.02851383 0.00849585    0.0493994 ----
    72   0   0   F    F  9.18D-01 0.00187673 0.00092591 0.02616441 0.00779583    0.0493314 ----
    73   0   0   F    T  2.32D+00 0.00357305 0.00155822 0.05281381 0.01629169    0.0493108 ----
    74   0   0   F    F  8.01D-02 0.00357305 0.00155822 0.00423164 0.00130535    0.0492216 ----
    75   0   0   F    T  3.59D+00 0.00370248 0.00128550 0.06190667 0.01759704    0.0492211 ----
    76   0   0   T    F  3.34D-01 0.00370248 0.00128550 0.02068743 0.00588042    0.0493116 ----
    77   0   0   F    T  1.55D+00 0.00282664 0.00110779 0.01934302 0.00588042    0.0491913 ----
    78   0   0   F    F  1.90D+00 0.00282664 0.00110779 0.03678526 0.01118299    0.0491447 ----
    79   0   0   F    T  1.42D+00 0.00583427 0.00195813 0.05861178 0.01706342    0.0491106 ----
    80   0   0   F    F  1.00D+00 0.00583427 0.00195813 0.05865823 0.01707694    0.0489825 ----
    81   0   0   F    F -1.50D-02 0.00583427 0.00195813 0.00088163 0.00025667    0.0489361 ---+
    82   0   0   F    T  3.40D+00 0.00381748 0.00180318 0.10735217 0.03388369    0.0489361 ----
    83   0   0   F    F -3.90D-01 0.00381748 0.00180318 0.04191824 0.01323070    0.0488762 ----
    84   0   0   F    T  1.81D+00 0.00744810 0.00197389 0.06590811 0.02065299    0.0488359 ----
    85   0   0   F    F -4.24D-02 0.00744810 0.00197389 0.00279681 0.00087641    0.0487337 ----
    86   0   0   F    T  2.22D+00 0.00418686 0.00175522 0.05469710 0.01977658    0.0487335 ----
    87   0   0   F    F -2.59D-02 0.00418686 0.00175522 0.00141880 0.00051299    0.0486364 ----
    88   0   0   F    T  2.75D+00 0.00361842 0.00146446 0.05612131 0.01926359    0.0486363 ----
    89   0   0   F    F -2.68D-01 0.00361842 0.00146446 0.01504738 0.00516500    0.0485800 ----
    90   0   0   F    T  1.45D+00 0.00414357 0.00169147 0.03750166 0.01409859    0.0485711 ----
    91   0   0   F    F  1.54D+00 0.00414357 0.00169147 0.05765811 0.02167632    0.0484699 ----
    92   0   0   F    F -2.10D-02 0.00414357 0.00169147 0.00120936 0.00045465    0.0484100 ----
    93   0   0   F    T  1.94D+00 0.00686802 0.00239880 0.09588758 0.03532025    0.0484100 ----
    94   0   0   F    F -2.60D-01 0.00686802 0.00239880 0.02495530 0.00919230    0.0483000 ----
    95   0   0   F    T  4.87D+00 0.00319898 0.00158363 0.05571773 0.02612795    0.0482833 ----
    96   0   0   T    F  4.74D-01 0.00319898 0.00158363 0.02642574 0.01239193    0.0482971 ----
    97   0   0   F    T  1.54D+00 0.00419424 0.00188429 0.02958090 0.01239193    0.0481975 ----
    98   0   0   F    F  9.34D-01 0.00419424 0.00188429 0.02764028 0.01157897    0.0480763 ----
    99   0   0   F    T  1.20D+00 0.00977729 0.00287886 0.05521420 0.02397091    0.0480397 ----
   100   0   0   F    F  1.18D+00 0.00977729 0.00287886 0.06530232 0.02835060    0.0478119 ----
   101   0   0   F    F -4.71D-02 0.00977729 0.00287886 0.00307372 0.00133444    0.0477216 ----
   102   0   0   F    T  3.18D+00 0.00642024 0.00260793 0.12080177 0.05098707    0.0477214 ----
   103   0   0   F    F -4.70D-01 0.00642024 0.00260793 0.05682214 0.02398305    0.0476888 ----
   104   0   0   F    T  4.28D+00 0.00445493 0.00167340 0.06452632 0.02700402    0.0475488 ----
   105   0   0   F    F -4.94D-01 0.00445493 0.00167340 0.03184526 0.01332712    0.0475421 ----
   106   0   0   F    T  3.21D+00 0.00342051 0.00132102 0.03229104 0.01367690    0.0474584 ----
   107   0   0   F    F -3.93D-01 0.00342051 0.00132102 0.01270636 0.00538179    0.0474290 ----
   108   0   0   F    T  1.55D+00 0.00320946 0.00144950 0.01958417 0.00829511    0.0474073 ----
   109   0   0   F    F -1.03D-01 0.00320946 0.00144950 0.00201612 0.00085395    0.0473640 ----
   110   0   0   F    T  2.87D+00 0.00340243 0.00098423 0.01616945 0.00744116    0.0473634 ----
   111   0   0   F    F -2.38D-01 0.00340243 0.00098423 0.00385602 0.00177453    0.0473348 ----
   112   0   0   F    T  2.38D+00 0.00208821 0.00090690 0.01127721 0.00566662    0.0473318 ----
   113   0   0   F    F -7.21D-02 0.00208821 0.00090690 0.00081362 0.00040883    0.0473047 ----
   114   0   0   F    T  3.25D+00 0.00222760 0.00070486 0.01096547 0.00525779    0.0473045 ----
   115   0   0   F    F -3.07D-01 0.00222760 0.00070486 0.00336463 0.00161330    0.0472910 ----
   116   0   0   F    T  1.84D+00 0.00209769 0.00075149 0.00754492 0.00364450    0.0472877 ----
   117   0   0   F    F -3.71D-01 0.00209769 0.00075149 0.00280177 0.00135337    0.0472813 ----
   118   0   0   F    T  2.22D+00 0.00119720 0.00050501 0.00482035 0.00229113    0.0472779 ----
   119   0   0   F    F  1.29D-01 0.00119720 0.00050501 0.00062171 0.00029550    0.0472684 ---+
   120   0   0   F    T  2.95D+00 0.00133973 0.00043354 0.00577254 0.00258663    0.0472683 ----
   121   0   0   F    F -4.42D-01 0.00133973 0.00043354 0.00254887 0.00114213    0.0472666 ----
   122   0   0   F    T  2.65D+00 0.00078521 0.00031119 0.00339514 0.00144450    0.0472637 ----
   123   0   0   F    F  3.64D-01 0.00078521 0.00031119 0.00123497 0.00052543    0.0472588 ----
   124   0   0   F    T  1.57D+00 0.00122803 0.00045601 0.00487555 0.00196993    0.0472584 ----
   125   0   0   F    F -1.14D-01 0.00122803 0.00045601 0.00055594 0.00022463    0.0472542 ---+
   126   0   0   F    T  1.72D+00 0.00111903 0.00039202 0.00441343 0.00174531    0.0472541 ----
   127   0   0   F    F  4.29D-01 0.00111903 0.00039202 0.00189170 0.00074808    0.0472489 ----
   128   0   0   F    T  2.85D+00 0.00086556 0.00034981 0.00602248 0.00249339    0.0472484 ----
   129   0   0   F    F -2.88D-01 0.00086556 0.00034981 0.00173392 0.00071787    0.0472453 ----
   130   0   0   F    T  2.25D+00 0.00065113 0.00031870 0.00403908 0.00177552    0.0472447 ----
   131   0   0   F    F  7.92D-01 0.00065113 0.00031870 0.00319718 0.00140544    0.0472397 ----
   132   0   0   F    T  1.87D+00 0.00132622 0.00046006 0.00710913 0.00318096    0.0472385 ----
   133   0   0   F    F -2.53D-01 0.00132622 0.00046006 0.00179772 0.00080439    0.0472346 ----
   134   0   0   F    T  1.72D+00 0.00098536 0.00040611 0.00521055 0.00237657    0.0472341 ----
   135   0   0   F    F  1.72D-01 0.00098536 0.00040611 0.00089376 0.00040765    0.0472292 ----
   136   0   0   F    T  2.78D+00 0.00079583 0.00033622 0.00645045 0.00278423    0.0472291 ----
   137   0   0   F    F -4.76D-02 0.00079583 0.00033622 0.00030733 0.00013266    0.0472247 --++
   138   0   0   F    T  2.18D+00 0.00102555 0.00036266 0.00595831 0.00265157    0.0472246 ----
   139   0   0   F    F  2.29D-01 0.00102555 0.00036266 0.00136319 0.00060665    0.0472196 ----
   140   0   0   F    T  3.19D+00 0.00108769 0.00032237 0.00732716 0.00325822    0.0472194 ----
   141   0   0   T    F  4.50D-01 0.00108769 0.00032237 0.00329997 0.00146742    0.0472205 ----
   142   0   0   F    T  1.77D+00 0.00070578 0.00028140 0.00359546 0.00146742    0.0472171 ----
   143   0   0   F    F -1.23D-01 0.00070578 0.00028140 0.00044263 0.00018065    0.0472153 --++
   144   0   0   F    T  1.96D+00 0.00065738 0.00024113 0.00320677 0.00128677    0.0472153 ----
   145   0   0   F    F  7.85D-01 0.00065738 0.00024113 0.00251795 0.00101037    0.0472128 ----
   146   0   0   F    T  3.56D+00 0.00074028 0.00023094 0.00522521 0.00229714    0.0472122 ----
   147   0   0   F    F -4.90D-01 0.00074028 0.00023094 0.00255917 0.00112508    0.0472121 ----
   148   0   0   F    T  2.65D+00 0.00044925 0.00018307 0.00304891 0.00117206    0.0472108 ----
   149   0   0   F    F -3.33D-01 0.00044925 0.00018307 0.00101595 0.00039055    0.0472101 ----
   150   0   0   F    T  1.84D+00 0.00056033 0.00017152 0.00183008 0.00078151    0.0472099 ----
   151   0   0   F    T  1.09D+00 0.00054452 0.00020829 0.00188106 0.00078151    0.0472092 ----
   152   0   0   F    F  1.96D+00 0.00054452 0.00020829 0.00368006 0.00152892    0.0472083 ----
   153   0   0   F    T  4.38D+00 0.00055321 0.00024588 0.00611930 0.00231043    0.0472075 ----
   154   0   0   T    F  2.53D-01 0.00055321 0.00024588 0.00154742 0.00058425    0.0472153 ----
   155   0   0   F    T  2.19D+00 0.00041633 0.00015388 0.00173385 0.00058425    0.0472065 ----
   156   0   0   F    F -2.94D-01 0.00041633 0.00015388 0.00050973 0.00017176    0.0472061 ---+
   157   0   0   F    T  1.26D+00 0.00041148 0.00015950 0.00100821 0.00041249    0.0472060 ----
   158   0   0   F    F  1.09D+00 0.00041148 0.00015950 0.00110211 0.00045091    0.0472052 ----
   159   0   0   F    T  3.02D+00 0.00027803 0.00013924 0.00221680 0.00086340    0.0472050 ----
   160   0   0   F    T  1.88D+00 0.00038702 0.00016579 0.00272751 0.00086340    0.0472042 ----
   161   0   0   F    F -2.07D-01 0.00038702 0.00016579 0.00056561 0.00017904    0.0472037 ---+
   162   0   0   F    T  1.28D+00 0.00041524 0.00018788 0.00173098 0.00068436    0.0472036 ----
   163   0   0   F    F  1.66D+00 0.00041524 0.00018788 0.00288013 0.00113868    0.0472025 ----
   164   0   0   F    T  2.35D+00 0.00056905 0.00020305 0.00504301 0.00182304    0.0472018 ----
   165   0   0   F    T  2.65D+00 0.00050318 0.00019020 0.00525761 0.00182304    0.0472003 ----
   166   0   0   F    F  2.83D-01 0.00050318 0.00019020 0.00148638 0.00051539    0.0471985 ----
   167   0   0   F    T  2.96D+00 0.00042539 0.00019520 0.00627017 0.00233843    0.0471984 ----
   168   0   0   F    F  1.11D-01 0.00042539 0.00019520 0.00069854 0.00026052    0.0471966 ---+
   169   0   0   F    T  2.60D+00 0.00066995 0.00022068 0.00668292 0.00259895    0.0471965 ----
   170   0   0   F    T  1.76D+00 0.00055612 0.00026718 0.00590847 0.00259895    0.0471946 ----
   171   0   0   F    F  3.42D-01 0.00055612 0.00026718 0.00202302 0.00088986    0.0471922 ----
   172   0   0   F    T  1.61D+00 0.00069710 0.00031667 0.00888481 0.00348880    0.0471920 ----
   173   0   0   F    F -1.00D-01 0.00069710 0.00031667 0.00089060 0.00034971    0.0471899 ----
   174   0   0   F    T  3.15D+00 0.00057752 0.00021487 0.00723420 0.00313909    0.0471899 ----
   175   0   0   F    F -4.10D-01 0.00057752 0.00021487 0.00296306 0.00128574    0.0471892 ----
   176   0   0   F    T  4.23D+00 0.00045741 0.00013927 0.00369564 0.00185335    0.0471886 ----
   177   0   0   F    F  1.74D-01 0.00045741 0.00013927 0.00064487 0.00032340    0.0471871 ----
   178   0   0   F    T  1.62D+00 0.00057027 0.00024203 0.00477212 0.00217675    0.0471871 ----
   179   0   0   F    F  3.07D-01 0.00057027 0.00024203 0.00146702 0.00066916    0.0471854 ----
   180   0   0   F    T  2.40D+00 0.00047414 0.00022381 0.00548580 0.00284591    0.0471853 ----
   181   0   0   F    F -4.19D-01 0.00047414 0.00022381 0.00229728 0.00119178    0.0471848 ----
   182   0   0   F    T  1.71D+00 0.00053008 0.00020000 0.00357791 0.00165414    0.0471842 ----
   183   0   0   F    F  4.66D-01 0.00053008 0.00020000 0.00166565 0.00077006    0.0471829 ----
   184   0   0   F    T  2.23D+00 0.00047381 0.00021035 0.00458868 0.00242420    0.0471827 ----
   185   0   0   F    F  1.15D+00 0.00047381 0.00021035 0.00527447 0.00278650    0.0471804 ----
   186   0   0   F    T  3.17D+00 0.00081734 0.00025763 0.01021631 0.00521070    0.0471796 ----
   187   0   0   F    F -3.99D-01 0.00081734 0.00025763 0.00407280 0.00207728    0.0471785 ----
   188   0   0   F    T  2.20D+00 0.00063749 0.00023638 0.00672165 0.00313342    0.0471777 ----
   189   0   0   F    F -3.06D-01 0.00063749 0.00023638 0.00205410 0.00095756    0.0471766 ----
   190   0   0   F    T  1.46D+00 0.00062133 0.00024062 0.00436105 0.00217586    0.0471764 ----
   191   0   0   F    F  1.00D+00 0.00062133 0.00024062 0.00437869 0.00218466    0.0471745 ----
   192   0   0   F    T  2.51D+00 0.00076826 0.00026126 0.00916995 0.00436052    0.0471738 ----
   193   0   0   F    F -2.43D-01 0.00076826 0.00026126 0.00223009 0.00106046    0.0471721 ----
   194   0   0   F    T  4.47D+00 0.00041214 0.00016682 0.00759009 0.00330006    0.0471719 ----
   195   0   0   F    F -4.51D-01 0.00041214 0.00016682 0.00342131 0.00148754    0.0471716 ----
   196   0   0   F    T  1.78D+00 0.00047222 0.00019422 0.00395445 0.00181252    0.0471709 ----
   197   0   0   F    T  1.38D+00 0.00051420 0.00021863 0.00437147 0.00181252    0.0471699 ----
   198   0   0   F    F  6.94D-01 0.00051420 0.00021863 0.00303404 0.00125799    0.0471685 ----
   199   0   0   F    T  3.26D+00 0.00045509 0.00018356 0.00722803 0.00307052    0.0471682 ----
   200   0   0   F    F -4.26D-01 0.00045509 0.00018356 0.00307823 0.00130765    0.0471678 ----
   201   0   0   F    T  2.92D+00 0.00040315 0.00014479 0.00398144 0.00176286    0.0471672 ----
   202   0   0   F    F  7.74D-01 0.00040315 0.00014479 0.00308208 0.00136465    0.0471659 ----
   203   0   0   F    T  1.75D+00 0.00061647 0.00024751 0.00807268 0.00312752    0.0471656 ----
   204   0   0   F    F -3.15D-01 0.00061647 0.00024751 0.00254619 0.00098644    0.0471647 ----
   205   0   0   F    T  2.32D+00 0.00043660 0.00017596 0.00510350 0.00214107    0.0471645 ----
   206   0   0   F    F -1.22D-01 0.00043660 0.00017596 0.00062198 0.00026094    0.0471636 ---+
   207   0   0   F    T  2.40D+00 0.00031745 0.00016097 0.00440812 0.00188013    0.0471636 ----
   208   0   0   F    F  1.64D-01 0.00031745 0.00016097 0.00072313 0.00030843    0.0471625 ----
   209   0   0   F    T  2.27D+00 0.00056539 0.00017743 0.00496402 0.00218856    0.0471625 ----
   210   0   0   F    F  3.10D-01 0.00056539 0.00017743 0.00154067 0.00067926    0.0471612 ----
   211   0   0   F    T  2.60D+00 0.00045320 0.00018882 0.00653616 0.00286782    0.0471611 ----
   212   0   0   T    F  4.56D-01 0.00045320 0.00018882 0.00297958 0.00130732    0.0471613 ----
   213   0   0   F    T  1.69D+00 0.00033168 0.00015594 0.00291891 0.00130732    0.0471604 ----
   214   0   0   F    F  6.43D-01 0.00033168 0.00015594 0.00187652 0.00084046    0.0471596 ----
   215   0   0   F    T  2.54D+00 0.00059923 0.00016130 0.00446467 0.00214778    0.0471594 ----
   216   0   0   F    F  1.05D-01 0.00059923 0.00016130 0.00046834 0.00022530    0.0471583 ---+
   217   0   0   F    T  2.67D+00 0.00042258 0.00016407 0.00486430 0.00237308    0.0471583 ----
   218   0   0   F    T  1.67D+00 0.00049404 0.00020262 0.00549665 0.00237308    0.0471573 ----
   219   0   0   F    F -7.36D-02 0.00049404 0.00020262 0.00040451 0.00017464    0.0471564 --++
   220   0   0   F    T  2.35D+00 0.00054423 0.00017292 0.00473783 0.00219844    0.0471564 ----
   221   0   0   F    F -4.60D-01 0.00054423 0.00017292 0.00217897 0.00101108    0.0471562 ----
   222   0   0   F    T  4.70D+00 0.00025707 0.00008456 0.00286665 0.00118736    0.0471558 ----
   223   0   0   F    F -4.43D-01 0.00025707 0.00008456 0.00127038 0.00052619    0.0471557 ----
   224   0   0   F    T  3.09D+00 0.00017342 0.00007532 0.00159770 0.00066117    0.0471555 ----
   225   0   0   F    F  6.94D-01 0.00017342 0.00007532 0.00110916 0.00045900    0.0471552 ----
   226   0   0   F    T  1.80D+00 0.00030032 0.00012709 0.00302002 0.00112017    0.0471551 ----
   227   0   0   F    F -1.98D-01 0.00030032 0.00012709 0.00059766 0.00022168    0.0471548 ---+
   228   0   0   F    T  2.24D+00 0.00022781 0.00010016 0.00200989 0.00089849    0.0471548 ----
   229   0   0   F    F -3.49D-01 0.00022781 0.00010016 0.00070201 0.00031382    0.0471546 ----
   230   0   0   F    T  2.43D+00 0.00016105 0.00007553 0.00159556 0.00058467    0.0471545 ----
   231   0   0   F    T  3.12D+00 0.00016230 0.00006767 0.00162767 0.00058467    0.0471543 -+--
   232   0   0   F    F -2.09D-01 0.00016230 0.00006767 0.00034087 0.00012244    0.0471541 -+++
   233   0   0   F    T  3.78D+00 0.00008543 0.00004659 0.00109582 0.00046223    0.0471541 ++--
   234   0   0   T    F  4.89D-01 0.00008543 0.00004659 0.00053569 0.00022596    0.0471541 ++-+
   235   0   0   F    T  1.78D+00 0.00011230 0.00004674 0.00046201 0.00022596    0.0471541 ++-+
   236   0   0   F    T  1.20D+00 0.00011355 0.00005327 0.00050170 0.00022596    0.0471540 -+-+
   237   0   0   F    F  1.45D+00 0.00011355 0.00005327 0.00072572 0.00032685    0.0471539 -+--
   238   0   0   F    T  2.65D+00 0.00015363 0.00006766 0.00123290 0.00055281    0.0471539 -+--
   239   0   0   F    T  1.38D+00 0.00019756 0.00008334 0.00124066 0.00055281    0.0471538 ----
   240   0   0   F    F -3.39D-01 0.00019756 0.00008334 0.00042068 0.00018745    0.0471537 --++
   241   0   0   F    T  2.79D+00 0.00022154 0.00007747 0.00070978 0.00036537    0.0471537 ----
   242   0   0   F    F -4.59D-01 0.00022154 0.00007747 0.00032613 0.00016788    0.0471537 --++
   243   0   0   F    T  2.76D+00 0.00009974 0.00004685 0.00050479 0.00019749    0.0471536 ++-+
   244   0   0   T    T  1.00D+00 0.00033842 0.00011718 0.00033842 0.00011718    0.0471536 --++
   245   0   0   T    F  5.00D-01 0.00033842 0.00011718 0.00016921 0.00005859    0.0471540 --++
   246   0   0   T    F  5.00D-01 0.00033842 0.00011718 0.00008461 0.00002930    0.0471537 --++
   247   0   0   T    F  5.00D-01 0.00033842 0.00011718 0.00004230 0.00001465    0.0471536 --++
   248   0   0   T    F  5.00D-01 0.00033842 0.00011718 0.00002115 0.00000732    0.0471536 --++
   249   0   0   T    F  5.00D-01 0.00033842 0.00011718 0.00001058 0.00000366    0.0471536 --++
   250   0   0   T    F  5.00D-01 0.00033842 0.00011718 0.00000529 0.00000183    0.0471536 --++
   251   0   0   T    F  5.00D-01 0.00033842 0.00011718 0.00000264 0.00000092    0.0471536 --++
   252   0   0   T    F  5.00D-01 0.00033842 0.00011718 0.00000132 0.00000046    0.0471536 --++
   253   0   0   T    F  5.00D-01 0.00033842 0.00011718 0.00000066 0.00000023    0.0471536 --++
   254   0   0   T    T  1.00D+00 0.00010077 0.00004710 0.00007953 0.00004114    0.0471536 ++++
   255   0   0   F    T  1.55D+00 0.00006004 0.00002799 0.00008352 0.00004114    0.0471535 ====
 ****************************
 MOLECULAR MECHANICS FUNCTION
 ****************************
 Atomic parameters:
 Center  VDW
      1 1.9080 0.0860000
      2 1.7210 0.2104000
      3 1.9080 0.1094000
      4 1.4870 0.0157000
      5 1.4870 0.0157000
      6 1.8750 0.1700000
      7 0.6000 0.0157000
      8 0.6000 0.0157000
      9 1.6612 0.2100000
     10 0.0000 0.0000000
 Molecular mechanics terms:
 NBDir 3 1      0      0
 HrmStr1  1- 2  431.53 1.3510
 HrmStr1  1- 3  294.15 1.5090
 HrmStr1  1- 9  946.08 1.2030
 HrmStr1  2-10  566.76 0.9680
 HrmStr1  3- 4  358.05 1.0960
 HrmStr1  3- 5  358.05 1.0960
 HrmStr1  3- 6  380.82 1.4520
 HrmStr1  6- 7  506.01 1.0110
 HrmStr1  6- 8  506.01 1.0110
 HrmBnd1  1- 2-10  56.55 107.23
 HrmBnd1  1- 3- 4  46.41 106.89
 HrmBnd1  1- 3- 5  46.41 106.89
 HrmBnd1  1- 3- 6  59.93 110.61
 HrmBnd1  2- 1- 3  67.92 111.72
 HrmBnd1  2- 1- 9  91.40 123.02
 HrmBnd1  3- 1- 9  62.83 125.24
 HrmBnd1  3- 6- 7  52.60 110.71
 HrmBnd1  3- 6- 8  52.60 110.71
 HrmBnd1  4- 3- 5  44.68 106.22
 HrmBnd1  4- 3- 6  52.45 112.94
 HrmBnd1  5- 3- 6  52.45 112.94
 HrmBnd1  7- 6- 8  47.09 108.63
 AmbTrs  3- 1- 2-10   0 180   0   0  0.0000 14.5000  0.0000  0.0000  2.0
 AmbTrs  9- 1- 2-10   0   0   0   0  0.0000 14.5000  0.0000  0.0000  2.0
 AmbTrs  2- 1- 3- 4   0   0   0   0  0.0000 14.5000  0.0000  0.0000  6.0
 AmbTrs  2- 1- 3- 5   0   0   0   0  0.0000 14.5000  0.0000  0.0000  6.0
 AmbTrs  2- 1- 3- 6   0   0   0   0  0.0000 14.5000  0.0000  0.0000  6.0
 AmbTrs  9- 1- 3- 4   0   0   0   0  0.0000 14.5000  0.0000  0.0000  6.0
 AmbTrs  9- 1- 3- 5   0   0   0   0  0.0000 14.5000  0.0000  0.0000  6.0
 AmbTrs  9- 1- 3- 6   0   0   0   0  0.0000 14.5000  0.0000  0.0000  6.0
 AmbTrs  1- 3- 6- 7   0 180   0   0  0.0000 25.6300  0.0000  0.0000  6.0
 AmbTrs  1- 3- 6- 8   0 180   0   0  0.0000 25.6300  0.0000  0.0000  6.0
 AmbTrs  4- 3- 6- 7   0   0   0   0  0.0000 16.9300  0.0000  0.0000  6.0
 AmbTrs  4- 3- 6- 8   0   0   0   0  0.0000 16.9300  0.0000  0.0000  6.0
 AmbTrs  5- 3- 6- 7   0   0   0   0  0.0000 16.9300  0.0000  0.0000  6.0
 AmbTrs  5- 3- 6- 8   0   0   0   0  0.0000 16.9300  0.0000  0.0000  6.0
 NBPair  2- 1 3 1      0      0 -1.000 -1.000
 NBPair  3- 2 3 1      0      0 -1.000 -1.000
 NBPair 10- 3 3 1      0      0 -0.500 -0.167
 NBPair  9- 2 3 1      0      0 -1.000 -1.000
 NBPair 10- 9 3 1      0      0 -0.500 -0.167
 NBPair  3- 1 3 1      0      0 -1.000 -1.000
 NBPair  4- 2 3 1      0      0 -0.500 -0.167
 NBPair  5- 2 3 1      0      0 -0.500 -0.167
 NBPair  6- 2 3 1      0      0 -0.500 -0.167
 NBPair  9- 3 3 1      0      0 -1.000 -1.000
 NBPair  9- 4 3 1      0      0 -0.500 -0.167
 NBPair  9- 5 3 1      0      0 -0.500 -0.167
 NBPair  9- 6 3 1      0      0 -0.500 -0.167
 NBPair  9- 1 3 1      0      0 -1.000 -1.000
 NBPair 10- 1 3 1      0      0 -1.000 -1.000
 NBPair 10- 2 3 1      0      0 -1.000 -1.000
 NBPair  4- 1 3 1      0      0 -1.000 -1.000
 NBPair  5- 1 3 1      0      0 -1.000 -1.000
 NBPair  6- 1 3 1      0      0 -1.000 -1.000
 NBPair  4- 3 3 1      0      0 -1.000 -1.000
 NBPair  5- 4 3 1      0      0 -1.000 -1.000
 NBPair  6- 4 3 1      0      0 -1.000 -1.000
 NBPair  5- 3 3 1      0      0 -1.000 -1.000
 NBPair  6- 5 3 1      0      0 -1.000 -1.000
 NBPair  6- 3 3 1      0      0 -1.000 -1.000
 NBPair  7- 1 3 1      0      0 -0.500 -0.167
 NBPair  8- 1 3 1      0      0 -0.500 -0.167
 NBPair  7- 4 3 1      0      0 -0.500 -0.167
 NBPair  8- 4 3 1      0      0 -0.500 -0.167
 NBPair  7- 5 3 1      0      0 -0.500 -0.167
 NBPair  8- 5 3 1      0      0 -0.500 -0.167
 NBPair  7- 3 3 1      0      0 -1.000 -1.000
 NBPair  8- 3 3 1      0      0 -1.000 -1.000
 NBPair  7- 6 3 1      0      0 -1.000 -1.000
 NBPair  8- 7 3 1      0      0 -1.000 -1.000
 NBPair  8- 6 3 1      0      0 -1.000 -1.000
 Energy per function type:
 Direct Coulomb + vdW (small)                           0.004102727
 Direct Coulomb (large)                                -0.131782630
 Direct vdW (large)                                   268.502970762
 Non-direct Coulomb + vdW (small)                      -0.012175022
 Non-direct Coulomb (large)                             0.138196719
 Non-direct vdW (large)                              -268.502970762
 Harmonic stretch I                                     0.000138474
 Harmonic bend I                                        0.009452373
 Amber torsion                                          0.039220910
 Energy per function class:
        Coulomb              -0.003583772
    Vanderwaals               0.001925564
     Stretching               0.000138474
        Bending               0.009452373
        Torsion               0.039220910
 Energy=    4.715354981E-02 NIter=   0.
 Dipole moment=       0.189915      -0.349201       0.513288
 Leave Link  402 at Tue Nov 28 09:32:04 2023, MaxMem=   134217728 cpu:               0.4 elap:               0.4
 (Enter /home/emanuele/chem_software/gaussian//gdv/l716.exe)
 Dipole        = 1.89914887D-01-3.49201328D-01 5.13287596D-01
 -------------------------------------------------------------------
 Center     Atomic                   Forces (Hartrees/Bohr)
 Number     Number              X              Y              Z
 -------------------------------------------------------------------
      1        6           0.000020193   -0.000015132    0.000015576
      2        8          -0.000001997    0.000015344    0.000022854
      3        6          -0.000019403    0.000018285   -0.000045050
      4        1          -0.000009143   -0.000014687   -0.000029377
      5        1           0.000055713   -0.000060038    0.000031963
      6        7          -0.000013770    0.000010881   -0.000046039
      7        1           0.000001533    0.000009648    0.000051217
      8        1          -0.000019090    0.000005001    0.000010077
      9        8           0.000000418    0.000029389   -0.000047135
     10        1          -0.000014453    0.000001309    0.000035913
 -------------------------------------------------------------------
 Cartesian Forces:  Max     0.000060038 RMS     0.000027986
 Z-matrix is all fixed cartesians, so copy forces.
 Leave Link  716 at Tue Nov 28 09:32:05 2023, MaxMem=   134217728 cpu:               0.0 elap:               0.1
 (Enter /home/emanuele/chem_software/gaussian//gdv/l103.exe)

 GradGradGradGradGradGradGradGradGradGradGradGradGradGradGradGradGradGrad
 Berny optimization.
 Search for a local minimum.
 Step number   1 out of a maximum of    2
 All quantities printed in internal units (Hartrees-Bohrs-Radians)
 RMS Force = .27986D-04 SwitMx=.10000D-02 MixMth= 2
 Mixed Optimization -- En-DIIS/RFO-DIIS
 Second derivative matrix not updated -- unit matrix used.
 ITU=  0
 RFO step:  Lambda=-2.34970393D-08 EMin= 1.00000000D+00
 Linear search not attempted -- first point.
 Variable       Old X    -DE/DX   Delta X   Delta X   Delta X     New X
                                 (Linear)    (Quad)   (Total)
    X1       -1.02337   0.00002   0.00000   0.00002   0.00002  -1.02335
    Y1        0.29173  -0.00002   0.00000  -0.00002  -0.00002   0.29171
    Z1       -0.12944   0.00002   0.00000   0.00002   0.00002  -0.12942
    X2       -3.03014  -0.00000   0.00000  -0.00000  -0.00000  -3.03014
    Y2       -1.10924   0.00002   0.00000   0.00002   0.00002  -1.10923
    Z2        0.59388   0.00002   0.00000   0.00002   0.00002   0.59390
    X3        1.34592  -0.00002   0.00000  -0.00002  -0.00002   1.34590
    Y3       -1.34074   0.00002   0.00000   0.00002   0.00002  -1.34073
    Z3       -0.00588  -0.00005   0.00000  -0.00005  -0.00005  -0.00592
    X4        0.93194  -0.00001   0.00000  -0.00001  -0.00001   0.93193
    Y4       -2.79564  -0.00001   0.00000  -0.00001  -0.00001  -2.79565
    Z4        1.41338  -0.00003   0.00000  -0.00003  -0.00003   1.41335
    X5        1.45981   0.00006   0.00000   0.00006   0.00006   1.45986
    Y5       -2.22695  -0.00006   0.00000  -0.00006  -0.00006  -2.22701
    Z5       -1.87628   0.00003   0.00000   0.00003   0.00003  -1.87625
    X6        3.50651  -0.00001   0.00000  -0.00001  -0.00001   3.50650
    Y6        0.20445   0.00001   0.00000   0.00001   0.00001   0.20446
    Z6        0.73265  -0.00005   0.00000  -0.00005  -0.00005   0.73261
    X7        3.31884   0.00000   0.00000   0.00000   0.00000   3.31885
    Y7        2.10729   0.00001   0.00000   0.00001   0.00001   2.10730
    Z7        0.76270   0.00005   0.00000   0.00005   0.00005   0.76275
    X8        5.26546  -0.00002   0.00000  -0.00002  -0.00002   5.26544
    Y8       -0.53736   0.00001   0.00000   0.00001   0.00001  -0.53736
    Z8        0.63785   0.00001   0.00000   0.00001   0.00001   0.63786
    X9       -1.27025   0.00000   0.00000   0.00000   0.00000  -1.27025
    Y9        1.68983   0.00003   0.00000   0.00003   0.00003   1.68986
    Z9       -1.90369  -0.00005   0.00000  -0.00005  -0.00005  -1.90374
   X10       -4.30259  -0.00001   0.00000  -0.00001  -0.00001  -4.30261
   Y10        0.08158   0.00000   0.00000   0.00000   0.00000   0.08158
   Z10        1.14479   0.00004   0.00000   0.00004   0.00004   1.14482
         Item               Value     Threshold  Converged?
 Maximum Force            0.000060     0.000450     YES
 RMS     Force            0.000028     0.000300     YES
 Maximum Displacement     0.000060     0.001800     YES
 RMS     Displacement     0.000028     0.001200     YES
 Predicted change in Energy=-1.174852D-08
 Optimization completed.
    -- Stationary point found.
 Largest change from initial coordinates is atom    9       0.816 Angstoms.
 GradGradGradGradGradGradGradGradGradGradGradGradGradGradGradGradGradGrad

 Leave Link  103 at Tue Nov 28 09:32:05 2023, MaxMem=   134217728 cpu:               0.0 elap:               0.0
 (Enter /home/emanuele/chem_software/gaussian//gdv/l202.exe)
                          Input orientation:                          
 ---------------------------------------------------------------------
 Center     Atomic      Atomic             Coordinates (Angstroms)
 Number     Number       Type             X           Y           Z
 ---------------------------------------------------------------------
      1          6    20001002       -0.541546    0.154375   -0.068494
      2          8    20001022       -1.603480   -0.586985    0.314268
      3          6    20001001        0.712230   -0.709491   -0.003110
      4          1    20001034        0.493161   -1.479389    0.747930
      5          1    20001034        0.772497   -1.178450   -0.992887
      6          7    20001020        1.855565    0.108189    0.387703
      7          1    20001029        1.756257    1.115131    0.403601
      8          1    20001029        2.786360   -0.284359    0.337534
      9          8    20001025       -0.672186    0.894219   -1.007390
     10          1    20001031       -2.276833    0.043171    0.605795
 ---------------------------------------------------------------------
                    Distance matrix (angstroms):
                    1          2          3          4          5
     1  C    0.000000
     2  O    1.350491   0.000000
     3  C    1.523973   2.340566   0.000000
     4  H    2.099131   2.319558   1.097631   0.000000
     5  H    2.087494   2.775563   1.096911   1.788585   0.000000
     6  N    2.440571   3.528973   1.458955   2.122807   2.175892
     7  H    2.534920   3.767361   2.141179   2.906115   2.859803
     8  H    3.381169   4.400320   2.144479   2.618259   2.573920
     9  O    1.202481   2.192727   2.344583   3.173829   2.526514
    10  H    1.865008   0.967207   3.141937   3.164057   3.653294
                    6          7          8          9         10
     6  N    0.000000
     7  H    1.011952   0.000000
     8  H    1.011430   1.738979   0.000000
     9  O    2.992265   2.817273   3.893508   0.000000
    10  H    4.138659   4.178013   5.080862   2.429308   0.000000
 Symmetry turned off by external request.
 Stoichiometry    C2H5NO2
 Framework group  C1[X(C2H5NO2)]
 Deg. of freedom    24
 Full point group                 C1      NOp   1
 Rotational constants (GHZ):          10.1382488           3.8214426           3.0338871
 Leave Link  202 at Tue Nov 28 09:32:05 2023, MaxMem=   134217728 cpu:               0.0 elap:               0.0
 (Enter /home/emanuele/chem_software/gaussian//gdv/l9999.exe)
 Unable to Open any file for archive entry.
 1\1\GINC-EMANUELE-XPS-13-9343\FOpt\AMBER\ZDO\C2H5N1O2\EMANUELE\28-Nov-
 2023\0\\#p Amber=(SoftFirst,Print) geom=nocrowd nosymm opt=(maxcycle=3
 00)\\Title\\0,1\C,-0.5415456957,0.154375072,-0.0684944126\O,-1.6034799
 249,-0.5869850607,0.3142680769\C,0.7122304903,-0.709491153,-0.00310991
 52\H,0.4931611325,-1.4793886818,0.7479302029\H,0.7724967499,-1.1784498
 859,-0.992886935\N,1.8555646781,0.1081890914,0.3877028292\H,1.75625651
 33,1.1151306588,0.4036012888\H,2.7863598023,-0.2843590401,0.3375341267
 \O,-0.672185694,0.8942185678,-1.007389886\H,-2.2768330518,0.0431714316
 ,0.6057946243\\Version=ES64L-GDVRevJ.14\HF=0.0471535\RMSD=0.000e+00\RM
 SF=2.799e-05\Dipole=0.1899149,-0.3492013,0.5132876\PG=C01 [X(C2H5N1O2)
 ]\\@
 The archive entry for this job was punched.


 WHEN A MATHEMATICIAN ENGAGED IN INVESTIGATING
 PHYSICAL ACTIONS AND RESULTS HAS ARRIVED AT HIS
 CONCLUSIONS, MAY THEY NOT BE EXPRESSED IN COMMON
 LANGUAGE AS FULLY, CLEARLY, AND DEFINITELY AS IN
 MATHEMATICAL FORMULAE?
           - LETTER FROM M. FARADAY TO J.C. MAXWELL, 1857.
 Job cpu time:       0 days  0 hours  0 minutes  0.9 seconds.
 Elapsed time:       0 days  0 hours  0 minutes  1.0 seconds.
 File lengths (MBytes):  RWF=      6 Int=      0 D2E=      0 Chk=      1 Scr=      1
 Normal termination of Gaussian DV at Tue Nov 28 09:32:05 2023.
