 Entering Gaussian System, Link 0=/home/emanuele/chem_software/gaussian//g09/g09
 Input=2_qm.gjf
 Output=2_qm.log
 Initial command:
 /home/emanuele/chem_software/gaussian//gdv/l1.exe "/home/emanuele/chem_software/gaussian/scratch/Gau-6028.inp" -scrdir="/home/emanuele/chem_software/gaussian/scratch/"
 Entering Link 1 = /home/emanuele/chem_software/gaussian//gdv/l1.exe PID=      6030.
  
 Copyright (c) 1988-2020, Gaussian, Inc.  All Rights Reserved.
  
 This is the private, development version of
 the Gaussian(R) DV system of programs. It is based on
 the Gaussian(R) 16 system (copyright 2016, Gaussian, Inc.),
 the Gaussian(R) 09 system (copyright 2009, Gaussian, Inc.),
 the Gaussian(R) 03 system (copyright 2003, Gaussian, Inc.),
 the Gaussian(R) 98 system (copyright 1998, Gaussian, Inc.),
 the Gaussian(R) 94 system (copyright 1995, Gaussian, Inc.),
 the Gaussian 92(TM) system (copyright 1992, Gaussian, Inc.),
 the Gaussian 90(TM) system (copyright 1990, Gaussian, Inc.),
 the Gaussian 88(TM) system (copyright 1988, Gaussian, Inc.),
 the Gaussian 86(TM) system (copyright 1986, Carnegie Mellon
 University), and the Gaussian 82(TM) system (copyright 1983,
 Carnegie Mellon University). Gaussian is a federally registered
 trademark of Gaussian, Inc.
  
 This software contains proprietary and confidential information,
 including trade secrets, belonging to Gaussian, Inc.
  
 This software is provided under written license and may be
 used, copied, transmitted, or stored only in accord with that
 written license.
  
 The following legend is applicable only to US Government
 contracts under FAR:
  
                    RESTRICTED RIGHTS LEGEND
  
 Use, reproduction and disclosure by the US Government is
 subject to restrictions as set forth in subparagraphs (a)
 and (c) of the Commercial Computer Software - Restricted
 Rights clause in FAR 52.227-19.
  
 Gaussian, Inc.
 340 Quinnipiac St., Bldg. 40, Wallingford CT 06492
  
  
 ---------------------------------------------------------------
 Warning -- This program may not be used in any manner that
 competes with the business of Gaussian, Inc. or will provide
 assistance to any competitor of Gaussian, Inc.  The licensee
 of this program is prohibited from giving any competitor of
 Gaussian, Inc. access to this program.  By using this program,
 the user acknowledges that Gaussian, Inc. is engaged in the
 business of creating and licensing software in the field of
 computational chemistry and represents and warrants to the
 licensee that it is not a competitor of Gaussian, Inc. and that
 it will not use this program in any manner prohibited above.
 ---------------------------------------------------------------
  

 Cite this work as:
 Gaussian Development Version, Revision J.14,
 M. J. Frisch, G. W. Trucks, H. B. Schlegel, G. E. Scuseria, 
 M. A. Robb, J. R. Cheeseman, G. Scalmani, V. Barone, 
 G. A. Petersson, H. Nakatsuji, X. Li, A. V. Marenich, M. Caricato, 
 J. Bloino, B. G. Janesko, J. Zheng, R. Gomperts, B. Mennucci, 
 H. P. Hratchian, J. V. Ortiz, A. F. Izmaylov, J. L. Sonnenberg, 
 D. Williams-Young, F. Ding, F. Lipparini, F. Egidi, J. Goings, 
 B. Peng, A. Petrone, T. Henderson, D. Ranasinghe, V. G. Zakrzewski, 
 J. Gao, N. Rega, G. Zheng, W. Liang, M. Hada, M. Ehara, K. Toyota, 
 R. Fukuda, J. Hasegawa, M. Ishida, T. Nakajima, Y. Honda, O. Kitao, 
 H. Nakai, T. Vreven, K. Throssell, J. A. Montgomery, Jr., 
 J. E. Peralta, F. Ogliaro, M. J. Bearpark, J. J. Heyd, 
 E. N. Brothers, K. N. Kudin, V. N. Staroverov, T. A. Keith, 
 R. Kobayashi, J. Normand, K. Raghavachari, A. P. Rendell, 
 J. C. Burant, S. S. Iyengar, J. Tomasi, M. Cossi, J. M. Millam, 
 M. Klene, C. Adamo, R. Cammi, J. W. Ochterski, R. L. Martin, 
 K. Morokuma, O. Farkas, J. B. Foresman, and D. J. Fox, 
 Gaussian, Inc., Wallingford CT, 2020.
 
 ******************************************
 Gaussian DV:  ES64L-GDVRevJ.14 29-Dec-2020
                28-Nov-2023 
 ******************************************
 %mem=1GB
 %nprocshared=4
 Will use up to    4 processors via shared memory.
 %chk=2_qm.chk
 ----------------------------------------------------------
 #p nosymm geom=nocrowd opt=(modredundant,maxcycle=100) PM6
 ----------------------------------------------------------
 1/6=100,18=120,19=15,26=1,37=210000000,38=1/1,3;
 2/9=110,12=1,15=1,40=1/2;
 3/5=2,25=1,41=3900000,71=1/1,2,3;
 4/35=1/1;
 5/5=2,35=1,38=5/2;
 6/7=2,8=2,9=2,10=2,28=1/1;
 7/30=1/1,2,3,16;
 1/6=100,18=20,19=15,26=1/3(2);
 2/9=110,12=1,15=1/2;
 99//99;
 2/9=110,12=1,15=1/2;
 3/5=2,25=1,41=3900000,71=1,135=20/1,2,3;
 4/5=5,16=3,35=1/1;
 5/5=2,35=1,38=5/2;
 7/30=1/1,2,3,16;
 1/6=100,18=20,19=15,26=1/3(-5);
 2/9=110,12=1,15=1/2;
 6/7=2,8=2,9=2,10=2,19=2,28=1/1;
 99/9=1/99;
 Leave Link    1 at Tue Nov 28 15:28:22 2023, MaxMem=   134217728 cpu:               0.2 elap:               0.1
 (Enter /home/emanuele/chem_software/gaussian//gdv/l101.exe)
 -----
 Title
 -----
 Symbolic Z-matrix:
 Charge =  0 Multiplicity = 1
 C                    -0.53685   0.10417   0.01464 
 O                    -1.63632  -0.67637  -0.06827 
 C                     0.72601  -0.7177    0.10528 
 H                     0.71699  -1.15712   1.11445 
 H                     0.64338  -1.5538   -0.59228 
 N                     1.88901   0.09773  -0.1951 
 H                     1.74816   1.04081   0.14593 
 H                     2.72354  -0.27843   0.23189 
 O                    -0.58681   1.30563   0.04628 
 H                    -2.40509  -0.08851  -0.07785 
 
 The following ModRedundant input section has been read:
 D       2       1       3       6 S  10 36.000                                
 
 ITRead=  0  0  0  0  0  0  0  0  0  0
 MicOpt= -1 -1 -1 -1 -1 -1 -1 -1 -1 -1
 NAtoms=     10 NQM=       10 NQMF=       0 NMMI=      0 NMMIF=      0
                NMic=       0 NMicF=      0.
                    Isotopes and Nuclear Properties:
 (Nuclear quadrupole moments (NQMom) in fm**2, nuclear magnetic moments (NMagM)
  in nuclear magnetons)

  Atom         1           2           3           4           5           6           7           8           9          10
 IAtWgt=          12          16          12           1           1          14           1           1          16           1
 AtmWgt=  12.0000000  15.9949146  12.0000000   1.0078250   1.0078250  14.0030740   1.0078250   1.0078250  15.9949146   1.0078250
 NucSpn=           0           0           0           1           1           2           1           1           0           1
 AtZEff=  -0.0000000  -0.0000000  -0.0000000  -0.0000000  -0.0000000  -0.0000000  -0.0000000  -0.0000000  -0.0000000  -0.0000000
 NQMom=    0.0000000   0.0000000   0.0000000   0.0000000   0.0000000   2.0440000   0.0000000   0.0000000   0.0000000   0.0000000
 NMagM=    0.0000000   0.0000000   0.0000000   2.7928460   2.7928460   0.4037610   2.7928460   2.7928460   0.0000000   2.7928460
 AtZNuc=   6.0000000   8.0000000   6.0000000   1.0000000   1.0000000   7.0000000   1.0000000   1.0000000   8.0000000   1.0000000
 Leave Link  101 at Tue Nov 28 15:28:22 2023, MaxMem=   134217728 cpu:               0.9 elap:               0.3
 (Enter /home/emanuele/chem_software/gaussian//gdv/l103.exe)

 GradGradGradGradGradGradGradGradGradGradGradGradGradGradGradGradGradGrad
 Berny optimization.
 Initialization pass.
                           ----------------------------
                           !    Initial Parameters    !
                           ! (Angstroms and Degrees)  !
 --------------------------                            --------------------------
 ! Name  Definition              Value          Derivative Info.                !
 --------------------------------------------------------------------------------
 ! R1    R(1,2)                  1.3509         estimate D2E/DX2                !
 ! R2    R(1,3)                  1.5095         estimate D2E/DX2                !
 ! R3    R(1,9)                  1.2029         estimate D2E/DX2                !
 ! R4    R(2,10)                 0.9678         estimate D2E/DX2                !
 ! R5    R(3,4)                  1.1007         estimate D2E/DX2                !
 ! R6    R(3,5)                  1.092          estimate D2E/DX2                !
 ! R7    R(3,6)                  1.4518         estimate D2E/DX2                !
 ! R8    R(6,7)                  1.0127         estimate D2E/DX2                !
 ! R9    R(6,8)                  1.0101         estimate D2E/DX2                !
 ! A1    A(2,1,3)              111.7154         estimate D2E/DX2                !
 ! A2    A(2,1,9)              123.0182         estimate D2E/DX2                !
 ! A3    A(3,1,9)              125.2388         estimate D2E/DX2                !
 ! A4    A(1,2,10)             107.2257         estimate D2E/DX2                !
 ! A5    A(1,3,4)              105.4003         estimate D2E/DX2                !
 ! A6    A(1,3,5)              108.3736         estimate D2E/DX2                !
 ! A7    A(1,3,6)              110.6071         estimate D2E/DX2                !
 ! A8    A(4,3,5)              106.2232         estimate D2E/DX2                !
 ! A9    A(4,3,6)              114.8648         estimate D2E/DX2                !
 ! A10   A(5,3,6)              111.0079         estimate D2E/DX2                !
 ! A11   A(3,6,7)              109.9968         estimate D2E/DX2                !
 ! A12   A(3,6,8)              111.4207         estimate D2E/DX2                !
 ! A13   A(7,6,8)              108.6253         estimate D2E/DX2                !
 ! D1    D(3,1,2,10)           177.195          estimate D2E/DX2                !
 ! D2    D(9,1,2,10)            -0.9857         estimate D2E/DX2                !
 ! D3    D(2,1,3,4)            -71.8288         estimate D2E/DX2                !
 ! D4    D(2,1,3,5)             41.552          estimate D2E/DX2                !
 ! D5    D(2,1,3,6)            163.4539         Scan                            !
 ! D6    D(9,1,3,4)            106.3034         estimate D2E/DX2                !
 ! D7    D(9,1,3,5)           -140.3158         estimate D2E/DX2                !
 ! D8    D(9,1,3,6)            -18.4139         estimate D2E/DX2                !
 ! D9    D(1,3,6,7)             34.6533         estimate D2E/DX2                !
 ! D10   D(1,3,6,8)            155.1742         estimate D2E/DX2                !
 ! D11   D(4,3,6,7)            -84.4877         estimate D2E/DX2                !
 ! D12   D(4,3,6,8)             36.0331         estimate D2E/DX2                !
 ! D13   D(5,3,6,7)            154.9936         estimate D2E/DX2                !
 ! D14   D(5,3,6,8)            -84.4855         estimate D2E/DX2                !
 --------------------------------------------------------------------------------
 Trust Radius=3.00D-01 FncErr=1.00D-07 GrdErr=1.00D-07 EigMax=2.50D+02 EigMin=1.00D-04
 Number of optimizations in scan=  11
 Number of steps in this run=    100 maximum allowed number of steps=    100.
 GradGradGradGradGradGradGradGradGradGradGradGradGradGradGradGradGradGrad

 Leave Link  103 at Tue Nov 28 15:28:22 2023, MaxMem=   134217728 cpu:               0.1 elap:               0.0
 (Enter /home/emanuele/chem_software/gaussian//gdv/l202.exe)
                          Input orientation:                          
 ---------------------------------------------------------------------
 Center     Atomic      Atomic             Coordinates (Angstroms)
 Number     Number       Type             X           Y           Z
 ---------------------------------------------------------------------
      1          6           0       -0.536850    0.104174    0.014636
      2          8           0       -1.636322   -0.676373   -0.068268
      3          6           0        0.726013   -0.717700    0.105280
      4          1           0        0.716994   -1.157121    1.114447
      5          1           0        0.643380   -1.553795   -0.592281
      6          7           0        1.889013    0.097733   -0.195097
      7          1           0        1.748159    1.040807    0.145925
      8          1           0        2.723536   -0.278432    0.231888
      9          8           0       -0.586810    1.305633    0.046275
     10          1           0       -2.405088   -0.088514   -0.077854
 ---------------------------------------------------------------------
                    Distance matrix (angstroms):
                    1          2          3          4          5
     1  C    0.000000
     2  O    1.350913   0.000000
     3  C    1.509475   2.369062   0.000000
     4  H    2.091070   2.677318   1.100723   0.000000
     5  H    2.123712   2.498299   1.092005   1.753764   0.000000
     6  N    2.434921   3.611553   1.451801   2.159443   2.106395
     7  H    2.473011   3.801223   2.034400   2.613852   2.915038
     8  H    3.289940   4.388258   2.049167   2.361613   2.575433
     9  O    1.202913   2.245650   2.412646   2.984301   3.177648
    10  H    1.880424   0.967818   3.198938   3.508689   3.421234
                    6          7          8          9         10
     6  N    0.000000
     7  H    1.012682   0.000000
     8  H    1.010072   1.642906   0.000000
     9  O    2.765318   2.352051   3.674521   0.000000
    10  H    4.299737   4.309861   5.141478   2.294600   0.000000
 Symmetry turned off by external request.
 Stoichiometry    C2H5NO2
 Framework group  C1[X(C2H5NO2)]
 Deg. of freedom    24
 Full point group                 C1      NOp   1
 Rotational constants (GHZ):          10.4489861           3.9571341           2.9518000
 Leave Link  202 at Tue Nov 28 15:28:22 2023, MaxMem=   134217728 cpu:               0.1 elap:               0.0
 (Enter /home/emanuele/chem_software/gaussian//gdv/l301.exe)
 Standard basis: VSTO-6G (5D, 7F)
 Ernie: Thresh=  0.10000D-02 Tol=  0.10000D-05 Strict=F.
  NNHCO=     0 NNPyr=     0 NCTC=     0               EPep=         0.000000000
    EC=        84.002832998  ECS=         2.253874644   EG=         0.126211539
   EHC=         0.001112369  EAt=       -38.066560349  AtH=         1.329713788
 EPDDG=         0.000000000  ECC=        86.384031549 EAtT=        39.396274136
    25 basis functions,   150 primitive gaussians,    25 cartesian basis functions
    15 alpha electrons       15 beta electrons
       nuclear repulsion energy       125.7803056858 Hartrees.
 IExCor=       0 DFT=F Ex=HF Corr=None N6=None ScaHFX=  1.000000
 ScaDFX=  1.000000  1.000000  1.000000  1.000000  1.000000  0.000000
 ScaDFX=  0.000000  0.000000  0.000000  0.000000  0.000000  0.000000
 IRadAn=      5 IRanWt=     -1 IRanGd=            0 ICorTp=0 IEmpDi=  4
 Integral buffers will be    131072 words long.
 Regular integral format.
 Two-electron integral symmetry is turned off.
 Leave Link  301 at Tue Nov 28 15:28:22 2023, MaxMem=   134217728 cpu:               0.3 elap:               0.1
 (Enter /home/emanuele/chem_software/gaussian//gdv/l302.exe)
 Do NDO integrals.
 NPDir=0 NMtPBC=     1 NCelOv=     1 NCel=       1 NClECP=     1 NCelD=      1
         NCelK=      1 NCelE2=     1 NClLst=     1 CellRange=     0.0.
 One-electron integrals computed using PRISM.
 NBasis=    25 RedAO= F EigKep=  0.00D+00  NBF=    25
 NBsUse=    25 1.00D-04 EigRej=  0.00D+00 NBFU=    25
 Leave Link  302 at Tue Nov 28 15:28:23 2023, MaxMem=   134217728 cpu:               0.4 elap:               0.1
 (Enter /home/emanuele/chem_software/gaussian//gdv/l303.exe)
 DipDrv:  MaxL=1.
 Leave Link  303 at Tue Nov 28 15:28:23 2023, MaxMem=   134217728 cpu:               0.2 elap:               0.1
 (Enter /home/emanuele/chem_software/gaussian//gdv/l401.exe)
 Simple Huckel Guess.
 JPrj=0 DoOrth=F DoCkMO=F.
 Leave Link  401 at Tue Nov 28 15:28:23 2023, MaxMem=   134217728 cpu:               0.3 elap:               0.1
 (Enter /home/emanuele/chem_software/gaussian//gdv/l502.exe)
 Keep J ints in memory in canonical form, NReq=861126.
 FoFCou: FMM=F IPFlag=           0 FMFlag=           0 FMFlg1=           0
         NFxFlg=           0 DoJE=F BraDBF=F KetDBF=F FulRan=T
         wScrn=  0.000000 ICntrl=       600 IOpCl=  2 I1Cent=           0 NGrid=           0
         NMat0=    1 NMatS0=     55 NMatT0=    0 NMatD0=    1 NMtDS0=    0 NMtDT0=    0
 Symmetry not used in FoFCou.
 Two-electron integral symmetry not used.
 Closed shell SCF:
 Using DIIS extrapolation, IDIIS=  1040.
 Overlap will be assumed to be unity.
 NGot=   134217728 LenX=   134155015 LenY=   134153949
 Requested convergence on RMS density matrix=1.00D-08 within 128 cycles.
 Requested convergence on MAX density matrix=1.00D-06.
 Requested convergence on             energy=1.00D-06.
 No special actions if energy rises.

 Cycle   1  Pass 1  IDiag  1:
 E= 0.171768323968593    
 DIIS: error= 5.87D-02 at cycle   1 NSaved=   1.
 NSaved= 1 IEnMin= 1 EnMin= 0.171768323968593     IErMin= 1 ErrMin= 5.87D-02
 ErrMax= 5.87D-02  0.00D+00 EMaxC= 1.00D-01 BMatC= 8.86D-02 BMatP= 8.86D-02
 IDIUse=3 WtCom= 4.13D-01 WtEn= 5.87D-01
 Coeff-Com:  0.100D+01
 Coeff-En:   0.100D+01
 Coeff:      0.100D+01
 GapD=    2.000 DampG=2.000 DampE=0.500 DampFc=1.0000 IDamp=-1.
 RMSDP=1.97D-02 MaxDP=1.61D-01              OVMax= 0.00D+00

 Cycle   2  Pass 1  IDiag  1:
 E=-0.907243624587153E-01 Delta-E=       -0.262492686427 Rises=F Damp=F
 DIIS: error= 1.89D-02 at cycle   2 NSaved=   2.
 NSaved= 2 IEnMin= 2 EnMin=-0.907243624587153E-01 IErMin= 2 ErrMin= 1.89D-02
 ErrMax= 1.89D-02  0.00D+00 EMaxC= 1.00D-01 BMatC= 1.04D-02 BMatP= 8.86D-02
 IDIUse=3 WtCom= 8.11D-01 WtEn= 1.89D-01
 Coeff-Com: -0.330D+00 0.133D+01
 Coeff-En:   0.000D+00 0.100D+01
 Coeff:     -0.268D+00 0.127D+01
 RMSDP=9.09D-03 MaxDP=5.88D-02 DE=-2.62D-01 OVMax= 0.00D+00

 Cycle   3  Pass 1  IDiag  3:
 E=-0.131686604490383     Delta-E=       -0.040962242032 Rises=F Damp=F
 DIIS: error= 5.72D-03 at cycle   3 NSaved=   3.
 NSaved= 3 IEnMin= 3 EnMin=-0.131686604490383     IErMin= 3 ErrMin= 5.72D-03
 ErrMax= 5.72D-03  0.00D+00 EMaxC= 1.00D-01 BMatC= 9.51D-04 BMatP= 1.04D-02
 IDIUse=3 WtCom= 9.43D-01 WtEn= 5.72D-02
 Coeff-Com:  0.114D+00-0.663D+00 0.155D+01
 Coeff-En:   0.000D+00 0.000D+00 0.100D+01
 Coeff:      0.108D+00-0.625D+00 0.152D+01
 Gap=     0.372 Goal=   None    Shift=    0.000
 RMSDP=4.00D-03 MaxDP=3.01D-02 DE=-4.10D-02 OVMax= 2.54D-02

 Cycle   4  Pass 1  IDiag  3:
 E=-0.136696101732383     Delta-E=       -0.005009497242 Rises=F Damp=F
 DIIS: error= 1.40D-03 at cycle   4 NSaved=   4.
 NSaved= 4 IEnMin= 4 EnMin=-0.136696101732383     IErMin= 4 ErrMin= 1.40D-03
 ErrMax= 1.40D-03  0.00D+00 EMaxC= 1.00D-01 BMatC= 4.28D-05 BMatP= 9.51D-04
 IDIUse=3 WtCom= 9.86D-01 WtEn= 1.40D-02
 Coeff-Com: -0.400D-01 0.258D+00-0.755D+00 0.154D+01
 Coeff-En:   0.000D+00 0.000D+00 0.000D+00 0.100D+01
 Coeff:     -0.394D-01 0.254D+00-0.745D+00 0.153D+01
 Gap=     0.372 Goal=   None    Shift=    0.000
 RMSDP=1.04D-03 MaxDP=9.03D-03 DE=-5.01D-03 OVMax= 7.57D-03

 Cycle   5  Pass 1  IDiag  3:
 E=-0.136963559301549     Delta-E=       -0.000267457569 Rises=F Damp=F
 DIIS: error= 1.91D-04 at cycle   5 NSaved=   5.
 NSaved= 5 IEnMin= 5 EnMin=-0.136963559301549     IErMin= 5 ErrMin= 1.91D-04
 ErrMax= 1.91D-04  0.00D+00 EMaxC= 1.00D-01 BMatC= 1.66D-06 BMatP= 4.28D-05
 IDIUse=3 WtCom= 9.98D-01 WtEn= 1.91D-03
 Coeff-Com:  0.842D-02-0.624D-01 0.208D+00-0.597D+00 0.144D+01
 Coeff-En:   0.000D+00 0.000D+00 0.000D+00 0.000D+00 0.100D+01
 Coeff:      0.840D-02-0.622D-01 0.208D+00-0.596D+00 0.144D+01
 Gap=     0.372 Goal=   None    Shift=    0.000
 RMSDP=2.12D-04 MaxDP=1.77D-03 DE=-2.67D-04 OVMax= 1.33D-03

 Cycle   6  Pass 1  IDiag  3:
 E=-0.136973636601908     Delta-E=       -0.000010077300 Rises=F Damp=F
 DIIS: error= 3.70D-05 at cycle   6 NSaved=   6.
 NSaved= 6 IEnMin= 6 EnMin=-0.136973636601908     IErMin= 6 ErrMin= 3.70D-05
 ErrMax= 3.70D-05  0.00D+00 EMaxC= 1.00D-01 BMatC= 5.72D-08 BMatP= 1.66D-06
 IDIUse=1 WtCom= 1.00D+00 WtEn= 0.00D+00
 Coeff-Com: -0.207D-02 0.176D-01-0.620D-01 0.206D+00-0.642D+00 0.148D+01
 Coeff:     -0.207D-02 0.176D-01-0.620D-01 0.206D+00-0.642D+00 0.148D+01
 Gap=     0.372 Goal=   None    Shift=    0.000
 RMSDP=3.64D-05 MaxDP=2.48D-04 DE=-1.01D-05 OVMax= 2.53D-04

 Cycle   7  Pass 1  IDiag  3:
 E=-0.136973965269405     Delta-E=       -0.000000328667 Rises=F Damp=F
 DIIS: error= 5.99D-06 at cycle   7 NSaved=   7.
 NSaved= 7 IEnMin= 7 EnMin=-0.136973965269405     IErMin= 7 ErrMin= 5.99D-06
 ErrMax= 5.99D-06  0.00D+00 EMaxC= 1.00D-01 BMatC= 2.51D-09 BMatP= 5.72D-08
 IDIUse=1 WtCom= 1.00D+00 WtEn= 0.00D+00
 Coeff-Com:  0.699D-03-0.607D-02 0.203D-01-0.682D-01 0.223D+00-0.593D+00
 Coeff-Com:  0.142D+01
 Coeff:      0.699D-03-0.607D-02 0.203D-01-0.682D-01 0.223D+00-0.593D+00
 Coeff:      0.142D+01
 Gap=     0.372 Goal=   None    Shift=    0.000
 RMSDP=8.01D-06 MaxDP=5.07D-05 DE=-3.29D-07 OVMax= 6.55D-05

 Cycle   8  Pass 1  IDiag  3:
 E=-0.136973981683084     Delta-E=       -0.000000016414 Rises=F Damp=F
 DIIS: error= 2.82D-06 at cycle   8 NSaved=   8.
 NSaved= 8 IEnMin= 8 EnMin=-0.136973981683084     IErMin= 8 ErrMin= 2.82D-06
 ErrMax= 2.82D-06  0.00D+00 EMaxC= 1.00D-01 BMatC= 2.98D-10 BMatP= 2.51D-09
 IDIUse=1 WtCom= 1.00D+00 WtEn= 0.00D+00
 Coeff-Com: -0.111D-03 0.111D-02-0.319D-02 0.121D-01-0.468D-01 0.147D+00
 Coeff-Com: -0.696D+00 0.159D+01
 Coeff:     -0.111D-03 0.111D-02-0.319D-02 0.121D-01-0.468D-01 0.147D+00
 Coeff:     -0.696D+00 0.159D+01
 Gap=     0.372 Goal=   None    Shift=    0.000
 RMSDP=3.21D-06 MaxDP=1.72D-05 DE=-1.64D-08 OVMax= 1.97D-05

 Cycle   9  Pass 1  IDiag  3:
 E=-0.136973983708913     Delta-E=       -0.000000002026 Rises=F Damp=F
 DIIS: error= 6.46D-07 at cycle   9 NSaved=   9.
 NSaved= 9 IEnMin= 9 EnMin=-0.136973983708913     IErMin= 9 ErrMin= 6.46D-07
 ErrMax= 6.46D-07  0.00D+00 EMaxC= 1.00D-01 BMatC= 1.61D-11 BMatP= 2.98D-10
 IDIUse=1 WtCom= 1.00D+00 WtEn= 0.00D+00
 Coeff-Com: -0.274D-06-0.722D-04-0.551D-04-0.350D-03 0.401D-02-0.184D-01
 Coeff-Com:  0.170D+00-0.565D+00 0.141D+01
 Coeff:     -0.274D-06-0.722D-04-0.551D-04-0.350D-03 0.401D-02-0.184D-01
 Coeff:      0.170D+00-0.565D+00 0.141D+01
 Gap=     0.372 Goal=   None    Shift=    0.000
 RMSDP=6.23D-07 MaxDP=3.84D-06 DE=-2.03D-09 OVMax= 3.31D-06

 Cycle  10  Pass 1  IDiag  3:
 E=-0.136973983799180     Delta-E=       -0.000000000090 Rises=F Damp=F
 DIIS: error= 1.49D-07 at cycle  10 NSaved=  10.
 NSaved=10 IEnMin=10 EnMin=-0.136973983799180     IErMin=10 ErrMin= 1.49D-07
 ErrMax= 1.49D-07  0.00D+00 EMaxC= 1.00D-01 BMatC= 1.06D-12 BMatP= 1.61D-11
 IDIUse=1 WtCom= 1.00D+00 WtEn= 0.00D+00
 Coeff-Com:  0.607D-05-0.280D-04 0.163D-03-0.381D-03 0.520D-03 0.145D-03
 Coeff-Com: -0.175D-01 0.762D-01-0.426D+00 0.137D+01
 Coeff:      0.607D-05-0.280D-04 0.163D-03-0.381D-03 0.520D-03 0.145D-03
 Coeff:     -0.175D-01 0.762D-01-0.426D+00 0.137D+01
 Gap=     0.372 Goal=   None    Shift=    0.000
 RMSDP=1.63D-07 MaxDP=1.11D-06 DE=-9.03D-11 OVMax= 8.46D-07

 Cycle  11  Pass 1  IDiag  3:
 E=-0.136973983805575     Delta-E=       -0.000000000006 Rises=F Damp=F
 DIIS: error= 4.05D-08 at cycle  11 NSaved=  11.
 NSaved=11 IEnMin=11 EnMin=-0.136973983805575     IErMin=11 ErrMin= 4.05D-08
 ErrMax= 4.05D-08  0.00D+00 EMaxC= 1.00D-01 BMatC= 8.06D-14 BMatP= 1.06D-12
 IDIUse=1 WtCom= 1.00D+00 WtEn= 0.00D+00
 Coeff-Com: -0.131D-05 0.896D-05-0.282D-04 0.921D-04-0.355D-03 0.116D-02
 Coeff-Com: -0.918D-02 0.286D-01 0.130D-01-0.454D+00 0.142D+01
 Coeff:     -0.131D-05 0.896D-05-0.282D-04 0.921D-04-0.355D-03 0.116D-02
 Coeff:     -0.918D-02 0.286D-01 0.130D-01-0.454D+00 0.142D+01
 Gap=     0.372 Goal=   None    Shift=    0.000
 RMSDP=4.85D-08 MaxDP=2.87D-07 DE=-6.39D-12 OVMax= 3.58D-07

 Cycle  12  Pass 1  IDiag  3:
 E=-0.136973983806030     Delta-E=       -0.000000000000 Rises=F Damp=F
 DIIS: error= 9.46D-09 at cycle  12 NSaved=  12.
 NSaved=12 IEnMin=12 EnMin=-0.136973983806030     IErMin=12 ErrMin= 9.46D-09
 ErrMax= 9.46D-09  0.00D+00 EMaxC= 1.00D-01 BMatC= 5.27D-15 BMatP= 8.06D-14
 IDIUse=1 WtCom= 1.00D+00 WtEn= 0.00D+00
 Coeff-Com:  0.184D-06-0.112D-05 0.111D-05-0.665D-05 0.719D-04-0.344D-03
 Coeff-Com:  0.455D-02-0.166D-01 0.736D-02 0.197D+00-0.845D+00 0.165D+01
 Coeff:      0.184D-06-0.112D-05 0.111D-05-0.665D-05 0.719D-04-0.344D-03
 Coeff:      0.455D-02-0.166D-01 0.736D-02 0.197D+00-0.845D+00 0.165D+01
 Gap=     0.372 Goal=   None    Shift=    0.000
 RMSDP=1.45D-08 MaxDP=8.88D-08 DE=-4.55D-13 OVMax= 1.01D-07

 Cycle  13  Pass 1  IDiag  3:
 E=-0.136973983806101     Delta-E=       -0.000000000000 Rises=F Damp=F
 DIIS: error= 1.67D-09 at cycle  13 NSaved=  13.
 NSaved=13 IEnMin=13 EnMin=-0.136973983806101     IErMin=13 ErrMin= 1.67D-09
 ErrMax= 1.67D-09  0.00D+00 EMaxC= 1.00D-01 BMatC= 1.79D-16 BMatP= 5.27D-15
 IDIUse=1 WtCom= 1.00D+00 WtEn= 0.00D+00
 Coeff-Com:  0.881D-08-0.179D-06 0.222D-05-0.531D-05-0.960D-05 0.107D-03
 Coeff-Com: -0.209D-02 0.799D-02-0.547D-02-0.862D-01 0.398D+00-0.885D+00
 Coeff-Com:  0.157D+01
 Coeff:      0.881D-08-0.179D-06 0.222D-05-0.531D-05-0.960D-05 0.107D-03
 Coeff:     -0.209D-02 0.799D-02-0.547D-02-0.862D-01 0.398D+00-0.885D+00
 Coeff:      0.157D+01
 Gap=     0.372 Goal=   None    Shift=    0.000
 RMSDP=2.50D-09 MaxDP=1.75D-08 DE=-7.11D-14 OVMax= 2.13D-08

 Cycle  14  Pass 2  IDiag  1:
 SCF Done:  E(RPM6) = -0.136973983806     A.U. after   14 cycles
            NFock= 13  Conv=0.25D-08     -V/T= 0.9979
 KE=-6.559711597378D+01 PE=-1.647720729518D+02 EE= 1.044519092559D+02
 Leave Link  502 at Tue Nov 28 15:28:23 2023, MaxMem=   134217728 cpu:               0.3 elap:               0.2
 (Enter /home/emanuele/chem_software/gaussian//gdv/l601.exe)
 Copying SCF densities to generalized density rwf, IOpCl= 0 IROHF=0.

 **********************************************************************

            Population analysis using the SCF Density.

 **********************************************************************

 Alpha  occ. eigenvalues --       -1.22033      -1.17650      -1.15177      -0.96585      -0.79048
 Alpha  occ. eigenvalues --       -0.69293      -0.65535      -0.63929      -0.58072      -0.56742
 Alpha  occ. eigenvalues --       -0.53691      -0.50561      -0.46483      -0.42332      -0.36139
 Alpha virt. eigenvalues --        0.01043       0.05109       0.09137       0.11428       0.13931
 Alpha virt. eigenvalues --        0.16361       0.16810       0.19059       0.21211       0.24502
          Condensed to atoms (all electrons):
               1          2          3          4          5          6
     1  C    3.389636   0.000000   0.000000   0.000000   0.000000   0.000000
     2  O    0.000000   6.491501   0.000000   0.000000   0.000000   0.000000
     3  C    0.000000   0.000000   4.256520   0.000000   0.000000   0.000000
     4  H    0.000000   0.000000   0.000000   0.847919   0.000000   0.000000
     5  H    0.000000   0.000000   0.000000   0.000000   0.808674   0.000000
     6  N    0.000000   0.000000   0.000000   0.000000   0.000000   5.485381
     7  H    0.000000   0.000000   0.000000   0.000000   0.000000   0.000000
     8  H    0.000000   0.000000   0.000000   0.000000   0.000000   0.000000
     9  O    0.000000   0.000000   0.000000   0.000000   0.000000   0.000000
    10  H    0.000000   0.000000   0.000000   0.000000   0.000000   0.000000
               7          8          9         10
     1  C    0.000000   0.000000   0.000000   0.000000
     2  O    0.000000   0.000000   0.000000   0.000000
     3  C    0.000000   0.000000   0.000000   0.000000
     4  H    0.000000   0.000000   0.000000   0.000000
     5  H    0.000000   0.000000   0.000000   0.000000
     6  N    0.000000   0.000000   0.000000   0.000000
     7  H    0.770909   0.000000   0.000000   0.000000
     8  H    0.000000   0.782627   0.000000   0.000000
     9  O    0.000000   0.000000   6.501898   0.000000
    10  H    0.000000   0.000000   0.000000   0.664933
 Mulliken charges:
               1
     1  C    0.610364
     2  O   -0.491501
     3  C   -0.256520
     4  H    0.152081
     5  H    0.191326
     6  N   -0.485381
     7  H    0.229091
     8  H    0.217373
     9  O   -0.501898
    10  H    0.335067
 Sum of Mulliken charges =  -0.00000
 Mulliken charges with hydrogens summed into heavy atoms:
               1
     1  C    0.610364
     2  O   -0.156434
     3  C    0.086886
     6  N   -0.038918
     9  O   -0.501898
 Charge=             -0.0000 electrons
 Dipole moment (field-independent basis, Debye):
    X=             -0.0442    Y=             -1.7562    Z=              2.0287  Tot=              2.6836
 N-N= 1.257803056858D+02 E-N=-1.647720729272D+02  KE=-6.559711597378D+01
 Leave Link  601 at Tue Nov 28 15:28:23 2023, MaxMem=   134217728 cpu:               0.2 elap:               0.1
 (Enter /home/emanuele/chem_software/gaussian//gdv/l701.exe)
 ... and contract with generalized density number  0.
 Compute integral first derivatives.
 Leave Link  701 at Tue Nov 28 15:28:23 2023, MaxMem=   134217728 cpu:               0.3 elap:               0.1
 (Enter /home/emanuele/chem_software/gaussian//gdv/l702.exe)
 L702 exits ... SP integral derivatives will be done elsewhere.
 Leave Link  702 at Tue Nov 28 15:28:23 2023, MaxMem=   134217728 cpu:               0.1 elap:               0.0
 (Enter /home/emanuele/chem_software/gaussian//gdv/l703.exe)
 Integral derivatives from FoFJK, PRISM(SPDF).
 Compute integral first derivatives, UseDBF=F ICtDFT=           0.
 Calling FoFJK, ICntrl=      2127 FMM=F ISym2X=0 I1Cent= 0 IOpClX= 0 NMat=1 NMatS=1 NMatT=0.
 FoFJK:  IHMeth=40 ICntrl=    2127 DoSepK=F KAlg= 0 I1Cent=           0 FoldK=F
 IRaf=         0 NMat=       1 IRICut=       1 DoRegI=T DoRafI=F ISym2E= 0 IDoP0=3 IntGTp=3.
 FoFCou: FMM=F IPFlag=           0 FMFlag=      100000 FMFlg1=         800
         NFxFlg=           0 DoJE=F BraDBF=F KetDBF=F FulRan=T
         wScrn=  0.000000 ICntrl=      2127 IOpCl=  0 I1Cent=           0 NGrid=           0
         NMat0=    1 NMatS0=      1 NMatT0=    0 NMatD0=    1 NMtDS0=    0 NMtDT0=    0
 Symmetry not used in FoFCou.
 Leave Link  703 at Tue Nov 28 15:28:24 2023, MaxMem=   134217728 cpu:               0.2 elap:               0.1
 (Enter /home/emanuele/chem_software/gaussian//gdv/l716.exe)
 Dipole        =-1.73953341D-02-6.90951364D-01 7.98140051D-01
 -------------------------------------------------------------------
 Center     Atomic                   Forces (Hartrees/Bohr)
 Number     Number              X              Y              Z
 -------------------------------------------------------------------
      1        6           0.029519480    0.004598071   -0.001501695
      2        8          -0.002629323   -0.006351354    0.000288808
      3        6          -0.021332520   -0.010188111    0.011815132
      4        1           0.002225947   -0.007671509    0.009764009
      5        1           0.003016531   -0.011675785   -0.010628727
      6        7           0.018023015    0.011316189   -0.011554417
      7        1           0.003069768    0.006682372    0.000517805
      8        1           0.002494252   -0.001031591    0.002148452
      9        8          -0.009778131    0.012789983    0.001092432
     10        1          -0.024609020    0.001531735   -0.001941798
 -------------------------------------------------------------------
 Cartesian Forces:  Max     0.029519480 RMS     0.010928384
 Leave Link  716 at Tue Nov 28 15:28:24 2023, MaxMem=   134217728 cpu:               0.2 elap:               0.1
 (Enter /home/emanuele/chem_software/gaussian//gdv/l103.exe)

 GradGradGradGradGradGradGradGradGradGradGradGradGradGradGradGradGradGrad
 Berny optimization.
 FormGI is forming the generalized inverse of G from B-inverse, IUseBI=4.
 Internal  Forces:  Max     0.030263752 RMS     0.010202630
 Search for a local minimum.
 Step number   1 out of a maximum of  100 on scan point     1 out of    11
 All quantities printed in internal units (Hartrees-Bohrs-Radians)
 RMS Force = .10329D-01 SwitMx=.10000D-02 MixMth= 1
 Mixed Optimization -- RFO/linear search
 Second derivative matrix not updated -- first step.
 ITU=  0
     Eigenvalues ---    0.00871   0.01007   0.02341   0.03963   0.04206
     Eigenvalues ---    0.06481   0.09826   0.12345   0.16000   0.16000
     Eigenvalues ---    0.16000   0.21889   0.24991   0.25000   0.31403
     Eigenvalues ---    0.33602   0.34582   0.38010   0.45526   0.45961
     Eigenvalues ---    0.53825   0.54828   1.033731000.000001000.00000
     Eigenvalues --- 1000.000001000.000001000.000001000.000001000.00000
     Eigenvalues --- 1000.000001000.000001000.000001000.000001000.00000
     Eigenvalues --- 1000.00000
 RFO step:  Lambda=-1.18246833D-02 EMin= 8.70697181D-03
 Linear search not attempted -- first point.
 Iteration  1 RMS(Cart)=  0.06806576 RMS(Int)=  0.00331118
 Iteration  2 RMS(Cart)=  0.00320694 RMS(Int)=  0.00028701
 Iteration  3 RMS(Cart)=  0.00001501 RMS(Int)=  0.00028685
 Iteration  4 RMS(Cart)=  0.00000000 RMS(Int)=  0.00028685
 Fixing frozen coordinates.
 Iteration  1 RMS(Cart)=  0.00001807 RMS(Int)=  0.00001305
 Iteration  2 RMS(Cart)=  0.00001004 RMS(Int)=  0.00001457
 Iteration  3 RMS(Cart)=  0.00000558 RMS(Int)=  0.00001649
 Iteration  4 RMS(Cart)=  0.00000310 RMS(Int)=  0.00001779
 Iteration  5 RMS(Cart)=  0.00000173 RMS(Int)=  0.00001856
 Iteration  6 RMS(Cart)=  0.00000096 RMS(Int)=  0.00001901
 ITry= 1 IFail=0 DXMaxC= 2.30D-01 DCOld= 1.00D+10 DXMaxT= 3.00D-01 DXLimC= 3.00D+00 Rises=F
 Variable       Old X    -DE/DX   Delta X   Delta X   Delta X     New X
                                 (Linear)    (Quad)   (Total)
    R1        2.55286   0.02505   0.00000   0.04473   0.04473   2.59759
    R2        2.85250   0.01324   0.00000   0.04063   0.04063   2.89312
    R3        2.27318   0.01321   0.00000   0.01263   0.01263   2.28581
    R4        1.82891   0.02050   0.00000   0.03726   0.03726   1.86617
    R5        2.08006   0.01200   0.00000   0.03449   0.03449   2.11455
    R6        2.06359   0.01550   0.00000   0.04334   0.04334   2.10693
    R7        2.74351   0.03026   0.00000   0.07722   0.07722   2.82072
    R8        1.91369   0.00597   0.00000   0.01278   0.01278   1.92647
    R9        1.90876   0.00335   0.00000   0.00711   0.00711   1.91587
    A1        1.94980  -0.00359   0.00000  -0.01412  -0.01438   1.93542
    A2        2.14707  -0.00860   0.00000  -0.03335  -0.03357   2.11350
    A3        2.18583   0.01219   0.00000   0.04619   0.04588   2.23171
    A4        1.87144   0.02526   0.00000   0.14702   0.14702   2.01846
    A5        1.83958   0.00243   0.00000   0.03121   0.03096   1.87054
    A6        1.89148   0.00261   0.00000   0.01652   0.01642   1.90790
    A7        1.93046   0.00003   0.00000   0.00391   0.00379   1.93425
    A8        1.85394  -0.00055   0.00000  -0.01023  -0.01075   1.84319
    A9        2.00477   0.00048   0.00000   0.00341   0.00303   2.00779
   A10        1.93745  -0.00453   0.00000  -0.04084  -0.04095   1.89650
   A11        1.91981   0.00706   0.00000   0.04375   0.04368   1.96349
   A12        1.94466  -0.00170   0.00000  -0.00730  -0.00736   1.93729
   A13        1.89587  -0.00228   0.00000  -0.00829  -0.00841   1.88746
    D1        3.09264   0.00086   0.00000   0.00166   0.00258   3.09521
    D2       -0.01720   0.00071   0.00000   0.04274   0.04182   0.02461
    D3       -1.25365  -0.00021   0.00000   0.02673   0.02697  -1.22668
    D4        0.72522   0.00150   0.00000   0.03738   0.03774   0.76296
    D5        2.85281  -0.00239   0.00000   0.00000   0.00000   2.85281
    D6        1.85534  -0.00051   0.00000  -0.01721  -0.01746   1.83789
    D7       -2.44897   0.00119   0.00000  -0.00657  -0.00668  -2.45565
    D8       -0.32138  -0.00270   0.00000  -0.04395  -0.04442  -0.36580
    D9        0.60481   0.00046   0.00000  -0.00112  -0.00116   0.60366
   D10        2.70830   0.00122   0.00000   0.01300   0.01302   2.72132
   D11       -1.47459  -0.00306   0.00000  -0.04692  -0.04684  -1.52143
   D12        0.62890  -0.00230   0.00000  -0.03280  -0.03266   0.59623
   D13        2.70515   0.00077   0.00000  -0.00470  -0.00483   2.70032
   D14       -1.47455   0.00153   0.00000   0.00942   0.00935  -1.46519
         Item               Value     Threshold  Converged?
 Maximum Force            0.030264     0.000450     NO 
 RMS     Force            0.010329     0.000300     NO 
 Maximum Displacement     0.229542     0.001800     NO 
 RMS     Displacement     0.068502     0.001200     NO 
 Predicted change in Energy=-6.235448D-03
 Lowest energy point so far.  Saving SCF results.
 GradGradGradGradGradGradGradGradGradGradGradGradGradGradGradGradGradGrad

 Leave Link  103 at Tue Nov 28 15:28:24 2023, MaxMem=   134217728 cpu:               0.1 elap:               0.0
 (Enter /home/emanuele/chem_software/gaussian//gdv/l202.exe)
                          Input orientation:                          
 ---------------------------------------------------------------------
 Center     Atomic      Atomic             Coordinates (Angstroms)
 Number     Number       Type             X           Y           Z
 ---------------------------------------------------------------------
      1          6           0       -0.543741    0.142700    0.011774
      2          8           0       -1.664655   -0.649184   -0.065385
      3          6           0        0.721979   -0.711789    0.119883
      4          1           0        0.716575   -1.183392    1.134604
      5          1           0        0.659087   -1.557283   -0.604186
      6          7           0        1.936603    0.096870   -0.194445
      7          1           0        1.853533    1.063464    0.118710
      8          1           0        2.761890   -0.304709    0.236251
      9          8           0       -0.632690    1.347887    0.064137
     10          1           0       -2.526556   -0.168151   -0.096392
 ---------------------------------------------------------------------
                    Distance matrix (angstroms):
                    1          2          3          4          5
     1  C    0.000000
     2  O    1.374584   0.000000
     3  C    1.530975   2.394633   0.000000
     4  H    2.146546   2.719487   1.118972   0.000000
     5  H    2.171668   2.552396   1.114940   1.779464   0.000000
     6  N    2.489324   3.679989   1.492663   2.212219   2.129826
     7  H    2.570246   3.917232   2.105217   2.715341   2.969444
     8  H    3.343315   4.450162   2.083384   2.400507   2.587867
     9  O    1.209599   2.251670   2.465867   3.061664   3.248901
    10  H    2.009947   0.987536   3.300803   3.614411   3.512245
                    6          7          8          9         10
     6  N    0.000000
     7  H    1.019446   0.000000
     8  H    1.013836   1.646458   0.000000
     9  O    2.869351   2.503034   3.779400   0.000000
    10  H    4.472096   4.555034   5.300656   2.431228   0.000000
 Symmetry turned off by external request.
 Stoichiometry    C2H5NO2
 Framework group  C1[X(C2H5NO2)]
 Deg. of freedom    24
 Full point group                 C1      NOp   1
 Rotational constants (GHZ):          10.1575038           3.7726216           2.8295728
 Leave Link  202 at Tue Nov 28 15:28:24 2023, MaxMem=   134217728 cpu:               0.1 elap:               0.0
 (Enter /home/emanuele/chem_software/gaussian//gdv/l301.exe)
 Standard basis: VSTO-6G (5D, 7F)
 Ernie: Thresh=  0.10000D-02 Tol=  0.10000D-05 Strict=F.
  NNHCO=     0 NNPyr=     0 NCTC=     0               EPep=         0.000000000
    EC=        82.768645410  ECS=         2.132584818   EG=         0.120835684
   EHC=         0.000970209  EAt=       -38.066560349  AtH=         1.329713788
 EPDDG=         0.000000000  ECC=        85.023036122 EAtT=        39.396274136
    25 basis functions,   150 primitive gaussians,    25 cartesian basis functions
    15 alpha electrons       15 beta electrons
       nuclear repulsion energy       124.4193102585 Hartrees.
 IExCor=       0 DFT=F Ex=HF Corr=None N6=None ScaHFX=  1.000000
 ScaDFX=  1.000000  1.000000  1.000000  1.000000  1.000000  0.000000
 ScaDFX=  0.000000  0.000000  0.000000  0.000000  0.000000  0.000000
 IRadAn=      5 IRanWt=     -1 IRanGd=            0 ICorTp=0 IEmpDi=  4
 Integral buffers will be    131072 words long.
 Regular integral format.
 Two-electron integral symmetry is turned off.
 Leave Link  301 at Tue Nov 28 15:28:24 2023, MaxMem=   134217728 cpu:               0.2 elap:               0.1
 (Enter /home/emanuele/chem_software/gaussian//gdv/l302.exe)
 Do NDO integrals.
 NPDir=0 NMtPBC=     1 NCelOv=     1 NCel=       1 NClECP=     1 NCelD=      1
         NCelK=      1 NCelE2=     1 NClLst=     1 CellRange=     0.0.
 One-electron integrals computed using PRISM.
 NBasis=    25 RedAO= F EigKep=  0.00D+00  NBF=    25
 NBsUse=    25 1.00D-04 EigRej=  0.00D+00 NBFU=    25
 Leave Link  302 at Tue Nov 28 15:28:24 2023, MaxMem=   134217728 cpu:               0.3 elap:               0.1
 (Enter /home/emanuele/chem_software/gaussian//gdv/l303.exe)
 DipDrv:  MaxL=1.
 Leave Link  303 at Tue Nov 28 15:28:24 2023, MaxMem=   134217728 cpu:               0.2 elap:               0.0
 (Enter /home/emanuele/chem_software/gaussian//gdv/l401.exe)
 Initial guess from the checkpoint file:  "2_qm.chk"
 B after Tr=     0.000000    0.000000    0.000000
         Rot=    1.000000    0.000000    0.000000    0.000000 Ang=   0.00 deg.
 AO Guess basis will be translated and rotated to current coordinates.
 JPrj=0 DoOrth=T DoCkMO=T.
 Leave Link  401 at Tue Nov 28 15:28:24 2023, MaxMem=   134217728 cpu:               0.8 elap:               0.2
 (Enter /home/emanuele/chem_software/gaussian//gdv/l502.exe)
 Keep J ints in memory in canonical form, NReq=861126.
 FoFCou: FMM=F IPFlag=           0 FMFlag=           0 FMFlg1=           0
         NFxFlg=           0 DoJE=F BraDBF=F KetDBF=F FulRan=T
         wScrn=  0.000000 ICntrl=       600 IOpCl=  2 I1Cent=           0 NGrid=           0
         NMat0=    1 NMatS0=     55 NMatT0=    0 NMatD0=    1 NMtDS0=    0 NMtDT0=    0
 Symmetry not used in FoFCou.
 Two-electron integral symmetry not used.
 Closed shell SCF:
 Using DIIS extrapolation, IDIIS=  1040.
 Overlap will be assumed to be unity.
 NGot=   134217728 LenX=   134155015 LenY=   134153949
 Requested convergence on RMS density matrix=1.00D-08 within 128 cycles.
 Requested convergence on MAX density matrix=1.00D-06.
 Requested convergence on             energy=1.00D-06.
 No special actions if energy rises.

 Cycle   1  Pass 1  IDiag  1:
 E=-0.135414982198668    
 DIIS: error= 7.30D-03 at cycle   1 NSaved=   1.
 NSaved= 1 IEnMin= 1 EnMin=-0.135414982198668     IErMin= 1 ErrMin= 7.30D-03
 ErrMax= 7.30D-03  0.00D+00 EMaxC= 1.00D-01 BMatC= 1.62D-03 BMatP= 1.62D-03
 IDIUse=3 WtCom= 9.27D-01 WtEn= 7.30D-02
 Coeff-Com:  0.100D+01
 Coeff-En:   0.100D+01
 Coeff:      0.100D+01
 GapD=    2.000 DampG=2.000 DampE=1.000 DampFc=2.0000 IDamp=-1.
 RMSDP=2.70D-03 MaxDP=1.92D-02              OVMax= 0.00D+00

 Cycle   2  Pass 1  IDiag  3:
 E=-0.140374367493692     Delta-E=       -0.004959385295 Rises=F Damp=F
 DIIS: error= 2.56D-03 at cycle   2 NSaved=   2.
 NSaved= 2 IEnMin= 2 EnMin=-0.140374367493692     IErMin= 2 ErrMin= 2.56D-03
 ErrMax= 2.56D-03  0.00D+00 EMaxC= 1.00D-01 BMatC= 1.91D-04 BMatP= 1.62D-03
 IDIUse=3 WtCom= 9.74D-01 WtEn= 2.56D-02
 Coeff-Com: -0.438D+00 0.144D+01
 Coeff-En:   0.000D+00 0.100D+01
 Coeff:     -0.427D+00 0.143D+01
 Gap=     0.375 Goal=   None    Shift=    0.000
 RMSDP=1.48D-03 MaxDP=1.14D-02 DE=-4.96D-03 OVMax= 9.25D-03

 Cycle   3  Pass 1  IDiag  3:
 E=-0.141179772097544     Delta-E=       -0.000805404604 Rises=F Damp=F
 DIIS: error= 3.49D-04 at cycle   3 NSaved=   3.
 NSaved= 3 IEnMin= 3 EnMin=-0.141179772097544     IErMin= 3 ErrMin= 3.49D-04
 ErrMax= 3.49D-04  0.00D+00 EMaxC= 1.00D-01 BMatC= 6.22D-06 BMatP= 1.91D-04
 IDIUse=3 WtCom= 9.97D-01 WtEn= 3.49D-03
 Coeff-Com:  0.145D+00-0.574D+00 0.143D+01
 Coeff-En:   0.000D+00 0.000D+00 0.100D+01
 Coeff:      0.145D+00-0.572D+00 0.143D+01
 Gap=     0.375 Goal=   None    Shift=    0.000
 RMSDP=3.35D-04 MaxDP=2.43D-03 DE=-8.05D-04 OVMax= 2.33D-03

 Cycle   4  Pass 1  IDiag  3:
 E=-0.141212775696303     Delta-E=       -0.000033003599 Rises=F Damp=F
 DIIS: error= 7.58D-05 at cycle   4 NSaved=   4.
 NSaved= 4 IEnMin= 4 EnMin=-0.141212775696303     IErMin= 4 ErrMin= 7.58D-05
 ErrMax= 7.58D-05  0.00D+00 EMaxC= 1.00D-01 BMatC= 2.65D-07 BMatP= 6.22D-06
 IDIUse=1 WtCom= 1.00D+00 WtEn= 0.00D+00
 Coeff-Com: -0.245D-01 0.110D+00-0.426D+00 0.134D+01
 Coeff:     -0.245D-01 0.110D+00-0.426D+00 0.134D+01
 Gap=     0.375 Goal=   None    Shift=    0.000
 RMSDP=7.28D-05 MaxDP=4.76D-04 DE=-3.30D-05 OVMax= 4.58D-04

 Cycle   5  Pass 1  IDiag  3:
 E=-0.141214364262495     Delta-E=       -0.000001588566 Rises=F Damp=F
 DIIS: error= 1.89D-05 at cycle   5 NSaved=   5.
 NSaved= 5 IEnMin= 5 EnMin=-0.141214364262495     IErMin= 5 ErrMin= 1.89D-05
 ErrMax= 1.89D-05  0.00D+00 EMaxC= 1.00D-01 BMatC= 2.42D-08 BMatP= 2.65D-07
 IDIUse=1 WtCom= 1.00D+00 WtEn= 0.00D+00
 Coeff-Com:  0.163D-02-0.115D-01 0.959D-01-0.633D+00 0.155D+01
 Coeff:      0.163D-02-0.115D-01 0.959D-01-0.633D+00 0.155D+01
 Gap=     0.375 Goal=   None    Shift=    0.000
 RMSDP=2.70D-05 MaxDP=1.86D-04 DE=-1.59D-06 OVMax= 1.78D-04

 Cycle   6  Pass 1  IDiag  3:
 E=-0.141214528477221     Delta-E=       -0.000000164215 Rises=F Damp=F
 DIIS: error= 5.64D-06 at cycle   6 NSaved=   6.
 NSaved= 6 IEnMin= 6 EnMin=-0.141214528477221     IErMin= 6 ErrMin= 5.64D-06
 ErrMax= 5.64D-06  0.00D+00 EMaxC= 1.00D-01 BMatC= 1.13D-09 BMatP= 2.42D-08
 IDIUse=1 WtCom= 1.00D+00 WtEn= 0.00D+00
 Coeff-Com:  0.442D-03 0.631D-03-0.330D-01 0.290D+00-0.867D+00 0.161D+01
 Coeff:      0.442D-03 0.631D-03-0.330D-01 0.290D+00-0.867D+00 0.161D+01
 Gap=     0.375 Goal=   None    Shift=    0.000
 RMSDP=5.98D-06 MaxDP=3.45D-05 DE=-1.64D-07 OVMax= 3.38D-05

 Cycle   7  Pass 1  IDiag  3:
 E=-0.141214536151310     Delta-E=       -0.000000007674 Rises=F Damp=F
 DIIS: error= 1.26D-06 at cycle   7 NSaved=   7.
 NSaved= 7 IEnMin= 7 EnMin=-0.141214536151310     IErMin= 7 ErrMin= 1.26D-06
 ErrMax= 1.26D-06  0.00D+00 EMaxC= 1.00D-01 BMatC= 4.93D-11 BMatP= 1.13D-09
 IDIUse=1 WtCom= 1.00D+00 WtEn= 0.00D+00
 Coeff-Com: -0.329D-03 0.466D-04 0.161D-01-0.149D+00 0.457D+00-0.965D+00
 Coeff-Com:  0.164D+01
 Coeff:     -0.329D-03 0.466D-04 0.161D-01-0.149D+00 0.457D+00-0.965D+00
 Coeff:      0.164D+01
 Gap=     0.375 Goal=   None    Shift=    0.000
 RMSDP=1.22D-06 MaxDP=8.53D-06 DE=-7.67D-09 OVMax= 7.82D-06

 Cycle   8  Pass 1  IDiag  3:
 E=-0.141214536480121     Delta-E=       -0.000000000329 Rises=F Damp=F
 DIIS: error= 1.98D-07 at cycle   8 NSaved=   8.
 NSaved= 8 IEnMin= 8 EnMin=-0.141214536480121     IErMin= 8 ErrMin= 1.98D-07
 ErrMax= 1.98D-07  0.00D+00 EMaxC= 1.00D-01 BMatC= 2.28D-12 BMatP= 4.93D-11
 IDIUse=1 WtCom= 1.00D+00 WtEn= 0.00D+00
 Coeff-Com:  0.121D-03 0.851D-04-0.754D-02 0.685D-01-0.210D+00 0.454D+00
 Coeff-Com: -0.901D+00 0.160D+01
 Coeff:      0.121D-03 0.851D-04-0.754D-02 0.685D-01-0.210D+00 0.454D+00
 Coeff:     -0.901D+00 0.160D+01
 Gap=     0.375 Goal=   None    Shift=    0.000
 RMSDP=2.54D-07 MaxDP=1.66D-06 DE=-3.29D-10 OVMax= 1.70D-06

 Cycle   9  Pass 1  IDiag  3:
 E=-0.141214536495312     Delta-E=       -0.000000000015 Rises=F Damp=F
 DIIS: error= 3.93D-08 at cycle   9 NSaved=   9.
 NSaved= 9 IEnMin= 9 EnMin=-0.141214536495312     IErMin= 9 ErrMin= 3.93D-08
 ErrMax= 3.93D-08  0.00D+00 EMaxC= 1.00D-01 BMatC= 1.25D-13 BMatP= 2.28D-12
 IDIUse=1 WtCom= 1.00D+00 WtEn= 0.00D+00
 Coeff-Com: -0.565D-04-0.541D-04 0.373D-02-0.337D-01 0.103D+00-0.224D+00
 Coeff-Com:  0.453D+00-0.935D+00 0.163D+01
 Coeff:     -0.565D-04-0.541D-04 0.373D-02-0.337D-01 0.103D+00-0.224D+00
 Coeff:      0.453D+00-0.935D+00 0.163D+01
 Gap=     0.375 Goal=   None    Shift=    0.000
 RMSDP=6.30D-08 MaxDP=3.87D-07 DE=-1.52D-11 OVMax= 5.87D-07

 Cycle  10  Pass 1  IDiag  3:
 E=-0.141214536496150     Delta-E=       -0.000000000001 Rises=F Damp=F
 DIIS: error= 9.36D-09 at cycle  10 NSaved=  10.
 NSaved=10 IEnMin=10 EnMin=-0.141214536496150     IErMin=10 ErrMin= 9.36D-09
 ErrMax= 9.36D-09  0.00D+00 EMaxC= 1.00D-01 BMatC= 5.63D-15 BMatP= 1.25D-13
 IDIUse=1 WtCom= 1.00D+00 WtEn= 0.00D+00
 Coeff-Com:  0.187D-04 0.204D-04-0.127D-02 0.115D-01-0.352D-01 0.765D-01
 Coeff-Com: -0.155D+00 0.327D+00-0.720D+00 0.150D+01
 Coeff:      0.187D-04 0.204D-04-0.127D-02 0.115D-01-0.352D-01 0.765D-01
 Coeff:     -0.155D+00 0.327D+00-0.720D+00 0.150D+01
 Gap=     0.375 Goal=   None    Shift=    0.000
 RMSDP=1.35D-08 MaxDP=8.64D-08 DE=-8.38D-13 OVMax= 1.12D-07

 Cycle  11  Pass 1  IDiag  3:
 E=-0.141214536496165     Delta-E=       -0.000000000000 Rises=F Damp=F
 DIIS: error= 1.68D-09 at cycle  11 NSaved=  11.
 NSaved=11 IEnMin=11 EnMin=-0.141214536496165     IErMin=11 ErrMin= 1.68D-09
 ErrMax= 1.68D-09  0.00D+00 EMaxC= 1.00D-01 BMatC= 1.51D-16 BMatP= 5.63D-15
 IDIUse=1 WtCom= 1.00D+00 WtEn= 0.00D+00
 Coeff-Com: -0.347D-05-0.508D-05 0.258D-03-0.231D-02 0.707D-02-0.154D-01
 Coeff-Com:  0.310D-01-0.646D-01 0.155D+00-0.430D+00 0.132D+01
 Coeff:     -0.347D-05-0.508D-05 0.258D-03-0.231D-02 0.707D-02-0.154D-01
 Coeff:      0.310D-01-0.646D-01 0.155D+00-0.430D+00 0.132D+01
 Gap=     0.375 Goal=   None    Shift=    0.000
 RMSDP=1.81D-09 MaxDP=9.77D-09 DE=-1.42D-14 OVMax= 1.33D-08

 Cycle  12  Pass 2  IDiag  1:
 SCF Done:  E(RPM6) = -0.141214536496     A.U. after   12 cycles
            NFock= 11  Conv=0.18D-08     -V/T= 0.9978
 KE=-6.556220476805D+01 PE=-1.623632782358D+02 EE= 1.033649582088D+02
 Leave Link  502 at Tue Nov 28 15:28:24 2023, MaxMem=   134217728 cpu:               0.2 elap:               0.1
 (Enter /home/emanuele/chem_software/gaussian//gdv/l701.exe)
 ... and contract with generalized density number  0.
 Compute integral first derivatives.
 Leave Link  701 at Tue Nov 28 15:28:24 2023, MaxMem=   134217728 cpu:               0.2 elap:               0.1
 (Enter /home/emanuele/chem_software/gaussian//gdv/l702.exe)
 L702 exits ... SP integral derivatives will be done elsewhere.
 Leave Link  702 at Tue Nov 28 15:28:24 2023, MaxMem=   134217728 cpu:               0.1 elap:               0.0
 (Enter /home/emanuele/chem_software/gaussian//gdv/l703.exe)
 Integral derivatives from FoFJK, PRISM(SPDF).
 Compute integral first derivatives, UseDBF=F ICtDFT=           0.
 Calling FoFJK, ICntrl=      2127 FMM=F ISym2X=0 I1Cent= 0 IOpClX= 0 NMat=1 NMatS=1 NMatT=0.
 FoFJK:  IHMeth=40 ICntrl=    2127 DoSepK=F KAlg= 0 I1Cent=           0 FoldK=F
 IRaf=         0 NMat=       1 IRICut=       1 DoRegI=T DoRafI=F ISym2E= 0 IDoP0=3 IntGTp=3.
 FoFCou: FMM=F IPFlag=           0 FMFlag=      100000 FMFlg1=         800
         NFxFlg=           0 DoJE=F BraDBF=F KetDBF=F FulRan=T
         wScrn=  0.000000 ICntrl=      2127 IOpCl=  0 I1Cent=           0 NGrid=           0
         NMat0=    1 NMatS0=      1 NMatT0=    0 NMatD0=    1 NMtDS0=    0 NMtDT0=    0
 Symmetry not used in FoFCou.
 Leave Link  703 at Tue Nov 28 15:28:24 2023, MaxMem=   134217728 cpu:               0.2 elap:               0.1
 (Enter /home/emanuele/chem_software/gaussian//gdv/l716.exe)
 Dipole        = 5.01198136D-02-7.16601155D-01 7.58129700D-01
 -------------------------------------------------------------------
 Center     Atomic                   Forces (Hartrees/Bohr)
 Number     Number              X              Y              Z
 -------------------------------------------------------------------
      1        6           0.009233654    0.005498259    0.003843671
      2        8           0.007174428   -0.004964258   -0.000469660
      3        6          -0.008808934    0.006825809    0.003488383
      4        1           0.001292146    0.001198865   -0.001405562
      5        1           0.001298554   -0.000125036   -0.002313186
      6        7          -0.005236644   -0.003157754   -0.004502326
      7        1          -0.002694940   -0.001815427    0.001080656
      8        1          -0.001515812   -0.000791885    0.001997729
      9        8          -0.002493329   -0.006991759   -0.001345531
     10        1           0.001750878    0.004323186   -0.000374174
 -------------------------------------------------------------------
 Cartesian Forces:  Max     0.009233654 RMS     0.004123950
 Leave Link  716 at Tue Nov 28 15:28:25 2023, MaxMem=   134217728 cpu:               0.2 elap:               0.0
 (Enter /home/emanuele/chem_software/gaussian//gdv/l103.exe)

 GradGradGradGradGradGradGradGradGradGradGradGradGradGradGradGradGradGrad
 Berny optimization.
 Using GEDIIS/GDIIS optimizer.
 FormGI is forming the generalized inverse of G from B-inverse, IUseBI=4.
 Internal  Forces:  Max     0.014259613 RMS     0.004284329
 Search for a local minimum.
 Step number   2 out of a maximum of  100 on scan point     1 out of    11
 All quantities printed in internal units (Hartrees-Bohrs-Radians)
 RMS Force = .43232D-02 SwitMx=.10000D-02 MixMth= 1
 Mixed Optimization -- RFO/linear search
 Update second derivatives using D2CorX and points    1    2
 DE= -4.24D-03 DEPred=-6.24D-03 R= 6.80D-01
 TightC=F SS=  1.41D+00  RLast= 2.33D-01 DXNew= 5.0454D-01 6.9937D-01
 Trust test= 6.80D-01 RLast= 2.33D-01 DXMaxT set to 5.05D-01
 ITU=  1  0
 Use linear search instead of GDIIS.
     Eigenvalues ---    0.00865   0.01005   0.02336   0.03878   0.04053
     Eigenvalues ---    0.06569   0.09593   0.12421   0.15721   0.16000
     Eigenvalues ---    0.17999   0.21883   0.23220   0.25168   0.32145
     Eigenvalues ---    0.33940   0.34567   0.43613   0.45783   0.46006
     Eigenvalues ---    0.53212   0.58233   1.049421000.000001000.00000
     Eigenvalues --- 1000.000001000.000001000.000001000.000001000.00000
     Eigenvalues --- 1000.000001000.000001000.000001000.000001000.00000
     Eigenvalues --- 1000.00000
 RFO step:  Lambda=-1.28061206D-03 EMin= 8.64837267D-03
 Quartic linear search produced a step of -0.20953.
 Iteration  1 RMS(Cart)=  0.02828684 RMS(Int)=  0.00054318
 Iteration  2 RMS(Cart)=  0.00052666 RMS(Int)=  0.00027375
 Iteration  3 RMS(Cart)=  0.00000024 RMS(Int)=  0.00027375
 Fixing frozen coordinates.
 Iteration  1 RMS(Cart)=  0.00002223 RMS(Int)=  0.00001600
 Iteration  2 RMS(Cart)=  0.00001232 RMS(Int)=  0.00001787
 Iteration  3 RMS(Cart)=  0.00000683 RMS(Int)=  0.00002022
 Iteration  4 RMS(Cart)=  0.00000378 RMS(Int)=  0.00002179
 Iteration  5 RMS(Cart)=  0.00000210 RMS(Int)=  0.00002274
 Iteration  6 RMS(Cart)=  0.00000116 RMS(Int)=  0.00002328
 Iteration  7 RMS(Cart)=  0.00000064 RMS(Int)=  0.00002358
 ITry= 1 IFail=0 DXMaxC= 8.31D-02 DCOld= 1.00D+10 DXMaxT= 5.05D-01 DXLimC= 3.00D+00 Rises=F
 Variable       Old X    -DE/DX   Delta X   Delta X   Delta X     New X
                                 (Linear)    (Quad)   (Total)
    R1        2.59759  -0.00686  -0.00937   0.00429  -0.00509   2.59250
    R2        2.89312  -0.01426  -0.00851  -0.02304  -0.03155   2.86157
    R3        2.28581  -0.00684  -0.00265  -0.00119  -0.00384   2.28197
    R4        1.86617   0.00059  -0.00781   0.01265   0.00484   1.87101
    R5        2.11455  -0.00179  -0.00723   0.00661  -0.00062   2.11393
    R6        2.10693   0.00152  -0.00908   0.01704   0.00796   2.11489
    R7        2.82072  -0.01051  -0.01618   0.00247  -0.01371   2.80701
    R8        1.92647  -0.00117  -0.00268   0.00201  -0.00067   1.92580
    R9        1.91587  -0.00007  -0.00149   0.00212   0.00063   1.91650
    A1        1.93542  -0.00629   0.00301  -0.02341  -0.02059   1.91483
    A2        2.11350  -0.00034   0.00703  -0.01070  -0.00388   2.10962
    A3        2.23171   0.00673  -0.00961   0.03627   0.02648   2.25819
    A4        2.01846  -0.00860  -0.03080   0.00250  -0.02830   1.99016
    A5        1.87054   0.00208  -0.00649   0.01778   0.01124   1.88178
    A6        1.90790   0.00202  -0.00344   0.01489   0.01132   1.91922
    A7        1.93425  -0.00414  -0.00079  -0.01645  -0.01724   1.91701
    A8        1.84319   0.00042   0.00225   0.00864   0.01087   1.85406
    A9        2.00779   0.00079  -0.00063  -0.00360  -0.00415   2.00364
   A10        1.89650  -0.00082   0.00858  -0.01861  -0.00993   1.88657
   A11        1.96349  -0.00484  -0.00915  -0.01929  -0.02892   1.93457
   A12        1.93729  -0.00287   0.00154  -0.02529  -0.02424   1.91305
   A13        1.88746   0.00243   0.00176  -0.00688  -0.00608   1.88138
    D1        3.09521   0.00130  -0.00054   0.03573   0.03463   3.12985
    D2        0.02461  -0.00034  -0.00876   0.00417  -0.00404   0.02058
    D3       -1.22668  -0.00201  -0.00565  -0.00301  -0.00885  -1.23553
    D4        0.76296   0.00057  -0.00791   0.02373   0.01579   0.77875
    D5        2.85281  -0.00172  -0.00000   0.00000  -0.00001   2.85281
    D6        1.83789  -0.00065   0.00366   0.02857   0.03227   1.87016
    D7       -2.45565   0.00193   0.00140   0.05530   0.05691  -2.39874
    D8       -0.36580  -0.00036   0.00931   0.03157   0.04112  -0.32468
    D9        0.60366   0.00105   0.00024   0.00084   0.00078   0.60443
   D10        2.72132  -0.00127  -0.00273  -0.03975  -0.04226   2.67906
   D11       -1.52143   0.00095   0.00982  -0.00719   0.00232  -1.51912
   D12        0.59623  -0.00136   0.00684  -0.04778  -0.04072   0.55551
   D13        2.70032   0.00049   0.00101  -0.00269  -0.00185   2.69847
   D14       -1.46519  -0.00182  -0.00196  -0.04328  -0.04489  -1.51009
         Item               Value     Threshold  Converged?
 Maximum Force            0.014260     0.000450     NO 
 RMS     Force            0.004323     0.000300     NO 
 Maximum Displacement     0.083140     0.001800     NO 
 RMS     Displacement     0.028542     0.001200     NO 
 Predicted change in Energy=-9.324048D-04
 Lowest energy point so far.  Saving SCF results.
 GradGradGradGradGradGradGradGradGradGradGradGradGradGradGradGradGradGrad

 Leave Link  103 at Tue Nov 28 15:28:25 2023, MaxMem=   134217728 cpu:               0.0 elap:               0.0
 (Enter /home/emanuele/chem_software/gaussian//gdv/l202.exe)
                          Input orientation:                          
 ---------------------------------------------------------------------
 Center     Atomic      Atomic             Coordinates (Angstroms)
 Number     Number       Type             X           Y           Z
 ---------------------------------------------------------------------
      1          6           0       -0.524779    0.145926    0.024606
      2          8           0       -1.638066   -0.652709   -0.045131
      3          6           0        0.716950   -0.715774    0.117453
      4          1           0        0.729507   -1.190056    1.130501
      5          1           0        0.655553   -1.555200   -0.620178
      6          7           0        1.918665    0.095324   -0.205715
      7          1           0        1.809538    1.052944    0.125342
      8          1           0        2.730750   -0.301108    0.254609
      9          8           0       -0.625405    1.349182    0.040917
     10          1           0       -2.490688   -0.152118   -0.097453
 ---------------------------------------------------------------------
                    Distance matrix (angstroms):
                    1          2          3          4          5
     1  C    0.000000
     2  O    1.371892   0.000000
     3  C    1.514278   2.361464   0.000000
     4  H    2.140347   2.697453   1.118646   0.000000
     5  H    2.168584   2.530979   1.119153   1.789882   0.000000
     6  N    2.454797   3.638087   1.485408   2.202675   2.119307
     7  H    2.506365   3.850231   2.078984   2.684746   2.947863
     8  H    3.294117   4.393178   2.060618   2.358472   2.577681
     9  O    1.207566   2.245095   2.464105   3.077451   3.242426
    10  H    1.992116   0.990097   3.263868   3.599282   3.484352
                    6          7          8          9         10
     6  N    0.000000
     7  H    1.019090   0.000000
     8  H    1.014169   1.642802   0.000000
     9  O    2.846977   2.454349   3.746050   0.000000
    10  H    4.417617   4.471437   5.235413   2.398401   0.000000
 Symmetry turned off by external request.
 Stoichiometry    C2H5NO2
 Framework group  C1[X(C2H5NO2)]
 Deg. of freedom    24
 Full point group                 C1      NOp   1
 Rotational constants (GHZ):          10.1227586           3.8676429           2.8795817
 Leave Link  202 at Tue Nov 28 15:28:25 2023, MaxMem=   134217728 cpu:               0.1 elap:               0.0
 (Enter /home/emanuele/chem_software/gaussian//gdv/l301.exe)
 Standard basis: VSTO-6G (5D, 7F)
 Ernie: Thresh=  0.10000D-02 Tol=  0.10000D-05 Strict=F.
  NNHCO=     0 NNPyr=     0 NCTC=     0               EPep=         0.000000000
    EC=        83.178886287  ECS=         2.150955031   EG=         0.122513591
   EHC=         0.000974407  EAt=       -38.066560349  AtH=         1.329713788
 EPDDG=         0.000000000  ECC=        85.453329315 EAtT=        39.396274136
    25 basis functions,   150 primitive gaussians,    25 cartesian basis functions
    15 alpha electrons       15 beta electrons
       nuclear repulsion energy       124.8496034519 Hartrees.
 IExCor=       0 DFT=F Ex=HF Corr=None N6=None ScaHFX=  1.000000
 ScaDFX=  1.000000  1.000000  1.000000  1.000000  1.000000  0.000000
 ScaDFX=  0.000000  0.000000  0.000000  0.000000  0.000000  0.000000
 IRadAn=      5 IRanWt=     -1 IRanGd=            0 ICorTp=0 IEmpDi=  4
 Integral buffers will be    131072 words long.
 Regular integral format.
 Two-electron integral symmetry is turned off.
 Leave Link  301 at Tue Nov 28 15:28:25 2023, MaxMem=   134217728 cpu:               0.2 elap:               0.1
 (Enter /home/emanuele/chem_software/gaussian//gdv/l302.exe)
 Do NDO integrals.
 NPDir=0 NMtPBC=     1 NCelOv=     1 NCel=       1 NClECP=     1 NCelD=      1
         NCelK=      1 NCelE2=     1 NClLst=     1 CellRange=     0.0.
 One-electron integrals computed using PRISM.
 NBasis=    25 RedAO= F EigKep=  0.00D+00  NBF=    25
 NBsUse=    25 1.00D-04 EigRej=  0.00D+00 NBFU=    25
 Leave Link  302 at Tue Nov 28 15:28:25 2023, MaxMem=   134217728 cpu:               0.3 elap:               0.1
 (Enter /home/emanuele/chem_software/gaussian//gdv/l303.exe)
 DipDrv:  MaxL=1.
 Leave Link  303 at Tue Nov 28 15:28:25 2023, MaxMem=   134217728 cpu:               0.1 elap:               0.0
 (Enter /home/emanuele/chem_software/gaussian//gdv/l401.exe)
 Initial guess from the checkpoint file:  "2_qm.chk"
 B after Tr=     0.000000    0.000000    0.000000
         Rot=    1.000000    0.000000    0.000000    0.000000 Ang=   0.00 deg.
 AO Guess basis will be translated and rotated to current coordinates.
 JPrj=0 DoOrth=T DoCkMO=T.
 Leave Link  401 at Tue Nov 28 15:28:25 2023, MaxMem=   134217728 cpu:               0.8 elap:               0.2
 (Enter /home/emanuele/chem_software/gaussian//gdv/l502.exe)
 Keep J ints in memory in canonical form, NReq=861126.
 FoFCou: FMM=F IPFlag=           0 FMFlag=           0 FMFlg1=           0
         NFxFlg=           0 DoJE=F BraDBF=F KetDBF=F FulRan=T
         wScrn=  0.000000 ICntrl=       600 IOpCl=  2 I1Cent=           0 NGrid=           0
         NMat0=    1 NMatS0=     55 NMatT0=    0 NMatD0=    1 NMtDS0=    0 NMtDT0=    0
 Symmetry not used in FoFCou.
 Two-electron integral symmetry not used.
 Closed shell SCF:
 Using DIIS extrapolation, IDIIS=  1040.
 Overlap will be assumed to be unity.
 NGot=   134217728 LenX=   134155015 LenY=   134153949
 Requested convergence on RMS density matrix=1.00D-08 within 128 cycles.
 Requested convergence on MAX density matrix=1.00D-06.
 Requested convergence on             energy=1.00D-06.
 No special actions if energy rises.

 Cycle   1  Pass 1  IDiag  1:
 E=-0.140571707070833    
 DIIS: error= 4.23D-03 at cycle   1 NSaved=   1.
 NSaved= 1 IEnMin= 1 EnMin=-0.140571707070833     IErMin= 1 ErrMin= 4.23D-03
 ErrMax= 4.23D-03  0.00D+00 EMaxC= 1.00D-01 BMatC= 4.15D-04 BMatP= 4.15D-04
 IDIUse=3 WtCom= 9.58D-01 WtEn= 4.23D-02
 Coeff-Com:  0.100D+01
 Coeff-En:   0.100D+01
 Coeff:      0.100D+01
 GapD=    2.000 DampG=2.000 DampE=1.000 DampFc=2.0000 IDamp=-1.
 RMSDP=1.45D-03 MaxDP=1.16D-02              OVMax= 0.00D+00

 Cycle   2  Pass 1  IDiag  3:
 E=-0.141957512437884     Delta-E=       -0.001385805367 Rises=F Damp=F
 DIIS: error= 1.72D-03 at cycle   2 NSaved=   2.
 NSaved= 2 IEnMin= 2 EnMin=-0.141957512437884     IErMin= 2 ErrMin= 1.72D-03
 ErrMax= 1.72D-03  0.00D+00 EMaxC= 1.00D-01 BMatC= 5.85D-05 BMatP= 4.15D-04
 IDIUse=3 WtCom= 9.83D-01 WtEn= 1.72D-02
 Coeff-Com: -0.531D+00 0.153D+01
 Coeff-En:   0.000D+00 0.100D+01
 Coeff:     -0.522D+00 0.152D+01
 Gap=     0.378 Goal=   None    Shift=    0.000
 RMSDP=9.46D-04 MaxDP=7.40D-03 DE=-1.39D-03 OVMax= 5.75D-03

 Cycle   3  Pass 1  IDiag  3:
 E=-0.142239421019539     Delta-E=       -0.000281908582 Rises=F Damp=F
 DIIS: error= 2.12D-04 at cycle   3 NSaved=   3.
 NSaved= 3 IEnMin= 3 EnMin=-0.142239421019539     IErMin= 3 ErrMin= 2.12D-04
 ErrMax= 2.12D-04  0.00D+00 EMaxC= 1.00D-01 BMatC= 1.68D-06 BMatP= 5.85D-05
 IDIUse=3 WtCom= 9.98D-01 WtEn= 2.12D-03
 Coeff-Com:  0.254D+00-0.820D+00 0.157D+01
 Coeff-En:   0.000D+00 0.000D+00 0.100D+01
 Coeff:      0.253D+00-0.819D+00 0.157D+01
 Gap=     0.378 Goal=   None    Shift=    0.000
 RMSDP=2.17D-04 MaxDP=1.22D-03 DE=-2.82D-04 OVMax= 1.73D-03

 Cycle   4  Pass 1  IDiag  3:
 E=-0.142250174101633     Delta-E=       -0.000010753082 Rises=F Damp=F
 DIIS: error= 3.69D-05 at cycle   4 NSaved=   4.
 NSaved= 4 IEnMin= 4 EnMin=-0.142250174101633     IErMin= 4 ErrMin= 3.69D-05
 ErrMax= 3.69D-05  0.00D+00 EMaxC= 1.00D-01 BMatC= 5.94D-08 BMatP= 1.68D-06
 IDIUse=1 WtCom= 1.00D+00 WtEn= 0.00D+00
 Coeff-Com: -0.153D+00 0.501D+00-0.103D+01 0.168D+01
 Coeff:     -0.153D+00 0.501D+00-0.103D+01 0.168D+01
 Gap=     0.378 Goal=   None    Shift=    0.000
 RMSDP=4.26D-05 MaxDP=2.33D-04 DE=-1.08D-05 OVMax= 2.60D-04

 Cycle   5  Pass 1  IDiag  3:
 E=-0.142250579973734     Delta-E=       -0.000000405872 Rises=F Damp=F
 DIIS: error= 9.62D-06 at cycle   5 NSaved=   5.
 NSaved= 5 IEnMin= 5 EnMin=-0.142250579973734     IErMin= 5 ErrMin= 9.62D-06
 ErrMax= 9.62D-06  0.00D+00 EMaxC= 1.00D-01 BMatC= 2.94D-09 BMatP= 5.94D-08
 IDIUse=1 WtCom= 1.00D+00 WtEn= 0.00D+00
 Coeff-Com:  0.607D-01-0.198D+00 0.413D+00-0.811D+00 0.154D+01
 Coeff:      0.607D-01-0.198D+00 0.413D+00-0.811D+00 0.154D+01
 Gap=     0.378 Goal=   None    Shift=    0.000
 RMSDP=9.48D-06 MaxDP=6.67D-05 DE=-4.06D-07 OVMax= 5.34D-05

 Cycle   6  Pass 1  IDiag  3:
 E=-0.142250600197357     Delta-E=       -0.000000020224 Rises=F Damp=F
 DIIS: error= 1.94D-06 at cycle   6 NSaved=   6.
 NSaved= 6 IEnMin= 6 EnMin=-0.142250600197357     IErMin= 6 ErrMin= 1.94D-06
 ErrMax= 1.94D-06  0.00D+00 EMaxC= 1.00D-01 BMatC= 2.05D-10 BMatP= 2.94D-09
 IDIUse=1 WtCom= 1.00D+00 WtEn= 0.00D+00
 Coeff-Com: -0.114D-01 0.370D-01-0.774D-01 0.172D+00-0.532D+00 0.141D+01
 Coeff:     -0.114D-01 0.370D-01-0.774D-01 0.172D+00-0.532D+00 0.141D+01
 Gap=     0.378 Goal=   None    Shift=    0.000
 RMSDP=2.25D-06 MaxDP=1.76D-05 DE=-2.02D-08 OVMax= 9.55D-06

 Cycle   7  Pass 1  IDiag  3:
 E=-0.142250601506532     Delta-E=       -0.000000001309 Rises=F Damp=F
 DIIS: error= 5.49D-07 at cycle   7 NSaved=   7.
 NSaved= 7 IEnMin= 7 EnMin=-0.142250601506532     IErMin= 7 ErrMin= 5.49D-07
 ErrMax= 5.49D-07  0.00D+00 EMaxC= 1.00D-01 BMatC= 1.49D-11 BMatP= 2.05D-10
 IDIUse=1 WtCom= 1.00D+00 WtEn= 0.00D+00
 Coeff-Com: -0.227D-02 0.743D-02-0.155D-01 0.291D-01-0.259D-01-0.274D+00
 Coeff-Com:  0.128D+01
 Coeff:     -0.227D-02 0.743D-02-0.155D-01 0.291D-01-0.259D-01-0.274D+00
 Coeff:      0.128D+01
 Gap=     0.378 Goal=   None    Shift=    0.000
 RMSDP=6.21D-07 MaxDP=4.55D-06 DE=-1.31D-09 OVMax= 3.47D-06

 Cycle   8  Pass 1  IDiag  3:
 E=-0.142250601603337     Delta-E=       -0.000000000097 Rises=F Damp=F
 DIIS: error= 1.28D-07 at cycle   8 NSaved=   8.
 NSaved= 8 IEnMin= 8 EnMin=-0.142250601603337     IErMin= 8 ErrMin= 1.28D-07
 ErrMax= 1.28D-07  0.00D+00 EMaxC= 1.00D-01 BMatC= 1.21D-12 BMatP= 1.49D-11
 IDIUse=1 WtCom= 1.00D+00 WtEn= 0.00D+00
 Coeff-Com:  0.145D-02-0.475D-02 0.994D-02-0.200D-01 0.324D-01 0.924D-01
 Coeff-Com: -0.741D+00 0.163D+01
 Coeff:      0.145D-02-0.475D-02 0.994D-02-0.200D-01 0.324D-01 0.924D-01
 Coeff:     -0.741D+00 0.163D+01
 Gap=     0.378 Goal=   None    Shift=    0.000
 RMSDP=1.97D-07 MaxDP=1.12D-06 DE=-9.68D-11 OVMax= 1.31D-06

 Cycle   9  Pass 1  IDiag  3:
 E=-0.142250601611750     Delta-E=       -0.000000000008 Rises=F Damp=F
 DIIS: error= 3.01D-08 at cycle   9 NSaved=   9.
 NSaved= 9 IEnMin= 9 EnMin=-0.142250601611750     IErMin= 9 ErrMin= 3.01D-08
 ErrMax= 3.01D-08  0.00D+00 EMaxC= 1.00D-01 BMatC= 4.78D-14 BMatP= 1.21D-12
 IDIUse=1 WtCom= 1.00D+00 WtEn= 0.00D+00
 Coeff-Com: -0.456D-03 0.150D-02-0.314D-02 0.644D-02-0.983D-02-0.470D-01
 Coeff-Com:  0.337D+00-0.836D+00 0.155D+01
 Coeff:     -0.456D-03 0.150D-02-0.314D-02 0.644D-02-0.983D-02-0.470D-01
 Coeff:      0.337D+00-0.836D+00 0.155D+01
 Gap=     0.378 Goal=   None    Shift=    0.000
 RMSDP=4.05D-08 MaxDP=2.35D-07 DE=-8.41D-12 OVMax= 3.63D-07

 Cycle  10  Pass 1  IDiag  3:
 E=-0.142250601612119     Delta-E=       -0.000000000000 Rises=F Damp=F
 DIIS: error= 5.69D-09 at cycle  10 NSaved=  10.
 NSaved=10 IEnMin=10 EnMin=-0.142250601612119     IErMin=10 ErrMin= 5.69D-09
 ErrMax= 5.69D-09  0.00D+00 EMaxC= 1.00D-01 BMatC= 2.06D-15 BMatP= 4.78D-14
 IDIUse=1 WtCom= 1.00D+00 WtEn= 0.00D+00
 Coeff-Com:  0.734D-04-0.242D-03 0.511D-03-0.105D-02 0.819D-03 0.188D-01
 Coeff-Com: -0.107D+00 0.261D+00-0.609D+00 0.144D+01
 Coeff:      0.734D-04-0.242D-03 0.511D-03-0.105D-02 0.819D-03 0.188D-01
 Coeff:     -0.107D+00 0.261D+00-0.609D+00 0.144D+01
 Gap=     0.378 Goal=   None    Shift=    0.000
 RMSDP=7.84D-09 MaxDP=4.31D-08 DE=-3.69D-13 OVMax= 7.36D-08

 Cycle  11  Pass 2  IDiag  1:
 SCF Done:  E(RPM6) = -0.142250601612     A.U. after   11 cycles
            NFock= 10  Conv=0.78D-08     -V/T= 0.9978
 KE=-6.556964832822D+01 PE=-1.631632128776D+02 EE= 1.037410071524D+02
 Leave Link  502 at Tue Nov 28 15:28:25 2023, MaxMem=   134217728 cpu:               0.2 elap:               0.1
 (Enter /home/emanuele/chem_software/gaussian//gdv/l701.exe)
 ... and contract with generalized density number  0.
 Compute integral first derivatives.
 Leave Link  701 at Tue Nov 28 15:28:25 2023, MaxMem=   134217728 cpu:               0.2 elap:               0.1
 (Enter /home/emanuele/chem_software/gaussian//gdv/l702.exe)
 L702 exits ... SP integral derivatives will be done elsewhere.
 Leave Link  702 at Tue Nov 28 15:28:25 2023, MaxMem=   134217728 cpu:               0.1 elap:               0.0
 (Enter /home/emanuele/chem_software/gaussian//gdv/l703.exe)
 Integral derivatives from FoFJK, PRISM(SPDF).
 Compute integral first derivatives, UseDBF=F ICtDFT=           0.
 Calling FoFJK, ICntrl=      2127 FMM=F ISym2X=0 I1Cent= 0 IOpClX= 0 NMat=1 NMatS=1 NMatT=0.
 FoFJK:  IHMeth=40 ICntrl=    2127 DoSepK=F KAlg= 0 I1Cent=           0 FoldK=F
 IRaf=         0 NMat=       1 IRICut=       1 DoRegI=T DoRafI=F ISym2E= 0 IDoP0=3 IntGTp=3.
 FoFCou: FMM=F IPFlag=           0 FMFlag=      100000 FMFlg1=         800
         NFxFlg=           0 DoJE=F BraDBF=F KetDBF=F FulRan=T
         wScrn=  0.000000 ICntrl=      2127 IOpCl=  0 I1Cent=           0 NGrid=           0
         NMat0=    1 NMatS0=      1 NMatT0=    0 NMatD0=    1 NMtDS0=    0 NMtDT0=    0
 Symmetry not used in FoFCou.
 Leave Link  703 at Tue Nov 28 15:28:25 2023, MaxMem=   134217728 cpu:               0.1 elap:               0.0
 (Enter /home/emanuele/chem_software/gaussian//gdv/l716.exe)
 Dipole        = 4.54421326D-02-7.08406805D-01 7.86557487D-01
 -------------------------------------------------------------------
 Center     Atomic                   Forces (Hartrees/Bohr)
 Number     Number              X              Y              Z
 -------------------------------------------------------------------
      1        6           0.003211553    0.003182073   -0.000778970
      2        8           0.000829536   -0.003437637   -0.000079228
      3        6          -0.005432554    0.001041806    0.003777997
      4        1           0.000619447   -0.000281470   -0.001409785
      5        1          -0.000017781    0.000014284   -0.000664529
      6        7           0.000818388   -0.001441574   -0.001602287
      7        1           0.000251676    0.000961553   -0.000186523
      8        1           0.001400999    0.000422299    0.000607405
      9        8          -0.001403988   -0.002473179    0.000595597
     10        1          -0.000277278    0.002011846   -0.000259676
 -------------------------------------------------------------------
 Cartesian Forces:  Max     0.005432554 RMS     0.001851165
 Leave Link  716 at Tue Nov 28 15:28:25 2023, MaxMem=   134217728 cpu:               0.1 elap:               0.0
 (Enter /home/emanuele/chem_software/gaussian//gdv/l103.exe)

 GradGradGradGradGradGradGradGradGradGradGradGradGradGradGradGradGradGrad
 Berny optimization.
 Using GEDIIS/GDIIS optimizer.
 FormGI is forming the generalized inverse of G from B-inverse, IUseBI=4.
 Internal  Forces:  Max     0.002970260 RMS     0.001197786
 Search for a local minimum.
 Step number   3 out of a maximum of  100 on scan point     1 out of    11
 All quantities printed in internal units (Hartrees-Bohrs-Radians)
 RMS Force = .11889D-02 SwitMx=.10000D-02 MixMth= 1
 Mixed Optimization -- RFO/linear search
 Update second derivatives using D2CorX and points    1    2    3
 DE= -1.04D-03 DEPred=-9.32D-04 R= 1.11D+00
 TightC=F SS=  1.41D+00  RLast= 1.36D-01 DXNew= 8.4853D-01 4.0787D-01
 Trust test= 1.11D+00 RLast= 1.36D-01 DXMaxT set to 5.05D-01
 ITU=  1  1  0
 Use linear search instead of GDIIS.
     Eigenvalues ---    0.00894   0.00972   0.02324   0.03856   0.04555
     Eigenvalues ---    0.06732   0.09237   0.12350   0.15952   0.16621
     Eigenvalues ---    0.17060   0.19793   0.22964   0.25163   0.30971
     Eigenvalues ---    0.33763   0.34506   0.43914   0.45765   0.47065
     Eigenvalues ---    0.53070   0.58807   1.037271000.000001000.00000
     Eigenvalues --- 1000.000001000.000001000.000001000.000001000.00000
     Eigenvalues --- 1000.000001000.000001000.000001000.000001000.00000
     Eigenvalues --- 1000.00000
 RFO step:  Lambda=-3.53026919D-04 EMin= 8.93798944D-03
 Quartic linear search produced a step of  0.08532.
 Iteration  1 RMS(Cart)=  0.01544767 RMS(Int)=  0.00030731
 Iteration  2 RMS(Cart)=  0.00027510 RMS(Int)=  0.00010907
 Iteration  3 RMS(Cart)=  0.00000007 RMS(Int)=  0.00010907
 Fixing frozen coordinates.
 Iteration  1 RMS(Cart)=  0.00000587 RMS(Int)=  0.00000421
 Iteration  2 RMS(Cart)=  0.00000325 RMS(Int)=  0.00000470
 Iteration  3 RMS(Cart)=  0.00000180 RMS(Int)=  0.00000532
 Iteration  4 RMS(Cart)=  0.00000099 RMS(Int)=  0.00000573
 ITry= 1 IFail=0 DXMaxC= 4.96D-02 DCOld= 1.00D+10 DXMaxT= 5.05D-01 DXLimC= 3.00D+00 Rises=F
 Variable       Old X    -DE/DX   Delta X   Delta X   Delta X     New X
                                 (Linear)    (Quad)   (Total)
    R1        2.59250   0.00040  -0.00043   0.00185   0.00142   2.59392
    R2        2.86157  -0.00231  -0.00269  -0.01050  -0.01319   2.84838
    R3        2.28197  -0.00234  -0.00033  -0.00251  -0.00284   2.27913
    R4        1.87101   0.00127   0.00041   0.00459   0.00500   1.87601
    R5        2.11393  -0.00115  -0.00005  -0.00263  -0.00269   2.11125
    R6        2.11489   0.00043   0.00068   0.00391   0.00459   2.11948
    R7        2.80701   0.00222  -0.00117   0.00769   0.00652   2.81354
    R8        1.92580   0.00082  -0.00006   0.00239   0.00233   1.92813
    R9        1.91650   0.00123   0.00005   0.00332   0.00338   1.91988
    A1        1.91483  -0.00172  -0.00176  -0.01116  -0.01318   1.90165
    A2        2.10962  -0.00090  -0.00033  -0.00625  -0.00684   2.10278
    A3        2.25819   0.00262   0.00226   0.01602   0.01799   2.27618
    A4        1.99016  -0.00297  -0.00241  -0.01895  -0.02137   1.96879
    A5        1.88178   0.00027   0.00096   0.01149   0.01239   1.89418
    A6        1.91922  -0.00065   0.00097  -0.00499  -0.00403   1.91519
    A7        1.91701   0.00146  -0.00147   0.00685   0.00533   1.92234
    A8        1.85406   0.00009   0.00093  -0.00234  -0.00144   1.85262
    A9        2.00364  -0.00015  -0.00035   0.00093   0.00049   2.00413
   A10        1.88657  -0.00111  -0.00085  -0.01265  -0.01352   1.87305
   A11        1.93457   0.00062  -0.00247   0.00374   0.00123   1.93579
   A12        1.91305   0.00129  -0.00207   0.00723   0.00511   1.91817
   A13        1.88138  -0.00073  -0.00052  -0.00328  -0.00388   1.87750
    D1        3.12985   0.00025   0.00295  -0.00897  -0.00574   3.12411
    D2        0.02058   0.00017  -0.00034   0.03196   0.03134   0.05192
    D3       -1.23553  -0.00003  -0.00075   0.01342   0.01276  -1.22277
    D4        0.77875  -0.00012   0.00135   0.01437   0.01578   0.79453
    D5        2.85281  -0.00098  -0.00000   0.00000   0.00001   2.85281
    D6        1.87016  -0.00004   0.00275  -0.03264  -0.02992   1.84024
    D7       -2.39874  -0.00013   0.00486  -0.03169  -0.02690  -2.42564
    D8       -0.32468  -0.00100   0.00351  -0.04606  -0.04268  -0.36736
    D9        0.60443   0.00028   0.00007  -0.01778  -0.01773   0.58670
   D10        2.67906   0.00056  -0.00361  -0.01495  -0.01853   2.66053
   D11       -1.51912  -0.00109   0.00020  -0.03873  -0.03855  -1.55767
   D12        0.55551  -0.00081  -0.00347  -0.03591  -0.03935   0.51616
   D13        2.69847  -0.00033  -0.00016  -0.02747  -0.02766   2.67081
   D14       -1.51009  -0.00004  -0.00383  -0.02465  -0.02846  -1.53855
         Item               Value     Threshold  Converged?
 Maximum Force            0.002970     0.000450     NO 
 RMS     Force            0.001189     0.000300     NO 
 Maximum Displacement     0.049616     0.001800     NO 
 RMS     Displacement     0.015507     0.001200     NO 
 Predicted change in Energy=-1.857655D-04
 Lowest energy point so far.  Saving SCF results.
 GradGradGradGradGradGradGradGradGradGradGradGradGradGradGradGradGradGrad

 Leave Link  103 at Tue Nov 28 15:28:25 2023, MaxMem=   134217728 cpu:               0.0 elap:               0.0
 (Enter /home/emanuele/chem_software/gaussian//gdv/l202.exe)
                          Input orientation:                          
 ---------------------------------------------------------------------
 Center     Atomic      Atomic             Coordinates (Angstroms)
 Number     Number       Type             X           Y           Z
 ---------------------------------------------------------------------
      1          6           0       -0.522263    0.149635    0.017999
      2          8           0       -1.628711   -0.660245   -0.045382
      3          6           0        0.710083   -0.712149    0.120927
      4          1           0        0.723672   -1.193246    1.129168
      5          1           0        0.650106   -1.549117   -0.623272
      6          7           0        1.923046    0.086493   -0.207086
      7          1           0        1.815931    1.053882    0.099086
      8          1           0        2.731302   -0.299323    0.272534
      9          8           0       -0.643495    1.348865    0.059717
     10          1           0       -2.477646   -0.148384   -0.098741
 ---------------------------------------------------------------------
                    Distance matrix (angstroms):
                    1          2          3          4          5
     1  C    0.000000
     2  O    1.372643   0.000000
     3  C    1.507297   2.345273   0.000000
     4  H    2.142518   2.682790   1.117224   0.000000
     5  H    2.161351   2.513376   1.121581   1.789722   0.000000
     6  N    2.456458   3.633007   1.488859   2.204950   2.113955
     7  H    2.508264   3.850280   2.083805   2.702532   2.942202
     8  H    3.294243   4.386462   2.068511   2.358706   2.587630
     9  O    1.206063   2.240138   2.466515   3.078181   3.246256
    10  H    1.981405   0.992744   3.244642   3.584402   3.466990
                    6          7          8          9         10
     6  N    0.000000
     7  H    1.020322   0.000000
     8  H    1.015956   1.642909   0.000000
     9  O    2.872612   2.477365   3.761790   0.000000
    10  H    4.408288   4.463114   5.224344   2.372968   0.000000
 Symmetry turned off by external request.
 Stoichiometry    C2H5NO2
[...]
    A2        2.10290   0.00001   0.00001   0.00001   0.00001   2.10291
    A3        2.26024  -0.00000  -0.00000  -0.00001  -0.00001   2.26023
    A4        1.97261   0.00000   0.00000   0.00002   0.00003   1.97264
    A5        1.89942  -0.00001  -0.00004   0.00009   0.00006   1.89948
    A6        1.91678   0.00002   0.00003   0.00002   0.00005   1.91683
    A7        1.99005  -0.00001  -0.00000  -0.00007  -0.00007   1.98998
    A8        1.83232  -0.00000   0.00001  -0.00001  -0.00001   1.83232
    A9        1.90700  -0.00017  -0.00002   0.00001  -0.00000   1.90700
   A10        1.91156   0.00017   0.00002  -0.00004  -0.00002   1.91154
   A11        1.93836   0.00000   0.00000  -0.00001  -0.00000   1.93835
   A12        1.93621   0.00000  -0.00000   0.00003   0.00003   1.93624
   A13        1.87058  -0.00000  -0.00001  -0.00002  -0.00003   1.87056
    D1        3.12965  -0.00012  -0.00002   0.00013   0.00011   3.12977
    D2       -0.01827   0.00013   0.00002   0.00019   0.00020  -0.01807
    D3       -1.29675   0.00023  -0.00005   0.00004  -0.00001  -1.29676
    D4        0.70012   0.00023  -0.00005   0.00009   0.00004   0.70016
    D5        2.85281   0.00046   0.00000   0.00000   0.00000   2.85281
    D6        1.85191  -0.00004  -0.00009  -0.00002  -0.00011   1.85181
    D7       -2.43440  -0.00004  -0.00009   0.00003  -0.00006  -2.43446
    D8       -0.28171   0.00019  -0.00004  -0.00006  -0.00010  -0.28181
    D9       -1.07511  -0.00010  -0.00012   0.00002  -0.00010  -1.07521
   D10        1.00336  -0.00010  -0.00013   0.00001  -0.00012   1.00324
   D11        3.07862   0.00005  -0.00006  -0.00006  -0.00012   3.07850
   D12       -1.12610   0.00005  -0.00007  -0.00008  -0.00014  -1.12624
   D13        1.08040   0.00005  -0.00006  -0.00004  -0.00010   1.08030
   D14       -3.12431   0.00005  -0.00007  -0.00005  -0.00012  -3.12443
         Item               Value     Threshold  Converged?
 Maximum Force            0.000017     0.000450     YES
 RMS     Force            0.000006     0.000300     YES
 Maximum Displacement     0.000232     0.001800     YES
 RMS     Displacement     0.000081     0.001200     YES
 Predicted change in Energy=-3.042865D-09
 Optimization completed.
    -- Stationary point found.
                           ----------------------------
                           !   Optimized Parameters   !
                           ! (Angstroms and Degrees)  !
 --------------------------                            --------------------------
 ! Name  Definition              Value          Derivative Info.                !
 --------------------------------------------------------------------------------
 ! R1    R(1,2)                  1.373          -DE/DX =    0.0                 !
 ! R2    R(1,3)                  1.5166         -DE/DX =    0.0                 !
 ! R3    R(1,9)                  1.2074         -DE/DX =    0.0                 !
 ! R4    R(2,10)                 0.9953         -DE/DX =    0.0                 !
 ! R5    R(3,4)                  1.1194         -DE/DX =    0.0                 !
 ! R6    R(3,5)                  1.1189         -DE/DX =    0.0                 !
 ! R7    R(3,6)                  1.4737         -DE/DX =    0.0                 !
 ! R8    R(6,7)                  1.0171         -DE/DX =    0.0                 !
 ! R9    R(6,8)                  1.0186         -DE/DX =    0.0                 !
 ! A1    A(2,1,3)              110.0093         -DE/DX =    0.0                 !
 ! A2    A(2,1,9)              120.4873         -DE/DX =    0.0                 !
 ! A3    A(3,1,9)              129.5022         -DE/DX =    0.0                 !
 ! A4    A(1,2,10)             113.0223         -DE/DX =    0.0                 !
 ! A5    A(1,3,4)              108.8288         -DE/DX =    0.0                 !
 ! A6    A(1,3,5)              109.8234         -DE/DX =    0.0                 !
 ! A7    A(1,3,6)              114.0213         -DE/DX =    0.0                 !
 ! A8    A(4,3,5)              104.9843         -DE/DX =    0.0                 !
 ! A9    A(4,3,6)              109.2632         -DE/DX =   -0.0002              !
 ! A10   A(5,3,6)              109.5244         -DE/DX =    0.0002              !
 ! A11   A(3,6,7)              111.0597         -DE/DX =    0.0                 !
 ! A12   A(3,6,8)              110.9365         -DE/DX =    0.0                 !
 ! A13   A(7,6,8)              107.1766         -DE/DX =    0.0                 !
 ! D1    D(3,1,2,10)           179.316          -DE/DX =   -0.0001              !
 ! D2    D(9,1,2,10)            -1.0468         -DE/DX =    0.0001              !
 ! D3    D(2,1,3,4)            -74.2983         -DE/DX =    0.0002              !
 ! D4    D(2,1,3,5)             40.1141         -DE/DX =    0.0002              !
 ! D5    D(2,1,3,6)            163.4539         -DE/DX =    0.0005              !
 ! D6    D(9,1,3,4)            106.1069         -DE/DX =    0.0                 !
 ! D7    D(9,1,3,5)           -139.4808         -DE/DX =    0.0                 !
 ! D8    D(9,1,3,6)            -16.1409         -DE/DX =    0.0002              !
 ! D9    D(1,3,6,7)            -61.5992         -DE/DX =   -0.0001              !
 ! D10   D(1,3,6,8)             57.4885         -DE/DX =   -0.0001              !
 ! D11   D(4,3,6,7)            176.3918         -DE/DX =    0.0                 !
 ! D12   D(4,3,6,8)            -64.5205         -DE/DX =    0.0                 !
 ! D13   D(5,3,6,7)             61.9026         -DE/DX =    0.0001              !
 ! D14   D(5,3,6,8)           -179.0097         -DE/DX =    0.0                 !
 --------------------------------------------------------------------------------
 Lowest energy point so far.  Saving SCF results.
 Summary of Optimized Potential Surface Scan (add -0.0 to energies):
                           1         2         3         4         5
     Eigenvalues --    -0.14814  -0.14809  -0.14685  -0.14576  -0.14615
           R1           1.37321   1.37302   1.37314   1.37467   1.37721
           R2           1.51652   1.51664   1.51957   1.52146   1.51932
           R3           1.20731   1.20736   1.20668   1.20567   1.20530
           R4           0.99473   0.99531   0.99519   0.99523   0.99438
           R5           1.11917   1.11879   1.11907   1.11866   1.11928
           R6           1.11905   1.11942   1.11878   1.11836   1.11944
           R7           1.47364   1.47382   1.47400   1.47425   1.47410
           R8           1.01721   1.01863   1.01800   1.01625   1.01601
           R9           1.01851   1.01700   1.01587   1.01651   1.01832
           A1         109.99976 110.01029 109.89501 109.85286 110.23796
           A2         120.48122 120.48208 120.39851 120.23435 120.02574
           A3         129.51775 129.50602 129.68534 129.89672 129.73520
           A4         113.05393 113.03031 113.22216 113.14851 112.93711
           A5         108.86464 109.90797 110.18460 109.73915 108.70231
           A6         109.79913 108.75190 108.46869 108.51426 108.43106
           A7         114.04251 114.00911 113.61174 113.78593 115.32372
           A8         104.97103 105.00017 105.89372 106.56576 106.00113
           A9         109.26784 109.53836 109.22194 108.87853 108.87132
           A10        109.49812 109.23897 109.16527 109.10640 109.10944
           A11        111.06205 110.93003 111.13749 111.38365 111.14162
           A12        110.94007 111.05837 111.28264 111.20122 110.74626
           A13        107.15302 107.22467 107.91366 108.24936 107.70331
           D1         179.32623-179.25112-179.59240 179.57569-179.75710
           D2          -1.04628   1.16796   1.92375   0.89409  -0.10139
           D3         -74.25117 -37.13159  -1.62243  33.71848  69.99948
           D4          40.15203  77.30274 113.87036 149.79734-175.19277
           D5         163.45399-160.54614-124.54603 -88.54591 -52.54600
           D6         106.16497 142.40032 176.67822-147.76626-109.61290
           D7        -139.43183-103.16535 -67.82898 -31.68740   5.19485
           D8         -16.12986  18.98578  53.75462  89.96936 127.84162
           D9         -61.53146 -57.22037 -57.85156 -58.69326 -59.35905
           D10         57.53044  61.92245  62.44721  62.14442  60.31854
           D11        176.39513 179.16499 178.69775 178.56905 178.18572
           D12        -64.54297 -61.69218 -61.00348 -60.59327 -62.13669
           D13         61.93360  64.66260  63.34301  62.63424  62.92536
           D14       -179.00450-176.19457-176.35822-176.52808-177.39705
                           6         7         8         9        10
     Eigenvalues --    -0.14711  -0.14705  -0.14607  -0.14580  -0.14697
           R1           1.37863   1.37848   1.37696   1.37458   1.37321
           R2           1.51578   1.51598   1.51961   1.52162   1.51920
           R3           1.20565   1.20559   1.20534   1.20571   1.20678
           R4           0.99496   0.99447   0.99472   0.99493   0.99517
           R5           1.12033   1.12012   1.11930   1.11822   1.11883
           R6           1.12003   1.12053   1.11928   1.11868   1.11929
           R7           1.47471   1.47449   1.47425   1.47409   1.47388
           R8           1.01738   1.01896   1.01824   1.01634   1.01589
           R9           1.01848   1.01741   1.01578   1.01671   1.01807
           A1         110.74442 110.70753 110.18566 109.84273 109.91688
           A2         119.87115 119.89765 120.04334 120.24652 120.38665
           A3         129.38155 129.39078 129.77055 129.89170 129.67605
           A4         112.71994 112.77368 112.93625 113.17649 113.19682
           A5         108.12607 108.34421 108.44717 108.52459 108.46352
           A6         108.34728 108.10708 108.77581 109.80525 110.19829
           A7         116.56937 116.55387 115.17602 113.70212 113.64078
           A8         105.24008 105.24302 106.09474 106.51857 105.79807
           A9         108.97961 109.06519 109.13109 109.14138 109.18050
           A10        108.98933 108.93953 108.83436 108.89958 109.25528
           A11        110.67349 110.54881 110.76741 111.23391 111.27240
           A12        110.54236 110.72214 111.18084 111.37215 111.11194
           A13        106.82858 106.86732 107.78170 108.23789 107.86814
           D1        -179.43631 179.41580 179.75785-179.58993 179.50916
           D2           0.00359   0.07987  -0.02144  -1.02552  -1.98113
           D3         106.56954 142.84976 178.03844-146.89270-110.92748
           D4        -139.85446-103.58193 -66.99632 -30.82817   4.45539
           D5         -16.54603  19.45395  55.45394  91.45405 127.45399
           D6         -72.80209 -37.89515  -2.21014  34.72370  70.74286
           D7          40.77391  75.67316 112.75510 150.78823-173.87427
           D8         164.08234-161.29096-124.79463 -86.92955 -50.87567
           D9         -58.86493 -59.30525 -60.55535 -62.25318 -62.47155
           D10         59.28928  58.93159  59.26066  58.58447  57.74534
           D11        178.46241 177.67184 177.22679 176.43711 176.31001
           D12        -63.38338 -64.09132 -62.95721 -62.72524 -63.47311
           D13         64.11127  63.29816  61.86354  60.52775  61.04269
           D14       -177.73451-178.46499-178.32045-178.63460-178.74042
                          11
     Eigenvalues --    -0.14815
           R1           1.37299
           R2           1.51659
           R3           1.20738
           R4           0.99535
           R5           1.11942
           R6           1.11886
           R7           1.47366
           R8           1.01714
           R9           1.01855
           A1         110.00931
           A2         120.48728
           A3         129.50221
           A4         113.02226
           A5         108.82883
           A6         109.82339
           A7         114.02134
           A8         104.98432
           A9         109.26325
           A10        109.52440
           A11        111.05968
           A12        110.93654
           A13        107.17662
           D1         179.31596
           D2          -1.04679
           D3         -74.29827
           D4          40.11411
           D5         163.45394
           D6         106.10686
           D7        -139.48076
           D8         -16.14093
           D9         -61.59920
           D10         57.48847
           D11        176.39184
           D12        -64.52050
           D13         61.90263
           D14       -179.00971
 Largest change from initial coordinates is atom    4       1.055 Angstoms.
 GradGradGradGradGradGradGradGradGradGradGradGradGradGradGradGradGradGrad

 Leave Link  103 at Tue Nov 28 15:29:16 2023, MaxMem=   134217728 cpu:               0.0 elap:               0.0
 (Enter /home/emanuele/chem_software/gaussian//gdv/l202.exe)
                          Input orientation:                          
 ---------------------------------------------------------------------
 Center     Atomic      Atomic             Coordinates (Angstroms)
 Number     Number       Type             X           Y           Z
 ---------------------------------------------------------------------
      1          6           0       -0.517872   -0.020191    0.167639
      2          8           0       -1.268586    0.648535   -0.767419
      3          6           0        0.849618   -0.346124   -0.401376
      4          1           0        0.745439   -1.186854   -1.133095
      5          1           0        1.225182    0.517857   -1.004979
      6          7           0        1.851941   -0.708679    0.616254
      7          1           0        2.011747    0.060588    1.262208
      8          1           0        1.538324   -1.504985    1.168517
      9          8           0       -0.971883   -0.259372    1.260541
     10          1           0       -2.181885    0.875637   -0.443340
 ---------------------------------------------------------------------
                    Distance matrix (angstroms):
                    1          2          3          4          5
     1  C    0.000000
     2  O    1.372990   0.000000
     3  C    1.516588   2.368570   0.000000
     4  H    2.156145   2.749303   1.119416   0.000000
     5  H    2.168586   2.508464   1.118861   1.775558   0.000000
     6  N    2.508243   3.673455   1.473657   2.124433   2.127349
     7  H    2.757459   3.902007   2.069654   2.982804   2.442932
     8  H    2.726593   4.032895   2.069260   2.455054   2.985638
     9  O    1.207381   2.241640   2.467258   3.088513   3.250195
    10  H    1.986138   0.995348   3.268712   3.646760   3.471535
                    6          7          8          9         10
     6  N    0.000000
     7  H    1.017136   0.000000
     8  H    1.018555   1.638269   0.000000
     9  O    2.931035   3.000738   2.803776   0.000000
    10  H    4.461451   4.599973   4.701638   2.378142   0.000000
 Symmetry turned off by external request.
 Stoichiometry    C2H5NO2
 Framework group  C1[X(C2H5NO2)]
 Deg. of freedom    24
 Full point group                 C1      NOp   1
 Rotational constants (GHZ):          10.0170859           3.8127628           2.8769786
 Leave Link  202 at Tue Nov 28 15:29:16 2023, MaxMem=   134217728 cpu:               0.1 elap:               0.0
 (Enter /home/emanuele/chem_software/gaussian//gdv/l601.exe)
 Copying SCF densities to generalized density rwf, IOpCl= 0 IROHF=0.

 **********************************************************************

            Population analysis using the SCF Density.

 **********************************************************************

 Alpha  occ. eigenvalues --       -1.20523      -1.15844      -1.13523      -0.95575      -0.79265
 Alpha  occ. eigenvalues --       -0.67758      -0.66065      -0.63150      -0.59380      -0.56723
 Alpha  occ. eigenvalues --       -0.51855      -0.49027      -0.46134      -0.43392      -0.37346
 Alpha virt. eigenvalues --        0.00780       0.04846       0.08511       0.11194       0.13856
 Alpha virt. eigenvalues --        0.16130       0.16875       0.18544       0.20529       0.23550
          Condensed to atoms (all electrons):
               1          2          3          4          5          6
     1  C    3.419356   0.000000   0.000000   0.000000   0.000000   0.000000
     2  O    0.000000   6.528606   0.000000   0.000000   0.000000   0.000000
     3  C    0.000000   0.000000   4.249796   0.000000   0.000000   0.000000
     4  H    0.000000   0.000000   0.000000   0.806961   0.000000   0.000000
     5  H    0.000000   0.000000   0.000000   0.000000   0.805206   0.000000
     6  N    0.000000   0.000000   0.000000   0.000000   0.000000   5.464733
     7  H    0.000000   0.000000   0.000000   0.000000   0.000000   0.000000
     8  H    0.000000   0.000000   0.000000   0.000000   0.000000   0.000000
     9  O    0.000000   0.000000   0.000000   0.000000   0.000000   0.000000
    10  H    0.000000   0.000000   0.000000   0.000000   0.000000   0.000000
               7          8          9         10
     1  C    0.000000   0.000000   0.000000   0.000000
     2  O    0.000000   0.000000   0.000000   0.000000
     3  C    0.000000   0.000000   0.000000   0.000000
     4  H    0.000000   0.000000   0.000000   0.000000
     5  H    0.000000   0.000000   0.000000   0.000000
     6  N    0.000000   0.000000   0.000000   0.000000
     7  H    0.783141   0.000000   0.000000   0.000000
     8  H    0.000000   0.778373   0.000000   0.000000
     9  O    0.000000   0.000000   6.506692   0.000000
    10  H    0.000000   0.000000   0.000000   0.657134
 Mulliken charges:
               1
     1  C    0.580644
     2  O   -0.528606
     3  C   -0.249796
     4  H    0.193039
     5  H    0.194794
     6  N   -0.464733
     7  H    0.216859
     8  H    0.221627
     9  O   -0.506692
    10  H    0.342866
 Sum of Mulliken charges =  -0.00000
 Mulliken charges with hydrogens summed into heavy atoms:
               1
     1  C    0.580644
     2  O   -0.185740
     3  C    0.138036
     6  N   -0.026247
     9  O   -0.506692
 Charge=             -0.0000 electrons
 Dipole moment (field-independent basis, Debye):
    X=             -0.4539    Y=              0.5603    Z=             -0.7818  Tot=              1.0636
 N-N= 1.247838670707D+02 E-N=-1.629500964598D+02  KE=-6.560270528644D+01
 Leave Link  601 at Tue Nov 28 15:29:16 2023, MaxMem=   134217728 cpu:               0.1 elap:               0.0
 (Enter /home/emanuele/chem_software/gaussian//gdv/l9999.exe)
 Unable to Open any file for archive entry.
 1\1\GINC-EMANUELE-XPS-13-9343\Scan\RPM6\ZDO\C2H5N1O2\EMANUELE\28-Nov-2
 023\0\\#p nosymm geom=nocrowd opt=(modredundant,maxcycle=100) PM6\\Tit
 le\\0,1\C,-0.5178717626,-0.0201914392,0.1676390576\O,-1.2685861033,0.6
 485351623,-0.767419096\C,0.8496181634,-0.3461244638,-0.4013756539\H,0.
 7454391617,-1.1868537695,-1.1330945228\H,1.2251822037,0.5178567408,-1.
 0049791657\N,1.8519408534,-0.7086788613,0.6162535976\H,2.0117472234,0.
 0605875173,1.2622079207\H,1.5383237438,-1.5049847704,1.1685171512\O,-0
 .9718834322,-0.2593716089,1.2605413933\H,-2.1818850513,0.8756374927,-0
 .4433396819\\Version=ES64L-GDVRevJ.14\HF=-0.1481449,-0.1480885,-0.1468
 484,-0.1457637,-0.1461475,-0.1471081,-0.1470505,-0.1460708,-0.1458032,
 -0.1469677,-0.1481452\RMSD=6.528e-09,7.072e-09,2.797e-09,2.345e-09,5.9
 78e-09,2.427e-09,9.980e-09,3.379e-09,6.877e-09,2.739e-09,3.748e-09\PG=
 C01 [X(C2H5N1O2)]\\@
 The archive entry for this job was punched.


 THERE ONCE WAS A GIRL NAMED IRENE,
 WHO LIVED ON DISTILLED KEROSENE,
      BUT SHE STARTED ABSORBIN'
      A NEW HYDROCARBON,
 AND SINCE THEN HAS NEVER BENZENE.
 Job cpu time:       0 days  0 hours  3 minutes  5.7 seconds.
 Elapsed time:       0 days  0 hours  0 minutes 47.8 seconds.
 File lengths (MBytes):  RWF=      6 Int=      0 D2E=      0 Chk=      2 Scr=      1
 Normal termination of Gaussian DV at Tue Nov 28 15:29:16 2023.
