 Entering Gaussian System, Link 0=/home/emanuele/chem_software/gaussian//g09/g09
 Input=2_qm.gjf
 Output=2_qm.log
 Initial command:
 /home/emanuele/chem_software/gaussian//gdv/l1.exe "/home/emanuele/chem_software/gaussian/scratch/Gau-10660.inp" -scrdir="/home/emanuele/chem_software/gaussian/scratch/"
 Entering Link 1 = /home/emanuele/chem_software/gaussian//gdv/l1.exe PID=     10662.
  
 Copyright (c) 1988-2020, Gaussian, Inc.  All Rights Reserved.
  
 This is the private, development version of
 the Gaussian(R) DV system of programs. It is based on
 the Gaussian(R) 16 system (copyright 2016, Gaussian, Inc.),
 the Gaussian(R) 09 system (copyright 2009, Gaussian, Inc.),
 the Gaussian(R) 03 system (copyright 2003, Gaussian, Inc.),
 the Gaussian(R) 98 system (copyright 1998, Gaussian, Inc.),
 the Gaussian(R) 94 system (copyright 1995, Gaussian, Inc.),
 the Gaussian 92(TM) system (copyright 1992, Gaussian, Inc.),
 the Gaussian 90(TM) system (copyright 1990, Gaussian, Inc.),
 the Gaussian 88(TM) system (copyright 1988, Gaussian, Inc.),
 the Gaussian 86(TM) system (copyright 1986, Carnegie Mellon
 University), and the Gaussian 82(TM) system (copyright 1983,
 Carnegie Mellon University). Gaussian is a federally registered
 trademark of Gaussian, Inc.
  
 This software contains proprietary and confidential information,
 including trade secrets, belonging to Gaussian, Inc.
  
 This software is provided under written license and may be
 used, copied, transmitted, or stored only in accord with that
 written license.
  
 The following legend is applicable only to US Government
 contracts under FAR:
  
                    RESTRICTED RIGHTS LEGEND
  
 Use, reproduction and disclosure by the US Government is
 subject to restrictions as set forth in subparagraphs (a)
 and (c) of the Commercial Computer Software - Restricted
 Rights clause in FAR 52.227-19.
  
 Gaussian, Inc.
 340 Quinnipiac St., Bldg. 40, Wallingford CT 06492
  
  
 ---------------------------------------------------------------
 Warning -- This program may not be used in any manner that
 competes with the business of Gaussian, Inc. or will provide
 assistance to any competitor of Gaussian, Inc.  The licensee
 of this program is prohibited from giving any competitor of
 Gaussian, Inc. access to this program.  By using this program,
 the user acknowledges that Gaussian, Inc. is engaged in the
 business of creating and licensing software in the field of
 computational chemistry and represents and warrants to the
 licensee that it is not a competitor of Gaussian, Inc. and that
 it will not use this program in any manner prohibited above.
 ---------------------------------------------------------------
  

 Cite this work as:
 Gaussian Development Version, Revision J.14,
 M. J. Frisch, G. W. Trucks, H. B. Schlegel, G. E. Scuseria, 
 M. A. Robb, J. R. Cheeseman, G. Scalmani, V. Barone, 
 G. A. Petersson, H. Nakatsuji, X. Li, A. V. Marenich, M. Caricato, 
 J. Bloino, B. G. Janesko, J. Zheng, R. Gomperts, B. Mennucci, 
 H. P. Hratchian, J. V. Ortiz, A. F. Izmaylov, J. L. Sonnenberg, 
 D. Williams-Young, F. Ding, F. Lipparini, F. Egidi, J. Goings, 
 B. Peng, A. Petrone, T. Henderson, D. Ranasinghe, V. G. Zakrzewski, 
 J. Gao, N. Rega, G. Zheng, W. Liang, M. Hada, M. Ehara, K. Toyota, 
 R. Fukuda, J. Hasegawa, M. Ishida, T. Nakajima, Y. Honda, O. Kitao, 
 H. Nakai, T. Vreven, K. Throssell, J. A. Montgomery, Jr., 
 J. E. Peralta, F. Ogliaro, M. J. Bearpark, J. J. Heyd, 
 E. N. Brothers, K. N. Kudin, V. N. Staroverov, T. A. Keith, 
 R. Kobayashi, J. Normand, K. Raghavachari, A. P. Rendell, 
 J. C. Burant, S. S. Iyengar, J. Tomasi, M. Cossi, J. M. Millam, 
 M. Klene, C. Adamo, R. Cammi, J. W. Ochterski, R. L. Martin, 
 K. Morokuma, O. Farkas, J. B. Foresman, and D. J. Fox, 
 Gaussian, Inc., Wallingford CT, 2020.
 
 ******************************************
 Gaussian DV:  ES64L-GDVRevJ.14 29-Dec-2020
                27-Nov-2023 
 ******************************************
 %mem=1GB
 %nprocshared=4
 Will use up to    4 processors via shared memory.
 %chk=2_qm.chk
 ----------------------------------------------------------------
 #p nosymm geom=nocrowd opt=(modredundant,maxcycle=100) HF/6-31G*
 ----------------------------------------------------------------
 1/6=100,18=120,19=15,37=210000000,38=1/1,3;
 2/9=110,12=1,15=1,40=1/2;
 3/5=1,6=6,7=1,11=9,25=1,30=1,71=1/1,2,3;
 4//1;
 5/5=2,38=5/2;
 6/7=2,8=2,9=2,10=2,28=1/1;
 7/30=1/1,2,3,16;
 1/6=100,18=20,19=15/3(2);
 2/9=110,12=1,15=1/2;
 99//99;
 2/9=110,12=1,15=1/2;
 3/5=1,6=6,7=1,11=9,25=1,30=1,71=1/1,2,3;
 4/5=5,16=3,69=1/1;
 5/5=2,38=5/2;
 7/30=1/1,2,3,16;
 1/6=100,18=20,19=15/3(-5);
 2/9=110,12=1,15=1/2;
 6/7=2,8=2,9=2,10=2,19=2,28=1/1;
 99/9=1/99;
 Leave Link    1 at Mon Nov 27 10:26:02 2023, MaxMem=   134217728 cpu:               0.2 elap:               0.1
 (Enter /home/emanuele/chem_software/gaussian//gdv/l101.exe)
 -----
 Title
 -----
 Symbolic Z-matrix:
 Charge =  0 Multiplicity = 1
 C                    -0.53685   0.10417   0.01464 
 O                    -1.63632  -0.67637  -0.06827 
 C                     0.72601  -0.7177    0.10528 
 H                     0.71699  -1.15712   1.11445 
 H                     0.64338  -1.5538   -0.59228 
 N                     1.88901   0.09773  -0.1951 
 H                     1.74816   1.04081   0.14593 
 H                     2.72354  -0.27843   0.23189 
 O                    -0.58681   1.30563   0.04628 
 H                    -2.40509  -0.08851  -0.07785 
 
 The following ModRedundant input section has been read:
 D       1       3       6       7 S  10 36.000                                
 
 ITRead=  0  0  0  0  0  0  0  0  0  0
 MicOpt= -1 -1 -1 -1 -1 -1 -1 -1 -1 -1
 NAtoms=     10 NQM=       10 NQMF=       0 NMMI=      0 NMMIF=      0
                NMic=       0 NMicF=      0.
                    Isotopes and Nuclear Properties:
 (Nuclear quadrupole moments (NQMom) in fm**2, nuclear magnetic moments (NMagM)
  in nuclear magnetons)

  Atom         1           2           3           4           5           6           7           8           9          10
 IAtWgt=          12          16          12           1           1          14           1           1          16           1
 AtmWgt=  12.0000000  15.9949146  12.0000000   1.0078250   1.0078250  14.0030740   1.0078250   1.0078250  15.9949146   1.0078250
 NucSpn=           0           0           0           1           1           2           1           1           0           1
 AtZEff=  -0.0000000  -0.0000000  -0.0000000  -0.0000000  -0.0000000  -0.0000000  -0.0000000  -0.0000000  -0.0000000  -0.0000000
 NQMom=    0.0000000   0.0000000   0.0000000   0.0000000   0.0000000   2.0440000   0.0000000   0.0000000   0.0000000   0.0000000
 NMagM=    0.0000000   0.0000000   0.0000000   2.7928460   2.7928460   0.4037610   2.7928460   2.7928460   0.0000000   2.7928460
 AtZNuc=   6.0000000   8.0000000   6.0000000   1.0000000   1.0000000   7.0000000   1.0000000   1.0000000   8.0000000   1.0000000
 Leave Link  101 at Mon Nov 27 10:26:02 2023, MaxMem=   134217728 cpu:               0.9 elap:               0.3
 (Enter /home/emanuele/chem_software/gaussian//gdv/l103.exe)

 GradGradGradGradGradGradGradGradGradGradGradGradGradGradGradGradGradGrad
 Berny optimization.
 Initialization pass.
                           ----------------------------
                           !    Initial Parameters    !
                           ! (Angstroms and Degrees)  !
 --------------------------                            --------------------------
 ! Name  Definition              Value          Derivative Info.                !
 --------------------------------------------------------------------------------
 ! R1    R(1,2)                  1.3509         estimate D2E/DX2                !
 ! R2    R(1,3)                  1.5095         estimate D2E/DX2                !
 ! R3    R(1,9)                  1.2029         estimate D2E/DX2                !
 ! R4    R(2,10)                 0.9678         estimate D2E/DX2                !
 ! R5    R(3,4)                  1.1007         estimate D2E/DX2                !
 ! R6    R(3,5)                  1.092          estimate D2E/DX2                !
 ! R7    R(3,6)                  1.4518         estimate D2E/DX2                !
 ! R8    R(6,7)                  1.0127         estimate D2E/DX2                !
 ! R9    R(6,8)                  1.0101         estimate D2E/DX2                !
 ! A1    A(2,1,3)              111.7154         estimate D2E/DX2                !
 ! A2    A(2,1,9)              123.0182         estimate D2E/DX2                !
 ! A3    A(3,1,9)              125.2388         estimate D2E/DX2                !
 ! A4    A(1,2,10)             107.2257         estimate D2E/DX2                !
 ! A5    A(1,3,4)              105.4003         estimate D2E/DX2                !
 ! A6    A(1,3,5)              108.3736         estimate D2E/DX2                !
 ! A7    A(1,3,6)              110.6071         estimate D2E/DX2                !
 ! A8    A(4,3,5)              106.2232         estimate D2E/DX2                !
 ! A9    A(4,3,6)              114.8648         estimate D2E/DX2                !
 ! A10   A(5,3,6)              111.0079         estimate D2E/DX2                !
 ! A11   A(3,6,7)              109.9968         estimate D2E/DX2                !
 ! A12   A(3,6,8)              111.4207         estimate D2E/DX2                !
 ! A13   A(7,6,8)              108.6253         estimate D2E/DX2                !
 ! D1    D(3,1,2,10)           177.195          estimate D2E/DX2                !
 ! D2    D(9,1,2,10)            -0.9857         estimate D2E/DX2                !
 ! D3    D(2,1,3,4)            -71.8288         estimate D2E/DX2                !
 ! D4    D(2,1,3,5)             41.552          estimate D2E/DX2                !
 ! D5    D(2,1,3,6)            163.4539         estimate D2E/DX2                !
 ! D6    D(9,1,3,4)            106.3034         estimate D2E/DX2                !
 ! D7    D(9,1,3,5)           -140.3158         estimate D2E/DX2                !
 ! D8    D(9,1,3,6)            -18.4139         estimate D2E/DX2                !
 ! D9    D(1,3,6,7)             34.6533         Scan                            !
 ! D10   D(1,3,6,8)            155.1742         estimate D2E/DX2                !
 ! D11   D(4,3,6,7)            -84.4877         estimate D2E/DX2                !
 ! D12   D(4,3,6,8)             36.0331         estimate D2E/DX2                !
 ! D13   D(5,3,6,7)            154.9936         estimate D2E/DX2                !
 ! D14   D(5,3,6,8)            -84.4855         estimate D2E/DX2                !
 --------------------------------------------------------------------------------
 Trust Radius=3.00D-01 FncErr=1.00D-07 GrdErr=1.00D-07 EigMax=2.50D+02 EigMin=1.00D-04
 Number of optimizations in scan=  11
 Number of steps in this run=    100 maximum allowed number of steps=    100.
 GradGradGradGradGradGradGradGradGradGradGradGradGradGradGradGradGradGrad

 Leave Link  103 at Mon Nov 27 10:26:02 2023, MaxMem=   134217728 cpu:               0.0 elap:               0.0
 (Enter /home/emanuele/chem_software/gaussian//gdv/l202.exe)
                          Input orientation:                          
 ---------------------------------------------------------------------
 Center     Atomic      Atomic             Coordinates (Angstroms)
 Number     Number       Type             X           Y           Z
 ---------------------------------------------------------------------
      1          6           0       -0.536850    0.104174    0.014636
      2          8           0       -1.636322   -0.676373   -0.068268
      3          6           0        0.726013   -0.717700    0.105280
      4          1           0        0.716994   -1.157121    1.114447
      5          1           0        0.643380   -1.553795   -0.592281
      6          7           0        1.889013    0.097733   -0.195097
      7          1           0        1.748159    1.040807    0.145925
      8          1           0        2.723536   -0.278432    0.231888
      9          8           0       -0.586810    1.305633    0.046275
     10          1           0       -2.405088   -0.088514   -0.077854
 ---------------------------------------------------------------------
                    Distance matrix (angstroms):
                    1          2          3          4          5
     1  C    0.000000
     2  O    1.350913   0.000000
     3  C    1.509475   2.369062   0.000000
     4  H    2.091070   2.677318   1.100723   0.000000
     5  H    2.123712   2.498299   1.092005   1.753764   0.000000
     6  N    2.434921   3.611553   1.451801   2.159443   2.106395
     7  H    2.473011   3.801223   2.034400   2.613852   2.915038
     8  H    3.289940   4.388258   2.049167   2.361613   2.575433
     9  O    1.202913   2.245650   2.412646   2.984301   3.177648
    10  H    1.880424   0.967818   3.198938   3.508689   3.421234
                    6          7          8          9         10
     6  N    0.000000
     7  H    1.012682   0.000000
     8  H    1.010072   1.642906   0.000000
     9  O    2.765318   2.352051   3.674521   0.000000
    10  H    4.299737   4.309861   5.141478   2.294600   0.000000
 Symmetry turned off by external request.
 Stoichiometry    C2H5NO2
 Framework group  C1[X(C2H5NO2)]
 Deg. of freedom    24
 Full point group                 C1      NOp   1
 Rotational constants (GHZ):          10.4489861           3.9571341           2.9518000
 Leave Link  202 at Mon Nov 27 10:26:02 2023, MaxMem=   134217728 cpu:               0.1 elap:               0.0
 (Enter /home/emanuele/chem_software/gaussian//gdv/l301.exe)
 Standard basis: 6-31G(d) (6D, 7F)
 Ernie: Thresh=  0.10000D-02 Tol=  0.10000D-05 Strict=F.
    85 basis functions,   160 primitive gaussians,    85 cartesian basis functions
    20 alpha electrons       20 beta electrons
       nuclear repulsion energy       179.9791115102 Hartrees.
 IExCor=       0 DFT=F Ex=HF Corr=None N6=None ScaHFX=  1.000000
 ScaDFX=  1.000000  1.000000  1.000000  1.000000  1.000000  0.000000
 ScaDFX=  0.000000  0.000000  0.000000  0.000000  0.000000  0.000000
 IRadAn=      5 IRanWt=     -1 IRanGd=            0 ICorTp=0 IEmpDi=  4
 NAtoms=   10 NActive=   10 NUniq=   10 SFac= 1.00D+00 NAtFMM=   60 NAOKFM=F Big=F
 Integral buffers will be    131072 words long.
 Raffenetti 1 integral format.
 Two-electron integral symmetry is turned off.
 Leave Link  301 at Mon Nov 27 10:26:02 2023, MaxMem=   134217728 cpu:               0.2 elap:               0.1
 (Enter /home/emanuele/chem_software/gaussian//gdv/l302.exe)
 NPDir=0 NMtPBC=     1 NCelOv=     1 NCel=       1 NClECP=     1 NCelD=      1
         NCelK=      1 NCelE2=     1 NClLst=     1 CellRange=     0.0.
 One-electron integrals computed using PRISM.
 NBasis=    85 RedAO= T EigKep=  3.82D-03  NBF=    85
 NBsUse=    85 1.00D-06 EigRej= -1.00D+00 NBFU=    85
 Leave Link  302 at Mon Nov 27 10:26:02 2023, MaxMem=   134217728 cpu:               0.6 elap:               0.2
 (Enter /home/emanuele/chem_software/gaussian//gdv/l303.exe)
 DipDrv:  MaxL=1.
 Leave Link  303 at Mon Nov 27 10:26:02 2023, MaxMem=   134217728 cpu:               0.3 elap:               0.1
 (Enter /home/emanuele/chem_software/gaussian//gdv/l401.exe)
 ExpMin= 1.61D-01 ExpMax= 5.48D+03 ExpMxC= 8.25D+02 IAcc=3 IRadAn=         5 AccDes= 0.00D+00
 Harris functional with IExCor= 2005 and IRadAn=       5 diagonalized for initial guess.
 HarFok:  IExCor=    2005 AccDes= 0.00D+00 IRadAn=         5 IDoV= 1 UseB2=F ITyADJ=14 ICtDFT=  3500011
 FoFCou: FMM=F IPFlag=           0 FMFlag=      100000 FMFlg1=           0
         NFxFlg=           0 DoJE=T BraDBF=F KetDBF=T FulRan=T
         wScrn=  0.000000 ICntrl=       500 IOpCl=  0 I1Cent=   200000004 NGrid=           0
         NMat0=    1 NMatS0=      1 NMatT0=    0 NMatD0=    1 NMtDS0=    0 NMtDT0=    0
 Symmetry not used in FoFCou.
 Harris En= -283.086248172568    
 JPrj=0 DoOrth=F DoCkMO=F.
 Leave Link  401 at Mon Nov 27 10:26:03 2023, MaxMem=   134217728 cpu:               2.3 elap:               0.6
 (Enter /home/emanuele/chem_software/gaussian//gdv/l502.exe)
 Keep R1 ints in memory in canonical form, NReq=7542403.
 FoFCou: FMM=F IPFlag=           0 FMFlag=           0 FMFlg1=           0
         NFxFlg=           0 DoJE=F BraDBF=F KetDBF=F FulRan=T
         wScrn=  0.000000 ICntrl=       600 IOpCl=  0 I1Cent=           0 NGrid=           0
         NMat0=    1 NMatS0=   3655 NMatT0=    0 NMatD0=    1 NMtDS0=    0 NMtDT0=    0
 Symmetry not used in FoFCou.
 Two-electron integral symmetry not used.
 Closed shell SCF:
 Using DIIS extrapolation, IDIIS=  1040.
 NGot=   134217728 LenX=   127520231 LenY=   127512565
 Requested convergence on RMS density matrix=1.00D-08 within 128 cycles.
 Requested convergence on MAX density matrix=1.00D-06.
 Requested convergence on             energy=1.00D-06.
 No special actions if energy rises.

 Cycle   1  Pass 1  IDiag  1:
 E= -282.622256015630    
 DIIS: error= 5.34D-02 at cycle   1 NSaved=   1.
 NSaved= 1 IEnMin= 1 EnMin= -282.622256015630     IErMin= 1 ErrMin= 5.34D-02
 ErrMax= 5.34D-02  0.00D+00 EMaxC= 1.00D-01 BMatC= 3.74D-01 BMatP= 3.74D-01
 IDIUse=3 WtCom= 4.66D-01 WtEn= 5.34D-01
 Coeff-Com:  0.100D+01
 Coeff-En:   0.100D+01
 Coeff:      0.100D+01
 Gap=     0.509 Goal=   None    Shift=    0.000
 GapD=    0.509 DampG=2.000 DampE=0.500 DampFc=1.0000 IDamp=-1.
 RMSDP=6.05D-03 MaxDP=1.14D-01              OVMax= 1.12D-01

 Cycle   2  Pass 1  IDiag  1:
 E= -282.783092709939     Delta-E=       -0.160836694309 Rises=F Damp=F
 DIIS: error= 2.07D-02 at cycle   2 NSaved=   2.
 NSaved= 2 IEnMin= 2 EnMin= -282.783092709939     IErMin= 2 ErrMin= 2.07D-02
 ErrMax= 2.07D-02  0.00D+00 EMaxC= 1.00D-01 BMatC= 5.84D-02 BMatP= 3.74D-01
 IDIUse=3 WtCom= 7.93D-01 WtEn= 2.07D-01
 Coeff-Com:  0.224D+00 0.776D+00
 Coeff-En:   0.000D+00 0.100D+01
 Coeff:      0.178D+00 0.822D+00
 Gap=     0.633 Goal=   None    Shift=    0.000
 RMSDP=2.62D-03 MaxDP=4.76D-02 DE=-1.61D-01 OVMax= 4.33D-02

 Cycle   3  Pass 1  IDiag  1:
 E= -282.821143938122     Delta-E=       -0.038051228183 Rises=F Damp=F
 DIIS: error= 6.76D-03 at cycle   3 NSaved=   3.
 NSaved= 3 IEnMin= 3 EnMin= -282.821143938122     IErMin= 3 ErrMin= 6.76D-03
 ErrMax= 6.76D-03  0.00D+00 EMaxC= 1.00D-01 BMatC= 6.30D-03 BMatP= 5.84D-02
 IDIUse=3 WtCom= 9.32D-01 WtEn= 6.76D-02
 Coeff-Com: -0.206D-01 0.216D+00 0.804D+00
 Coeff-En:   0.000D+00 0.000D+00 0.100D+01
 Coeff:     -0.192D-01 0.202D+00 0.818D+00
 Gap=     0.575 Goal=   None    Shift=    0.000
 RMSDP=6.48D-04 MaxDP=1.88D-02 DE=-3.81D-02 OVMax= 2.34D-02

 Cycle   4  Pass 1  IDiag  1:
 E= -282.825622802415     Delta-E=       -0.004478864293 Rises=F Damp=F
 DIIS: error= 1.93D-03 at cycle   4 NSaved=   4.
 NSaved= 4 IEnMin= 4 EnMin= -282.825622802415     IErMin= 4 ErrMin= 1.93D-03
 ErrMax= 1.93D-03  0.00D+00 EMaxC= 1.00D-01 BMatC= 3.28D-04 BMatP= 6.30D-03
 IDIUse=3 WtCom= 9.81D-01 WtEn= 1.93D-02
 Coeff-Com: -0.111D-01 0.444D-01 0.270D+00 0.697D+00
 Coeff-En:   0.000D+00 0.000D+00 0.000D+00 0.100D+01
 Coeff:     -0.109D-01 0.435D-01 0.265D+00 0.703D+00
 Gap=     0.576 Goal=   None    Shift=    0.000
 RMSDP=1.94D-04 MaxDP=3.89D-03 DE=-4.48D-03 OVMax= 4.77D-03

 Cycle   5  Pass 1  IDiag  1:
 E= -282.825909349997     Delta-E=       -0.000286547582 Rises=F Damp=F
 DIIS: error= 7.42D-04 at cycle   5 NSaved=   5.
 NSaved= 5 IEnMin= 5 EnMin= -282.825909349997     IErMin= 5 ErrMin= 7.42D-04
 ErrMax= 7.42D-04  0.00D+00 EMaxC= 1.00D-01 BMatC= 1.82D-05 BMatP= 3.28D-04
 IDIUse=3 WtCom= 9.93D-01 WtEn= 7.42D-03
 Coeff-Com:  0.217D-02-0.225D-01-0.881D-01-0.302D-02 0.111D+01
 Coeff-En:   0.000D+00 0.000D+00 0.000D+00 0.000D+00 0.100D+01
 Coeff:      0.215D-02-0.223D-01-0.875D-01-0.300D-02 0.111D+01
 Gap=     0.578 Goal=   None    Shift=    0.000
 RMSDP=9.17D-05 MaxDP=1.89D-03 DE=-2.87D-04 OVMax= 3.61D-03

 Cycle   6  Pass 1  IDiag  1:
 E= -282.825949653435     Delta-E=       -0.000040303438 Rises=F Damp=F
 DIIS: error= 1.42D-04 at cycle   6 NSaved=   6.
 NSaved= 6 IEnMin= 6 EnMin= -282.825949653435     IErMin= 6 ErrMin= 1.42D-04
 ErrMax= 1.42D-04  0.00D+00 EMaxC= 1.00D-01 BMatC= 2.98D-06 BMatP= 1.82D-05
 IDIUse=3 WtCom= 9.99D-01 WtEn= 1.42D-03
 Coeff-Com:  0.149D-02-0.949D-02-0.451D-01-0.857D-01 0.224D+00 0.915D+00
 Coeff-En:   0.000D+00 0.000D+00 0.000D+00 0.000D+00 0.000D+00 0.100D+01
 Coeff:      0.149D-02-0.948D-02-0.450D-01-0.855D-01 0.224D+00 0.915D+00
 Gap=     0.578 Goal=   None    Shift=    0.000
 RMSDP=3.73D-05 MaxDP=6.45D-04 DE=-4.03D-05 OVMax= 1.04D-03

 Cycle   7  Pass 1  IDiag  1:
 E= -282.825955445393     Delta-E=       -0.000005791957 Rises=F Damp=F
 DIIS: error= 9.50D-05 at cycle   7 NSaved=   7.
 NSaved= 7 IEnMin= 7 EnMin= -282.825955445393     IErMin= 7 ErrMin= 9.50D-05
 ErrMax= 9.50D-05  0.00D+00 EMaxC= 1.00D-01 BMatC= 3.73D-07 BMatP= 2.98D-06
 IDIUse=1 WtCom= 1.00D+00 WtEn= 0.00D+00
 Coeff-Com: -0.443D-03 0.427D-02 0.196D-01 0.674D-04-0.161D+00-0.117D+00
 Coeff-Com:  0.126D+01
 Coeff:     -0.443D-03 0.427D-02 0.196D-01 0.674D-04-0.161D+00-0.117D+00
 Coeff:      0.126D+01
 Gap=     0.578 Goal=   None    Shift=    0.000
 RMSDP=1.79D-05 MaxDP=3.19D-04 DE=-5.79D-06 OVMax= 7.21D-04

 Cycle   8  Pass 1  IDiag  1:
 E= -282.825956543405     Delta-E=       -0.000001098012 Rises=F Damp=F
 DIIS: error= 1.93D-05 at cycle   8 NSaved=   8.
 NSaved= 8 IEnMin= 8 EnMin= -282.825956543405     IErMin= 8 ErrMin= 1.93D-05
 ErrMax= 1.93D-05  0.00D+00 EMaxC= 1.00D-01 BMatC= 4.52D-08 BMatP= 3.73D-07
 IDIUse=1 WtCom= 1.00D+00 WtEn= 0.00D+00
 Coeff-Com: -0.181D-03 0.121D-02 0.605D-02 0.598D-02-0.249D-01-0.112D+00
 Coeff-Com:  0.310D-01 0.109D+01
 Coeff:     -0.181D-03 0.121D-02 0.605D-02 0.598D-02-0.249D-01-0.112D+00
 Coeff:      0.310D-01 0.109D+01
 Gap=     0.578 Goal=   None    Shift=    0.000
 RMSDP=5.76D-06 MaxDP=1.09D-04 DE=-1.10D-06 OVMax= 2.19D-04

 Cycle   9  Pass 1  IDiag  1:
 E= -282.825956659144     Delta-E=       -0.000000115738 Rises=F Damp=F
 DIIS: error= 6.01D-06 at cycle   9 NSaved=   9.
 NSaved= 9 IEnMin= 9 EnMin= -282.825956659144     IErMin= 9 ErrMin= 6.01D-06
 ErrMax= 6.01D-06  0.00D+00 EMaxC= 1.00D-01 BMatC= 5.90D-09 BMatP= 4.52D-08
 IDIUse=1 WtCom= 1.00D+00 WtEn= 0.00D+00
 Coeff-Com:  0.352D-04-0.445D-03-0.184D-02 0.802D-04 0.220D-01-0.490D-03
 Coeff-Com: -0.171D+00 0.145D+00 0.101D+01
 Coeff:      0.352D-04-0.445D-03-0.184D-02 0.802D-04 0.220D-01-0.490D-03
 Coeff:     -0.171D+00 0.145D+00 0.101D+01
 Gap=     0.578 Goal=   None    Shift=    0.000
 RMSDP=1.74D-06 MaxDP=3.13D-05 DE=-1.16D-07 OVMax= 6.44D-05

 Cycle  10  Pass 1  IDiag  1:
 E= -282.825956671370     Delta-E=       -0.000000012226 Rises=F Damp=F
 DIIS: error= 2.80D-06 at cycle  10 NSaved=  10.
 NSaved=10 IEnMin=10 EnMin= -282.825956671370     IErMin=10 ErrMin= 2.80D-06
 ErrMax= 2.80D-06  0.00D+00 EMaxC= 1.00D-01 BMatC= 4.41D-10 BMatP= 5.90D-09
 IDIUse=1 WtCom= 1.00D+00 WtEn= 0.00D+00
 Coeff-Com:  0.210D-04-0.150D-03-0.688D-03-0.107D-02 0.321D-02 0.128D-01
 Coeff-Com: -0.649D-04-0.128D+00-0.265D-01 0.114D+01
 Coeff:      0.210D-04-0.150D-03-0.688D-03-0.107D-02 0.321D-02 0.128D-01
 Coeff:     -0.649D-04-0.128D+00-0.265D-01 0.114D+01
 Gap=     0.578 Goal=   None    Shift=    0.000
 RMSDP=4.99D-07 MaxDP=1.09D-05 DE=-1.22D-08 OVMax= 1.58D-05

 Cycle  11  Pass 1  IDiag  1:
 E= -282.825956672389     Delta-E=       -0.000000001019 Rises=F Damp=F
 DIIS: error= 5.29D-07 at cycle  11 NSaved=  11.
 NSaved=11 IEnMin=11 EnMin= -282.825956672389     IErMin=11 ErrMin= 5.29D-07
 ErrMax= 5.29D-07  0.00D+00 EMaxC= 1.00D-01 BMatC= 3.15D-11 BMatP= 4.41D-10
 IDIUse=1 WtCom= 1.00D+00 WtEn= 0.00D+00
 Coeff-Com: -0.908D-06 0.196D-04 0.965D-04-0.101D-03-0.114D-02 0.466D-03
 Coeff-Com:  0.105D-01-0.128D-01-0.691D-01 0.508D-01 0.102D+01
 Coeff:     -0.908D-06 0.196D-04 0.965D-04-0.101D-03-0.114D-02 0.466D-03
 Coeff:      0.105D-01-0.128D-01-0.691D-01 0.508D-01 0.102D+01
 Gap=     0.578 Goal=   None    Shift=    0.000
 RMSDP=9.50D-08 MaxDP=2.04D-06 DE=-1.02D-09 OVMax= 2.17D-06

 Cycle  12  Pass 1  IDiag  1:
 E= -282.825956672442     Delta-E=       -0.000000000053 Rises=F Damp=F
 DIIS: error= 2.20D-07 at cycle  12 NSaved=  12.
 NSaved=12 IEnMin=12 EnMin= -282.825956672442     IErMin=12 ErrMin= 2.20D-07
 ErrMax= 2.20D-07  0.00D+00 EMaxC= 1.00D-01 BMatC= 2.33D-12 BMatP= 3.15D-11
 IDIUse=1 WtCom= 1.00D+00 WtEn= 0.00D+00
 Coeff-Com: -0.202D-05 0.145D-04 0.712D-04 0.842D-04-0.346D-03-0.122D-02
 Coeff-Com:  0.289D-03 0.127D-01-0.121D-03-0.108D+00 0.206D-02 0.109D+01
 Coeff:     -0.202D-05 0.145D-04 0.712D-04 0.842D-04-0.346D-03-0.122D-02
 Coeff:      0.289D-03 0.127D-01-0.121D-03-0.108D+00 0.206D-02 0.109D+01
 Gap=     0.578 Goal=   None    Shift=    0.000
 RMSDP=3.59D-08 MaxDP=5.21D-07 DE=-5.35D-11 OVMax= 8.40D-07

 Cycle  13  Pass 1  IDiag  1:
 E= -282.825956672447     Delta-E=       -0.000000000005 Rises=F Damp=F
 DIIS: error= 3.84D-08 at cycle  13 NSaved=  13.
 NSaved=13 IEnMin=13 EnMin= -282.825956672447     IErMin=13 ErrMin= 3.84D-08
 ErrMax= 3.84D-08  0.00D+00 EMaxC= 1.00D-01 BMatC= 1.41D-13 BMatP= 2.33D-12
 IDIUse=1 WtCom= 1.00D+00 WtEn= 0.00D+00
 Coeff-Com:  0.421D-06-0.373D-05-0.179D-04-0.953D-05 0.130D-03 0.189D-03
 Coeff-Com: -0.746D-03-0.132D-02 0.418D-02 0.153D-01-0.709D-01-0.150D+00
 Coeff-Com:  0.120D+01
 Coeff:      0.421D-06-0.373D-05-0.179D-04-0.953D-05 0.130D-03 0.189D-03
 Coeff:     -0.746D-03-0.132D-02 0.418D-02 0.153D-01-0.709D-01-0.150D+00
 Coeff:      0.120D+01
 Gap=     0.578 Goal=   None    Shift=    0.000
 RMSDP=1.06D-08 MaxDP=1.24D-07 DE=-4.89D-12 OVMax= 2.97D-07

 Cycle  14  Pass 1  IDiag  1:
 E= -282.825956672448     Delta-E=       -0.000000000001 Rises=F Damp=F
 DIIS: error= 1.31D-08 at cycle  14 NSaved=  14.
 NSaved=14 IEnMin=14 EnMin= -282.825956672448     IErMin=14 ErrMin= 1.31D-08
 ErrMax= 1.31D-08  0.00D+00 EMaxC= 1.00D-01 BMatC= 1.17D-14 BMatP= 1.41D-13
 IDIUse=1 WtCom= 1.00D+00 WtEn= 0.00D+00
 Coeff-Com:  0.170D-07 0.177D-07 0.128D-06-0.366D-05-0.112D-04 0.317D-04
 Coeff-Com:  0.187D-03-0.495D-03-0.116D-02 0.329D-02 0.184D-01-0.358D-01
 Coeff-Com: -0.320D+00 0.134D+01
 Coeff:      0.170D-07 0.177D-07 0.128D-06-0.366D-05-0.112D-04 0.317D-04
 Coeff:      0.187D-03-0.495D-03-0.116D-02 0.329D-02 0.184D-01-0.358D-01
 Coeff:     -0.320D+00 0.134D+01
 Gap=     0.578 Goal=   None    Shift=    0.000
 RMSDP=3.79D-09 MaxDP=5.26D-08 DE=-1.02D-12 OVMax= 1.52D-07

 SCF Done:  E(RHF) =  -282.825956672     A.U. after   14 cycles
            NFock= 14  Conv=0.38D-08     -V/T= 2.0027
 KE= 2.820606540545D+02 PE=-1.025623300919D+03 EE= 2.807575786816D+02
 Leave Link  502 at Mon Nov 27 10:26:04 2023, MaxMem=   134217728 cpu:               2.3 elap:               0.6
 (Enter /home/emanuele/chem_software/gaussian//gdv/l601.exe)
 Copying SCF densities to generalized density rwf, IOpCl= 0 IROHF=0.

 **********************************************************************

            Population analysis using the SCF Density.

 **********************************************************************

 Alpha  occ. eigenvalues --      -20.62403     -20.56430     -15.54931     -11.39517     -11.27680
 Alpha  occ. eigenvalues --       -1.47121      -1.36860      -1.18994      -0.97926      -0.81186
 Alpha  occ. eigenvalues --       -0.71866      -0.70523      -0.66629      -0.62891      -0.59900
 Alpha  occ. eigenvalues --       -0.57292      -0.56178      -0.48590      -0.45691      -0.39764
 Alpha virt. eigenvalues --        0.18004       0.22374       0.23352       0.27613       0.32111
 Alpha virt. eigenvalues --        0.32690       0.40599       0.43898       0.48620       0.53535
 Alpha virt. eigenvalues --        0.75068       0.76758       0.78822       0.83432       0.88617
 Alpha virt. eigenvalues --        0.93228       0.95528       0.99524       1.04352       1.06995
 Alpha virt. eigenvalues --        1.09315       1.11559       1.17342       1.18214       1.19816
 Alpha virt. eigenvalues --        1.22093       1.23529       1.24996       1.28293       1.34556
 Alpha virt. eigenvalues --        1.40306       1.52175       1.60368       1.66247       1.70446
 Alpha virt. eigenvalues --        1.79265       1.81887       1.98572       2.02775       2.05401
 Alpha virt. eigenvalues --        2.07220       2.09834       2.17084       2.21951       2.26773
 Alpha virt. eigenvalues --        2.33870       2.38422       2.40934       2.48935       2.67169
 Alpha virt. eigenvalues --        2.67707       2.71271       2.79027       2.88694       2.96132
 Alpha virt. eigenvalues --        3.00225       3.08299       3.23845       3.35641       3.46224
 Alpha virt. eigenvalues --        4.17454       4.27063       4.50732       4.62401       4.89890
          Condensed to atoms (all electrons):
               1          2          3          4          5          6
     1  C    4.117132   0.291328   0.363842  -0.032391  -0.033425  -0.045282
     2  O    0.291328   8.337711  -0.090305   0.002146   0.003582   0.001667
     3  C    0.363842  -0.090305   5.023090   0.383928   0.394044   0.263738
     4  H   -0.032391   0.002146   0.383928   0.547943  -0.036332  -0.042712
     5  H   -0.033425   0.003582   0.394044  -0.036332   0.501997  -0.043956
     6  N   -0.045282   0.001667   0.263738  -0.042712  -0.043956   7.064370
     7  H   -0.008990   0.000324  -0.034254   0.000659   0.003984   0.325459
     8  H    0.004390  -0.000057  -0.032977  -0.004427   0.000078   0.331438
     9  O    0.595299  -0.082508  -0.075537  -0.000098   0.001681  -0.003269
    10  H   -0.009616   0.245772   0.007135  -0.000396  -0.000241  -0.000151
               7          8          9         10
     1  C   -0.008990   0.004390   0.595299  -0.009616
     2  O    0.000324  -0.000057  -0.082508   0.245772
     3  C   -0.034254  -0.032977  -0.075537   0.007135
     4  H    0.000659  -0.004427  -0.000098  -0.000396
     5  H    0.003984   0.000078   0.001681  -0.000241
     6  N    0.325459   0.331438  -0.003269  -0.000151
     7  H    0.354300  -0.023343   0.012697  -0.000025
     8  H   -0.023343   0.381268   0.000124   0.000004
     9  O    0.012697   0.000124   8.110661   0.007595
    10  H   -0.000025   0.000004   0.007595   0.280277
 Mulliken charges:
               1
     1  C    0.757712
     2  O   -0.709661
     3  C   -0.202704
     4  H    0.181681
     5  H    0.208588
     6  N   -0.851303
     7  H    0.369188
     8  H    0.343501
     9  O   -0.566646
    10  H    0.469644
 Sum of Mulliken charges =  -0.00000
 Mulliken charges with hydrogens summed into heavy atoms:
               1
     1  C    0.757712
     2  O   -0.240016
     3  C    0.187564
     6  N   -0.138614
     9  O   -0.566646
 Electronic spatial extent (au):  <R**2>=            416.8768
 Charge=              0.0000 electrons
 Dipole moment (field-independent basis, Debye):
    X=             -0.1707    Y=             -1.5953    Z=              1.5455  Tot=              2.2277
 Quadrupole moment (field-independent basis, Debye-Ang):
   XX=            -23.1903   YY=            -33.0711   ZZ=            -30.2033
   XY=             -1.2543   XZ=              3.7305   YZ=              0.1206
 Traceless Quadrupole moment (field-independent basis, Debye-Ang):
   XX=              5.6313   YY=             -4.2495   ZZ=             -1.3817
   XY=             -1.2543   XZ=              3.7305   YZ=              0.1206
 Octapole moment (field-independent basis, Debye-Ang**2):
  XXX=            -15.0907  YYY=             -2.0897  ZZZ=              1.8819  XYY=              6.2861
  XXY=              3.2018  XXZ=              7.7158  XZZ=             -4.5239  YZZ=              0.0279
  YYZ=              0.0254  XYZ=              0.8429
 Hexadecapole moment (field-independent basis, Debye-Ang**3):
 XXXX=           -238.2554 YYYY=           -138.8912 ZZZZ=            -34.9867 XXXY=             -8.4835
 XXXZ=             22.1372 YYYX=              4.9809 YYYZ=              1.6207 ZZZX=              4.3108
 ZZZY=              0.2375 XXYY=            -77.6402 XXZZ=            -65.9549 YYZZ=            -27.3941
 XXYZ=              0.4955 YYXZ=              1.1342 ZZXY=             -0.8098
 N-N= 1.799791115102D+02 E-N=-1.025623301038D+03  KE= 2.820606540545D+02
 No NMR shielding tensors so no spin-rotation constants.
 Leave Link  601 at Mon Nov 27 10:26:04 2023, MaxMem=   134217728 cpu:               0.6 elap:               0.2
 (Enter /home/emanuele/chem_software/gaussian//gdv/l701.exe)
 ... and contract with generalized density number  0.
 Compute integral first derivatives.
 Leave Link  701 at Mon Nov 27 10:26:04 2023, MaxMem=   134217728 cpu:               0.4 elap:               0.1
 (Enter /home/emanuele/chem_software/gaussian//gdv/l702.exe)
 L702 exits ... SP integral derivatives will be done elsewhere.
 Leave Link  702 at Mon Nov 27 10:26:04 2023, MaxMem=   134217728 cpu:               0.1 elap:               0.0
 (Enter /home/emanuele/chem_software/gaussian//gdv/l703.exe)
 Integral derivatives from FoFJK, PRISM(SPDF).
 Compute integral first derivatives, UseDBF=F ICtDFT=           0.
 Calling FoFJK, ICntrl=      2127 FMM=F ISym2X=0 I1Cent= 0 IOpClX= 0 NMat=1 NMatS=1 NMatT=0.
 FoFJK:  IHMeth= 1 ICntrl=    2127 DoSepK=F KAlg= 0 I1Cent=           0 FoldK=F
 IRaf=         0 NMat=       1 IRICut=       1 DoRegI=T DoRafI=F ISym2E= 0 IDoP0=0 IntGTp=1.
 FoFCou: FMM=F IPFlag=           0 FMFlag=      100000 FMFlg1=         800
         NFxFlg=           0 DoJE=F BraDBF=F KetDBF=F FulRan=T
         wScrn=  0.000000 ICntrl=      2127 IOpCl=  0 I1Cent=           0 NGrid=           0
         NMat0=    1 NMatS0=      1 NMatT0=    0 NMatD0=    1 NMtDS0=    0 NMtDT0=    0
 Symmetry not used in FoFCou.
 Leave Link  703 at Mon Nov 27 10:26:05 2023, MaxMem=   134217728 cpu:               2.6 elap:               0.7
 (Enter /home/emanuele/chem_software/gaussian//gdv/l716.exe)
 Dipole        =-6.71583113D-02-6.27641130D-01 6.08031198D-01
 -------------------------------------------------------------------
 Center     Atomic                   Forces (Hartrees/Bohr)
 Number     Number              X              Y              Z
 -------------------------------------------------------------------
      1        6          -0.013827406    0.017304056   -0.002413546
      2        8           0.005040925    0.025427014    0.001988530
      3        6           0.001672249   -0.003852389    0.001817130
      4        1           0.000615341    0.002848857   -0.005128619
      5        1           0.000894780    0.005270620    0.003405800
      6        7           0.000393918    0.004063161    0.007794572
      7        1           0.002385388   -0.010543387   -0.003091388
      8        1          -0.008517566    0.003329192   -0.003879866
      9        8          -0.000813921   -0.033496465   -0.000393431
     10        1           0.012156293   -0.010350659   -0.000099182
 -------------------------------------------------------------------
 Cartesian Forces:  Max     0.033496465 RMS     0.009913853
 Leave Link  716 at Mon Nov 27 10:26:05 2023, MaxMem=   134217728 cpu:               0.1 elap:               0.0
 (Enter /home/emanuele/chem_software/gaussian//gdv/l103.exe)

 GradGradGradGradGradGradGradGradGradGradGradGradGradGradGradGradGradGrad
 Berny optimization.
 FormGI is forming the generalized inverse of G from B-inverse, IUseBI=4.
 Internal  Forces:  Max     0.033432508 RMS     0.007927979
 Search for a local minimum.
 Step number   1 out of a maximum of  100 on scan point     1 out of    11
 All quantities printed in internal units (Hartrees-Bohrs-Radians)
 RMS Force = .80378D-02 SwitMx=.10000D-02 MixMth= 1
 Mixed Optimization -- RFO/linear search
 Second derivative matrix not updated -- first step.
 ITU=  0
     Eigenvalues ---    0.00641   0.01053   0.02341   0.02405   0.04773
     Eigenvalues ---    0.06482   0.09826   0.12461   0.16000   0.16000
     Eigenvalues ---    0.16000   0.21890   0.24992   0.25000   0.31403
     Eigenvalues ---    0.33602   0.34582   0.38010   0.45526   0.45961
     Eigenvalues ---    0.53825   0.54828   1.033731000.000001000.00000
     Eigenvalues --- 1000.000001000.000001000.000001000.000001000.00000
     Eigenvalues --- 1000.000001000.000001000.000001000.000001000.00000
     Eigenvalues --- 1000.00000
 RFO step:  Lambda=-3.46954171D-03 EMin= 6.40605360D-03
 Linear search not attempted -- first point.
 Iteration  1 RMS(Cart)=  0.01785269 RMS(Int)=  0.00018146
 Iteration  2 RMS(Cart)=  0.00019759 RMS(Int)=  0.00007804
 Iteration  3 RMS(Cart)=  0.00000003 RMS(Int)=  0.00007804
 Fixing frozen coordinates.
 Iteration  1 RMS(Cart)=  0.00000009 RMS(Int)=  0.00000009
 ITry= 1 IFail=0 DXMaxC= 4.83D-02 DCOld= 1.00D+10 DXMaxT= 3.00D-01 DXLimC= 3.00D+00 Rises=F
 Variable       Old X    -DE/DX   Delta X   Delta X   Delta X     New X
                                 (Linear)    (Quad)   (Total)
    R1        2.55286  -0.02282   0.00000  -0.04137  -0.04137   2.51149
    R2        2.85250  -0.00269   0.00000  -0.00848  -0.00848   2.84402
    R3        2.27318  -0.03343   0.00000  -0.03223  -0.03223   2.24094
    R4        1.82891  -0.01594   0.00000  -0.02943  -0.02943   1.79948
    R5        2.08006  -0.00584   0.00000  -0.01722  -0.01722   2.06285
    R6        2.06359  -0.00628   0.00000  -0.01798  -0.01798   2.04561
    R7        2.74351  -0.00654   0.00000  -0.01704  -0.01704   2.72646
    R8        1.91369  -0.01119   0.00000  -0.02440  -0.02440   1.88929
    R9        1.90876  -0.00992   0.00000  -0.02142  -0.02142   1.88734
    A1        1.94980   0.00127   0.00000   0.00467   0.00446   1.95427
    A2        2.14707  -0.00310   0.00000  -0.01260  -0.01280   2.13427
    A3        2.18583   0.00181   0.00000   0.00681   0.00659   2.19242
    A4        1.87144   0.00156   0.00000   0.00953   0.00953   1.88098
    A5        1.83958   0.00072   0.00000   0.00341   0.00340   1.84299
    A6        1.89148   0.00000   0.00000   0.00174   0.00173   1.89321
    A7        1.93046  -0.00037   0.00000  -0.00283  -0.00283   1.92762
    A8        1.85394   0.00046   0.00000   0.00673   0.00672   1.86066
    A9        2.00477  -0.00036   0.00000  -0.00389  -0.00389   2.00088
   A10        1.93745  -0.00037   0.00000  -0.00423  -0.00423   1.93322
   A11        1.91981   0.00081   0.00000   0.00530   0.00530   1.92511
   A12        1.94466  -0.00120   0.00000  -0.00700  -0.00700   1.93766
   A13        1.89587  -0.00022   0.00000  -0.00071  -0.00070   1.89517
    D1        3.09264  -0.00004   0.00000  -0.01160  -0.01142   3.08122
    D2       -0.01720   0.00040   0.00000   0.02495   0.02476   0.00756
    D3       -1.25365  -0.00007   0.00000   0.01531   0.01536  -1.23829
    D4        0.72522   0.00081   0.00000   0.02543   0.02549   0.75071
    D5        2.85281   0.00012   0.00000   0.01955   0.01960   2.87241
    D6        1.85534  -0.00062   0.00000  -0.02263  -0.02270   1.83265
    D7       -2.44897   0.00026   0.00000  -0.01252  -0.01257  -2.46154
    D8       -0.32138  -0.00043   0.00000  -0.01840  -0.01845  -0.33983
    D9        0.60481   0.00082   0.00000   0.00000   0.00000   0.60482
   D10        2.70830   0.00029   0.00000  -0.00192  -0.00193   2.70637
   D11       -1.47459   0.00040   0.00000   0.00034   0.00034  -1.47425
   D12        0.62890  -0.00012   0.00000  -0.00158  -0.00159   0.62731
   D13        2.70515   0.00033   0.00000  -0.00248  -0.00248   2.70267
   D14       -1.47455  -0.00020   0.00000  -0.00441  -0.00440  -1.47895
         Item               Value     Threshold  Converged?
 Maximum Force            0.033433     0.000450     NO 
 RMS     Force            0.008038     0.000300     NO 
 Maximum Displacement     0.048301     0.001800     NO 
 RMS     Displacement     0.017929     0.001200     NO 
 Predicted change in Energy=-1.750816D-03
 Lowest energy point so far.  Saving SCF results.
 GradGradGradGradGradGradGradGradGradGradGradGradGradGradGradGradGradGrad

 Leave Link  103 at Mon Nov 27 10:26:05 2023, MaxMem=   134217728 cpu:               0.1 elap:               0.0
 (Enter /home/emanuele/chem_software/gaussian//gdv/l202.exe)
                          Input orientation:                          
 ---------------------------------------------------------------------
 Center     Atomic      Atomic             Coordinates (Angstroms)
 Number     Number       Type             X           Y           Z
 ---------------------------------------------------------------------
      1          6           0       -0.534150    0.102083    0.001904
      2          8           0       -1.620522   -0.660884   -0.061176
      3          6           0        0.724292   -0.717236    0.102097
      4          1           0        0.714307   -1.149047    1.104623
      5          1           0        0.651000   -1.544715   -0.591946
      6          7           0        1.879601    0.095669   -0.191276
      7          1           0        1.740916    1.028338    0.141047
      8          1           0        2.699213   -0.277523    0.240516
      9          8           0       -0.593104    1.285606    0.047202
     10          1           0       -2.379528   -0.085878   -0.068040
 ---------------------------------------------------------------------
                    Distance matrix (angstroms):
                    1          2          3          4          5
     1  C    0.000000
     2  O    1.329023   0.000000
     3  C    1.504991   2.351166   0.000000
     4  H    2.083257   2.654961   1.091613   0.000000
     5  H    2.114044   2.494532   1.082492   1.743247   0.000000
     6  N    2.421477   3.583316   1.442783   2.141631   2.088266
     7  H    2.460332   3.767444   2.020414   2.592954   2.888909
     8  H    3.264302   4.347193   2.028009   2.333685   2.548322
     9  O    1.185856   2.203669   2.397900   2.958885   3.157060
    10  H    1.856244   0.952245   3.171948   3.475238   3.403937
                    6          7          8          9         10
     6  N    0.000000
     7  H    0.999772   0.000000
     8  H    0.998739   1.622805   0.000000
     9  O    2.754468   2.350031   3.649670   0.000000
    10  H    4.264777   4.273553   5.091713   2.255119   0.000000
 Symmetry turned off by external request.
 Stoichiometry    C2H5NO2
 Framework group  C1[X(C2H5NO2)]
 Deg. of freedom    24
 Full point group                 C1      NOp   1
 Rotational constants (GHZ):          10.7400643           4.0076042           3.0006204
 Leave Link  202 at Mon Nov 27 10:26:05 2023, MaxMem=   134217728 cpu:               0.1 elap:               0.0
 (Enter /home/emanuele/chem_software/gaussian//gdv/l301.exe)
 Standard basis: 6-31G(d) (6D, 7F)
 Ernie: Thresh=  0.10000D-02 Tol=  0.10000D-05 Strict=F.
    85 basis functions,   160 primitive gaussians,    85 cartesian basis functions
    20 alpha electrons       20 beta electrons
       nuclear repulsion energy       181.7635447484 Hartrees.
 IExCor=       0 DFT=F Ex=HF Corr=None N6=None ScaHFX=  1.000000
 ScaDFX=  1.000000  1.000000  1.000000  1.000000  1.000000  0.000000
 ScaDFX=  0.000000  0.000000  0.000000  0.000000  0.000000  0.000000
 IRadAn=      5 IRanWt=     -1 IRanGd=            0 ICorTp=0 IEmpDi=  4
 NAtoms=   10 NActive=   10 NUniq=   10 SFac= 1.00D+00 NAtFMM=   60 NAOKFM=F Big=F
 Integral buffers will be    131072 words long.
 Raffenetti 1 integral format.
 Two-electron integral symmetry is turned off.
 Leave Link  301 at Mon Nov 27 10:26:05 2023, MaxMem=   134217728 cpu:               0.2 elap:               0.1
 (Enter /home/emanuele/chem_software/gaussian//gdv/l302.exe)
 NPDir=0 NMtPBC=     1 NCelOv=     1 NCel=       1 NClECP=     1 NCelD=      1
         NCelK=      1 NCelE2=     1 NClLst=     1 CellRange=     0.0.
 One-electron integrals computed using PRISM.
 NBasis=    85 RedAO= T EigKep=  3.65D-03  NBF=    85
 NBsUse=    85 1.00D-06 EigRej= -1.00D+00 NBFU=    85
 Leave Link  302 at Mon Nov 27 10:26:05 2023, MaxMem=   134217728 cpu:               0.5 elap:               0.1
 (Enter /home/emanuele/chem_software/gaussian//gdv/l303.exe)
 DipDrv:  MaxL=1.
 Leave Link  303 at Mon Nov 27 10:26:05 2023, MaxMem=   134217728 cpu:               0.2 elap:               0.0
 (Enter /home/emanuele/chem_software/gaussian//gdv/l401.exe)
 Initial guess from the checkpoint file:  "2_qm.chk"
 B after Tr=     0.000707   -0.002470   -0.000024
         Rot=    1.000000    0.000124   -0.000136   -0.000099 Ang=   0.02 deg.
 AO Guess basis will be translated and rotated to current coordinates.
 JPrj=2 DoOrth=T DoCkMO=T.
 Generating alternative initial guess.
 ExpMin= 1.61D-01 ExpMax= 5.48D+03 ExpMxC= 8.25D+02 IAcc=3 IRadAn=         5 AccDes= 0.00D+00
 Harris functional with IExCor= 2005 and IRadAn=       5 diagonalized for initial guess.
 HarFok:  IExCor=    2005 AccDes= 0.00D+00 IRadAn=         5 IDoV= 1 UseB2=F ITyADJ=14 ICtDFT=  3500011
 FoFCou: FMM=F IPFlag=           0 FMFlag=      100000 FMFlg1=           0
         NFxFlg=           0 DoJE=T BraDBF=F KetDBF=T FulRan=T
         wScrn=  0.000000 ICntrl=       500 IOpCl=  0 I1Cent=   200000004 NGrid=           0
         NMat0=    1 NMatS0=      1 NMatT0=    0 NMatD0=    1 NMtDS0=    0 NMtDT0=    0
 Symmetry not used in FoFCou.
 Harris En= -283.089171302389    
 Leave Link  401 at Mon Nov 27 10:26:06 2023, MaxMem=   134217728 cpu:               2.4 elap:               0.6
 (Enter /home/emanuele/chem_software/gaussian//gdv/l502.exe)
 Keep R1 ints in memory in canonical form, NReq=7542487.
 FoFCou: FMM=F IPFlag=           0 FMFlag=           0 FMFlg1=           0
         NFxFlg=           0 DoJE=F BraDBF=F KetDBF=F FulRan=T
         wScrn=  0.000000 ICntrl=       600 IOpCl=  0 I1Cent=           0 NGrid=           0
         NMat0=    1 NMatS0=   3655 NMatT0=    0 NMatD0=    1 NMtDS0=    0 NMtDT0=    0
 Symmetry not used in FoFCou.
 Two-electron integral symmetry not used.
 Closed shell SCF:
 Using DIIS extrapolation, IDIIS=  1040.
 NGot=   134217728 LenX=   127520231 LenY=   127512565
 Requested convergence on RMS density matrix=1.00D-08 within 128 cycles.
 Requested convergence on MAX density matrix=1.00D-06.
 Requested convergence on             energy=1.00D-06.
 No special actions if energy rises.

 Cycle   1  Pass 1  IDiag  1:
 E= -282.826646363802    
 DIIS: error= 1.86D-03 at cycle   1 NSaved=   1.
 NSaved= 1 IEnMin= 1 EnMin= -282.826646363802     IErMin= 1 ErrMin= 1.86D-03
 ErrMax= 1.86D-03  0.00D+00 EMaxC= 1.00D-01 BMatC= 7.12D-04 BMatP= 7.12D-04
 IDIUse=3 WtCom= 9.81D-01 WtEn= 1.86D-02
 Coeff-Com:  0.100D+01
 Coeff-En:   0.100D+01
 Coeff:      0.100D+01
 Gap=     1.908 Goal=   None    Shift=    0.000
 GapD=    1.908 DampG=2.000 DampE=1.000 DampFc=2.0000 IDamp=-1.
 RMSDP=3.60D-04 MaxDP=5.13D-03              OVMax= 5.64D-03

 Cycle   2  Pass 1  IDiag  1:
 E= -282.827423724315     Delta-E=       -0.000777360513 Rises=F Damp=F
 DIIS: error= 6.28D-04 at cycle   2 NSaved=   2.
 NSaved= 2 IEnMin= 2 EnMin= -282.827423724315     IErMin= 2 ErrMin= 6.28D-04
 ErrMax= 6.28D-04  0.00D+00 EMaxC= 1.00D-01 BMatC= 6.49D-05 BMatP= 7.12D-04
 IDIUse=3 WtCom= 9.94D-01 WtEn= 6.28D-03
 Coeff-Com:  0.286D-01 0.971D+00
 Coeff-En:   0.000D+00 0.100D+01
 Coeff:      0.284D-01 0.972D+00
 Gap=     0.585 Goal=   None    Shift=    0.000
 RMSDP=1.21D-04 MaxDP=1.89D-03 DE=-7.77D-04 OVMax= 1.87D-03

 Cycle   3  Pass 1  IDiag  1:
 E= -282.827496169022     Delta-E=       -0.000072444707 Rises=F Damp=F
 DIIS: error= 2.07D-04 at cycle   3 NSaved=   3.
 NSaved= 3 IEnMin= 3 EnMin= -282.827496169022     IErMin= 3 ErrMin= 2.07D-04
 ErrMax= 2.07D-04  0.00D+00 EMaxC= 1.00D-01 BMatC= 1.02D-05 BMatP= 6.49D-05
 IDIUse=3 WtCom= 9.98D-01 WtEn= 2.07D-03
 Coeff-Com: -0.818D-01 0.166D+00 0.916D+00
 Coeff-En:   0.000D+00 0.000D+00 0.100D+01
 Coeff:     -0.816D-01 0.165D+00 0.916D+00
 Gap=     0.585 Goal=   None    Shift=    0.000
 RMSDP=4.58D-05 MaxDP=8.07D-04 DE=-7.24D-05 OVMax= 8.99D-04

 Cycle   4  Pass 1  IDiag  1:
 E= -282.827509085752     Delta-E=       -0.000012916730 Rises=F Damp=F
 DIIS: error= 9.45D-05 at cycle   4 NSaved=   4.
 NSaved= 4 IEnMin= 4 EnMin= -282.827509085752     IErMin= 4 ErrMin= 9.45D-05
 ErrMax= 9.45D-05  0.00D+00 EMaxC= 1.00D-01 BMatC= 7.24D-07 BMatP= 1.02D-05
 IDIUse=1 WtCom= 1.00D+00 WtEn= 0.00D+00
 Coeff-Com: -0.108D-01-0.374D-01 0.993D-01 0.949D+00
 Coeff:     -0.108D-01-0.374D-01 0.993D-01 0.949D+00
 Gap=     0.585 Goal=   None    Shift=    0.000
 RMSDP=1.57D-05 MaxDP=2.62D-04 DE=-1.29D-05 OVMax= 3.26D-04

 Cycle   5  Pass 1  IDiag  1:
 E= -282.827510294331     Delta-E=       -0.000001208579 Rises=F Damp=F
 DIIS: error= 3.86D-05 at cycle   5 NSaved=   5.
 NSaved= 5 IEnMin= 5 EnMin= -282.827510294331     IErMin= 5 ErrMin= 3.86D-05
 ErrMax= 3.86D-05  0.00D+00 EMaxC= 1.00D-01 BMatC= 1.24D-07 BMatP= 7.24D-07
 IDIUse=1 WtCom= 1.00D+00 WtEn= 0.00D+00
 Coeff-Com:  0.826D-02-0.286D-01-0.997D-01 0.182D+00 0.938D+00
 Coeff:      0.826D-02-0.286D-01-0.997D-01 0.182D+00 0.938D+00
 Gap=     0.585 Goal=   None    Shift=    0.000
 RMSDP=7.52D-06 MaxDP=9.45D-05 DE=-1.21D-06 OVMax= 2.24D-04

 Cycle   6  Pass 1  IDiag  1:
 E= -282.827510528313     Delta-E=       -0.000000233982 Rises=F Damp=F
 DIIS: error= 1.65D-05 at cycle   6 NSaved=   6.
 NSaved= 6 IEnMin= 6 EnMin= -282.827510528313     IErMin= 6 ErrMin= 1.65D-05
 ErrMax= 1.65D-05  0.00D+00 EMaxC= 1.00D-01 BMatC= 1.48D-08 BMatP= 1.24D-07
 IDIUse=1 WtCom= 1.00D+00 WtEn= 0.00D+00
 Coeff-Com:  0.194D-02 0.185D-02-0.204D-01-0.876D-01 0.752D-01 0.103D+01
 Coeff:      0.194D-02 0.185D-02-0.204D-01-0.876D-01 0.752D-01 0.103D+01
 Gap=     0.585 Goal=   None    Shift=    0.000
 RMSDP=2.75D-06 MaxDP=3.81D-05 DE=-2.34D-07 OVMax= 1.04D-04

 Cycle   7  Pass 1  IDiag  1:
 E= -282.827510567123     Delta-E=       -0.000000038810 Rises=F Damp=F
 DIIS: error= 8.07D-06 at cycle   7 NSaved=   7.
 NSaved= 7 IEnMin= 7 EnMin= -282.827510567123     IErMin= 7 ErrMin= 8.07D-06
 ErrMax= 8.07D-06  0.00D+00 EMaxC= 1.00D-01 BMatC= 2.93D-09 BMatP= 1.48D-08
 IDIUse=1 WtCom= 1.00D+00 WtEn= 0.00D+00
 Coeff-Com: -0.133D-02 0.522D-02 0.159D-01-0.374D-01-0.162D+00 0.141D+00
 Coeff-Com:  0.104D+01
 Coeff:     -0.133D-02 0.522D-02 0.159D-01-0.374D-01-0.162D+00 0.141D+00
 Coeff:      0.104D+01
 Gap=     0.585 Goal=   None    Shift=    0.000
 RMSDP=1.33D-06 MaxDP=2.29D-05 DE=-3.88D-08 OVMax= 5.95D-05

 Cycle   8  Pass 1  IDiag  1:
 E= -282.827510575678     Delta-E=       -0.000000008555 Rises=F Damp=F
 DIIS: error= 3.37D-06 at cycle   8 NSaved=   8.
 NSaved= 8 IEnMin= 8 EnMin= -282.827510575678     IErMin= 8 ErrMin= 3.37D-06
 ErrMax= 3.37D-06  0.00D+00 EMaxC= 1.00D-01 BMatC= 3.67D-10 BMatP= 2.93D-09
 IDIUse=1 WtCom= 1.00D+00 WtEn= 0.00D+00
 Coeff-Com: -0.239D-03-0.242D-03 0.252D-02 0.145D-01-0.119D-01-0.151D+00
 Coeff-Com: -0.608D-01 0.121D+01
 Coeff:     -0.239D-03-0.242D-03 0.252D-02 0.145D-01-0.119D-01-0.151D+00
 Coeff:     -0.608D-01 0.121D+01
 Gap=     0.585 Goal=   None    Shift=    0.000
 RMSDP=6.38D-07 MaxDP=1.26D-05 DE=-8.55D-09 OVMax= 3.15D-05

 Cycle   9  Pass 1  IDiag  1:
 E= -282.827510577236     Delta-E=       -0.000000001558 Rises=F Damp=F
 DIIS: error= 1.01D-06 at cycle   9 NSaved=   9.
 NSaved= 9 IEnMin= 9 EnMin= -282.827510577236     IErMin= 9 ErrMin= 1.01D-06
 ErrMax= 1.01D-06  0.00D+00 EMaxC= 1.00D-01 BMatC= 5.40D-11 BMatP= 3.67D-10
 IDIUse=1 WtCom= 1.00D+00 WtEn= 0.00D+00
 Coeff-Com:  0.179D-03-0.651D-03-0.216D-02 0.377D-02 0.202D-01 0.203D-02
 Coeff-Com: -0.142D+00-0.676D-01 0.119D+01
 Coeff:      0.179D-03-0.651D-03-0.216D-02 0.377D-02 0.202D-01 0.203D-02
 Coeff:     -0.142D+00-0.676D-01 0.119D+01
 Gap=     0.585 Goal=   None    Shift=    0.000
 RMSDP=2.22D-07 MaxDP=4.55D-06 DE=-1.56D-09 OVMax= 1.16D-05

 Cycle  10  Pass 1  IDiag  1:
 E= -282.827510577437     Delta-E=       -0.000000000201 Rises=F Damp=F
 DIIS: error= 3.61D-07 at cycle  10 NSaved=  10.
 NSaved=10 IEnMin=10 EnMin= -282.827510577437     IErMin=10 ErrMin= 3.61D-07
 ErrMax= 3.61D-07  0.00D+00 EMaxC= 1.00D-01 BMatC= 8.13D-12 BMatP= 5.40D-11
 IDIUse=1 WtCom= 1.00D+00 WtEn= 0.00D+00
 Coeff-Com:  0.578D-04-0.453D-04-0.646D-03-0.190D-02 0.448D-02 0.251D-01
 Coeff-Com: -0.157D-01-0.194D+00 0.161D+00 0.102D+01
 Coeff:      0.578D-04-0.453D-04-0.646D-03-0.190D-02 0.448D-02 0.251D-01
 Coeff:     -0.157D-01-0.194D+00 0.161D+00 0.102D+01
 Gap=     0.585 Goal=   None    Shift=    0.000
 RMSDP=8.47D-08 MaxDP=1.69D-06 DE=-2.01D-10 OVMax= 4.38D-06

 Cycle  11  Pass 1  IDiag  1:
 E= -282.827510577466     Delta-E=       -0.000000000029 Rises=F Damp=F
 DIIS: error= 1.66D-07 at cycle  11 NSaved=  11.
 NSaved=11 IEnMin=11 EnMin= -282.827510577466     IErMin=11 ErrMin= 1.66D-07
 ErrMax= 1.66D-07  0.00D+00 EMaxC= 1.00D-01 BMatC= 9.09D-13 BMatP= 8.13D-12
 IDIUse=1 WtCom= 1.00D+00 WtEn= 0.00D+00
 Coeff-Com: -0.278D-04 0.922D-04 0.345D-03-0.501D-03-0.278D-02-0.151D-02
 Coeff-Com:  0.206D-01 0.176D-01-0.173D+00-0.635D-01 0.120D+01
 Coeff:     -0.278D-04 0.922D-04 0.345D-03-0.501D-03-0.278D-02-0.151D-02
 Coeff:      0.206D-01 0.176D-01-0.173D+00-0.635D-01 0.120D+01
 Gap=     0.585 Goal=   None    Shift=    0.000
 RMSDP=3.20D-08 MaxDP=5.55D-07 DE=-2.85D-11 OVMax= 1.50D-06

 Cycle  12  Pass 1  IDiag  1:
 E= -282.827510577469     Delta-E=       -0.000000000003 Rises=F Damp=F
 DIIS: error= 5.33D-08 at cycle  12 NSaved=  12.
 NSaved=12 IEnMin=12 EnMin= -282.827510577469     IErMin=12 ErrMin= 5.33D-08
 ErrMax= 5.33D-08  0.00D+00 EMaxC= 1.00D-01 BMatC= 8.27D-14 BMatP= 9.09D-13
 IDIUse=1 WtCom= 1.00D+00 WtEn= 0.00D+00
 Coeff-Com: -0.337D-06-0.111D-04-0.222D-05 0.232D-03 0.177D-03-0.257D-02
 Coeff-Com: -0.124D-02 0.147D-01 0.179D-01-0.972D-01-0.182D+00 0.125D+01
 Coeff:     -0.337D-06-0.111D-04-0.222D-05 0.232D-03 0.177D-03-0.257D-02
 Coeff:     -0.124D-02 0.147D-01 0.179D-01-0.972D-01-0.182D+00 0.125D+01
 Gap=     0.585 Goal=   None    Shift=    0.000
 RMSDP=8.32D-09 MaxDP=1.18D-07 DE=-2.90D-12 OVMax= 3.31D-07

 SCF Done:  E(RHF) =  -282.827510577     A.U. after   12 cycles
            NFock= 12  Conv=0.83D-08     -V/T= 2.0018
 KE= 2.823317545013D+02 PE=-1.029380792231D+03 EE= 2.824579824037D+02
 Leave Link  502 at Mon Nov 27 10:26:06 2023, MaxMem=   134217728 cpu:               2.1 elap:               0.5
 (Enter /home/emanuele/chem_software/gaussian//gdv/l701.exe)
 ... and contract with generalized density number  0.
 Compute integral first derivatives.
 Leave Link  701 at Mon Nov 27 10:26:06 2023, MaxMem=   134217728 cpu:               0.4 elap:               0.1
 (Enter /home/emanuele/chem_software/gaussian//gdv/l702.exe)
 L702 exits ... SP integral derivatives will be done elsewhere.
 Leave Link  702 at Mon Nov 27 10:26:06 2023, MaxMem=   134217728 cpu:               0.1 elap:               0.0
 (Enter /home/emanuele/chem_software/gaussian//gdv/l703.exe)
 Integral derivatives from FoFJK, PRISM(SPDF).
 Compute integral first derivatives, UseDBF=F ICtDFT=           0.
 Calling FoFJK, ICntrl=      2127 FMM=F ISym2X=0 I1Cent= 0 IOpClX= 0 NMat=1 NMatS=1 NMatT=0.
 FoFJK:  IHMeth= 1 ICntrl=    2127 DoSepK=F KAlg= 0 I1Cent=           0 FoldK=F
 IRaf=         0 NMat=       1 IRICut=       1 DoRegI=T DoRafI=F ISym2E= 0 IDoP0=0 IntGTp=1.
 FoFCou: FMM=F IPFlag=           0 FMFlag=      100000 FMFlg1=         800
         NFxFlg=           0 DoJE=F BraDBF=F KetDBF=F FulRan=T
         wScrn=  0.000000 ICntrl=      2127 IOpCl=  0 I1Cent=           0 NGrid=           0
         NMat0=    1 NMatS0=      1 NMatT0=    0 NMatD0=    1 NMtDS0=    0 NMtDT0=    0
 Symmetry not used in FoFCou.
 Leave Link  703 at Mon Nov 27 10:26:07 2023, MaxMem=   134217728 cpu:               2.6 elap:               0.7
 (Enter /home/emanuele/chem_software/gaussian//gdv/l716.exe)
 Dipole        =-8.08253930D-02-6.22001424D-01 5.94637960D-01
 -------------------------------------------------------------------
 Center     Atomic                   Forces (Hartrees/Bohr)
 Number     Number              X              Y              Z
 -------------------------------------------------------------------
      1        6          -0.004705985   -0.002733530    0.004183647
      2        8           0.001022639   -0.000508584   -0.001420530
      3        6           0.000804824   -0.000313849   -0.000953745
      4        1          -0.000292795    0.000155135    0.000269504
      5        1           0.000016896   -0.000654526   -0.000310010
      6        7          -0.000072905   -0.000047954   -0.000391457
      7        1           0.000443390    0.000801754    0.000670854
      8        1           0.001187030   -0.000077998   -0.000308676
      9        8           0.002294032    0.003868293   -0.001629298
     10        1          -0.000697127   -0.000488742   -0.000110289
 -------------------------------------------------------------------
 Cartesian Forces:  Max     0.004705985 RMS     0.001626709
 Leave Link  716 at Mon Nov 27 10:26:07 2023, MaxMem=   134217728 cpu:               0.1 elap:               0.0
 (Enter /home/emanuele/chem_software/gaussian//gdv/l103.exe)

 GradGradGradGradGradGradGradGradGradGradGradGradGradGradGradGradGradGrad
 Berny optimization.
 Using GEDIIS/GDIIS optimizer.
 FormGI is forming the generalized inverse of G from B-inverse, IUseBI=4.
 Internal  Forces:  Max     0.003684400 RMS     0.001151924
 Search for a local minimum.
 Step number   2 out of a maximum of  100 on scan point     1 out of    11
 All quantities printed in internal units (Hartrees-Bohrs-Radians)
 RMS Force = .11666D-02 SwitMx=.10000D-02 MixMth= 1
 Mixed Optimization -- RFO/linear search
 Update second derivatives using D2CorX and points    1    2
 DE= -1.55D-03 DEPred=-1.75D-03 R= 8.88D-01
 TightC=F SS=  1.41D+00  RLast= 9.60D-02 DXNew= 5.0454D-01 2.8786D-01
 Trust test= 8.88D-01 RLast= 9.60D-02 DXMaxT set to 3.00D-01
 ITU=  1  0
 Use linear search instead of GDIIS.
     Eigenvalues ---    0.00641   0.01136   0.02340   0.02420   0.04800
     Eigenvalues ---    0.06514   0.09792   0.12434   0.15822   0.16000
     Eigenvalues ---    0.16051   0.21907   0.24986   0.25415   0.31516
     Eigenvalues ---    0.33621   0.34751   0.38465   0.45680   0.46376
     Eigenvalues ---    0.53058   0.54353   1.067721000.000001000.00000
     Eigenvalues --- 1000.000001000.000001000.000001000.000001000.00000
     Eigenvalues --- 1000.000001000.000001000.000001000.000001000.00000
     Eigenvalues --- 1000.00000
 RFO step:  Lambda=-4.95411401D-04 EMin= 6.40614701D-03
 Quartic linear search produced a step of -0.10552.
 Iteration  1 RMS(Cart)=  0.02797769 RMS(Int)=  0.00112466
 Iteration  2 RMS(Cart)=  0.00124003 RMS(Int)=  0.00077133
 Iteration  3 RMS(Cart)=  0.00000038 RMS(Int)=  0.00077133
 Fixing frozen coordinates.
 Iteration  1 RMS(Cart)=  0.00000224 RMS(Int)=  0.00000228
 Iteration  2 RMS(Cart)=  0.00000122 RMS(Int)=  0.00000255
 Iteration  3 RMS(Cart)=  0.00000067 RMS(Int)=  0.00000288
 ITry= 1 IFail=0 DXMaxC= 9.80D-02 DCOld= 1.00D+10 DXMaxT= 3.00D-01 DXLimC= 3.00D+00 Rises=F
 Variable       Old X    -DE/DX   Delta X   Delta X   Delta X     New X
                                 (Linear)    (Quad)   (Total)
    R1        2.51149   0.00038   0.00436  -0.01047  -0.00611   2.50538
    R2        2.84402   0.00175   0.00089   0.00269   0.00358   2.84760
    R3        2.24094   0.00368   0.00340  -0.00539  -0.00199   2.23896
    R4        1.79948   0.00026   0.00311  -0.00746  -0.00435   1.79513
    R5        2.06285   0.00019   0.00182  -0.00416  -0.00234   2.06050
    R6        2.04561   0.00070   0.00190  -0.00306  -0.00116   2.04445
    R7        2.72646   0.00163   0.00180  -0.00076   0.00104   2.72750
    R8        1.88929   0.00091   0.00257  -0.00478  -0.00220   1.88709
    R9        1.88734   0.00087   0.00226  -0.00407  -0.00181   1.88554
    A1        1.95427  -0.00078  -0.00047   0.00118  -0.00192   1.95234
    A2        2.13427   0.00303   0.00135   0.01026   0.00896   2.14323
    A3        2.19242  -0.00214  -0.00070  -0.00328  -0.00658   2.18584
    A4        1.88098   0.00147  -0.00101   0.01084   0.00983   1.89081
    A5        1.84299  -0.00028  -0.00036  -0.00256  -0.00291   1.84007
    A6        1.89321  -0.00034  -0.00018   0.00104   0.00085   1.89406
    A7        1.92762   0.00070   0.00030   0.00209   0.00239   1.93002
    A8        1.86066   0.00008  -0.00071   0.00174   0.00103   1.86169
    A9        2.00088  -0.00004   0.00041  -0.00156  -0.00115   1.99973
   A10        1.93322  -0.00016   0.00045  -0.00070  -0.00026   1.93296
   A11        1.92511   0.00042  -0.00056   0.00682   0.00622   1.93133
   A12        1.93766   0.00104   0.00074   0.00680   0.00750   1.94516
   A13        1.89517  -0.00056   0.00007   0.00237   0.00237   1.89753
    D1        3.08122   0.00085   0.00120   0.06673   0.06839  -3.13357
    D2        0.00756  -0.00073  -0.00261  -0.05740  -0.06047  -0.05291
    D3       -1.23829  -0.00082  -0.00162  -0.06571  -0.06713  -1.30542
    D4        0.75071  -0.00101  -0.00269  -0.06450  -0.06699   0.68372
    D5        2.87241  -0.00100  -0.00207  -0.06340  -0.06527   2.80714
    D6        1.83265   0.00106   0.00239   0.06403   0.06623   1.89888
    D7       -2.46154   0.00087   0.00133   0.06524   0.06637  -2.39517
    D8       -0.33983   0.00088   0.00195   0.06634   0.06809  -0.27175
    D9        0.60482   0.00025  -0.00000   0.00000  -0.00000   0.60481
   D10        2.70637   0.00051   0.00020   0.01195   0.01218   2.71855
   D11       -1.47425   0.00013  -0.00004   0.00285   0.00280  -1.47145
   D12        0.62731   0.00039   0.00017   0.01479   0.01498   0.64229
   D13        2.70267   0.00018   0.00026   0.00222   0.00247   2.70514
   D14       -1.47895   0.00044   0.00046   0.01417   0.01465  -1.46431
         Item               Value     Threshold  Converged?
 Maximum Force            0.003684     0.000450     NO 
 RMS     Force            0.001167     0.000300     NO 
 Maximum Displacement     0.097955     0.001800     NO 
 RMS     Displacement     0.027980     0.001200     NO 
 Predicted change in Energy=-3.001974D-04
 Lowest energy point so far.  Saving SCF results.
 GradGradGradGradGradGradGradGradGradGradGradGradGradGradGradGradGradGrad

 Leave Link  103 at Mon Nov 27 10:26:07 2023, MaxMem=   134217728 cpu:               0.0 elap:               0.0
 (Enter /home/emanuele/chem_software/gaussian//gdv/l202.exe)
                          Input orientation:                          
 ---------------------------------------------------------------------
 Center     Atomic      Atomic             Coordinates (Angstroms)
 Number     Number       Type             X           Y           Z
 ---------------------------------------------------------------------
      1          6           0       -0.541326    0.103326    0.053740
      2          8           0       -1.618758   -0.658957   -0.071892
      3          6           0        0.721541   -0.716298    0.117666
      4          1           0        0.732962   -1.154128    1.116208
      5          1           0        0.633610   -1.538073   -0.580481
      6          7           0        1.871518    0.098433   -0.193740
      7          1           0        1.747084    1.028611    0.147583
      8          1           0        2.704979   -0.279698    0.203664
      9          8           0       -0.588339    1.287177    0.046545
     10          1           0       -2.381245   -0.093980   -0.114341
 ---------------------------------------------------------------------
                    Distance matrix (angstroms):
                    1          2          3          4          5
     1  C    0.000000
     2  O    1.325790   0.000000
     3  C    1.506885   2.348663   0.000000
     4  H    2.081788   2.680926   1.090372   0.000000
     5  H    2.115870   2.470763   1.081876   1.742423   0.000000
     6  N    2.425508   3.573586   1.443333   2.140370   2.088095
     7  H    2.470178   3.771598   2.024189   2.594423   2.890981
     8  H    3.272259   4.349077   2.032743   2.342267   2.547344
     9  O    1.184805   2.205273   2.394735   2.974893   3.141395
    10  H    1.858085   0.949941   3.173072   3.512328   3.375210
                    6          7          8          9         10
     6  N    0.000000
     7  H    0.998606   0.000000
     8  H    0.997782   1.622461   0.000000
     9  O    2.742580   2.351865   3.650442   0.000000
    10  H    4.257854   4.286247   5.099538   2.268918   0.000000
 Symmetry turned off by external request.
 Stoichiometry    C2H5NO2
 Framework group  C1[X(C2H5NO2)]
 Deg. of freedom    24
 Full point group                 C1      NOp   1
 Rotational constants (GHZ):          10.7093904           4.0197208           3.0095910
 Leave Link  202 at Mon Nov 27 10:26:07 2023, MaxMem=   134217728 cpu:               0.1 elap:               0.0
 (Enter /home/emanuele/chem_software/gaussian//gdv/l301.exe)
 Standard basis: 6-31G(d) (6D, 7F)
 Ernie: Thresh=  0.10000D-02 Tol=  0.10000D-05 Strict=F.
    85 basis functions,   160 primitive gaussians,    85 cartesian basis functions
    20 alpha electrons       20 beta electrons
       nuclear repulsion energy       181.8689901153 Hartrees.
 IExCor=       0 DFT=F Ex=HF Corr=None N6=None ScaHFX=  1.000000
 ScaDFX=  1.000000  1.000000  1.000000  1.000000  1.000000  0.000000
 ScaDFX=  0.000000  0.000000  0.000000  0.000000  0.000000  0.000000
 IRadAn=      5 IRanWt=     -1 IRanGd=            0 ICorTp=0 IEmpDi=  4
 NAtoms=   10 NActive=   10 NUniq=   10 SFac= 1.00D+00 NAtFMM=   60 NAOKFM=F Big=F
 Integral buffers will be    131072 words long.
 Raffenetti 1 integral format.
 Two-electron integral symmetry is turned off.
 Leave Link  301 at Mon Nov 27 10:26:07 2023, MaxMem=   134217728 cpu:               0.2 elap:               0.1
 (Enter /home/emanuele/chem_software/gaussian//gdv/l302.exe)
 NPDir=0 NMtPBC=     1 NCelOv=     1 NCel=       1 NClECP=     1 NCelD=      1
         NCelK=      1 NCelE2=     1 NClLst=     1 CellRange=     0.0.
 One-electron integrals computed using PRISM.
 NBasis=    85 RedAO= T EigKep=  3.69D-03  NBF=    85
 NBsUse=    85 1.00D-06 EigRej= -1.00D+00 NBFU=    85
 Leave Link  302 at Mon Nov 27 10:26:07 2023, MaxMem=   134217728 cpu:               0.5 elap:               0.1
 (Enter /home/emanuele/chem_software/gaussian//gdv/l303.exe)
 DipDrv:  MaxL=1.
 Leave Link  303 at Mon Nov 27 10:26:07 2023, MaxMem=   134217728 cpu:               0.2 elap:               0.1
 (Enter /home/emanuele/chem_software/gaussian//gdv/l401.exe)
 Initial guess from the checkpoint file:  "2_qm.chk"
 B after Tr=    -0.002476    0.002456    0.011464
         Rot=    1.000000   -0.000302    0.000040    0.000176 Ang=  -0.04 deg.
 AO Guess basis will be translated and rotated to current coordinates.
 JPrj=2 DoOrth=T DoCkMO=T.
 Generating alternative initial guess.
 ExpMin= 1.61D-01 ExpMax= 5.48D+03 ExpMxC= 8.25D+02 IAcc=3 IRadAn=         5 AccDes= 0.00D+00
 Harris functional with IExCor= 2005 and IRadAn=       5 diagonalized for initial guess.
 HarFok:  IExCor=    2005 AccDes= 0.00D+00 IRadAn=         5 IDoV= 1 UseB2=F ITyADJ=14 ICtDFT=  3500011
 FoFCou: FMM=F IPFlag=           0 FMFlag=      100000 FMFlg1=           0
         NFxFlg=           0 DoJE=T BraDBF=F KetDBF=T FulRan=T
         wScrn=  0.000000 ICntrl=       500 IOpCl=  0 I1Cent=   200000004 NGrid=           0
         NMat0=    1 NMatS0=      1 NMatT0=    0 NMatD0=    1 NMtDS0=    0 NMtDT0=    0
 Symmetry not used in FoFCou.
 Harris En= -283.089139776128    
 Leave Link  401 at Mon Nov 27 10:26:08 2023, MaxMem=   134217728 cpu:               2.5 elap:               0.7
 (Enter /home/emanuele/chem_software/gaussian//gdv/l502.exe)
 Keep R1 ints in memory in canonical form, NReq=7542502.
 FoFCou: FMM=F IPFlag=           0 FMFlag=           0 FMFlg1=           0
         NFxFlg=           0 DoJE=F BraDBF=F KetDBF=F FulRan=T
         wScrn=  0.000000 ICntrl=       600 IOpCl=  0 I1Cent=           0 NGrid=           0
         NMat0=    1 NMatS0=   3655 NMatT0=    0 NMatD0=    1 NMtDS0=    0 NMtDT0=    0
 Symmetry not used in FoFCou.
 Two-electron integral symmetry not used.
 Closed shell SCF:
 Using DIIS extrapolation, IDIIS=  1040.
 NGot=   134217728 LenX=   127520231 LenY=   127512565
 Requested convergence on RMS density matrix=1.00D-08 within 128 cycles.
 Requested convergence on MAX density matrix=1.00D-06.
 Requested convergence on             energy=1.00D-06.
 No special actions if energy rises.

 Cycle   1  Pass 1  IDiag  1:
 E= -282.823948079002    
 DIIS: error= 3.48D-03 at cycle   1 NSaved=   1.
 NSaved= 1 IEnMin= 1 EnMin= -282.823948079002     IErMin= 1 ErrMin= 3.48D-03
 ErrMax= 3.48D-03  0.00D+00 EMaxC= 1.00D-01 BMatC= 1.96D-03 BMatP= 1.96D-03
 IDIUse=3 WtCom= 9.65D-01 WtEn= 3.48D-02
 Coeff-Com:  0.100D+01
 Coeff-En:   0.100D+01
 Coeff:      0.100D+01
 Gap=     1.900 Goal=   None    Shift=    0.000
 GapD=    1.900 DampG=2.000 DampE=1.000 DampFc=2.0000 IDamp=-1.
 RMSDP=7.27D-04 MaxDP=1.16D-02              OVMax= 1.12D-02

 Cycle   2  Pass 1  IDiag  1:
 E= -282.826614590217     Delta-E=       -0.002666511215 Rises=F Damp=F
 DIIS: error= 1.01D-03 at cycle   2 NSaved=   2.
 NSaved= 2 IEnMin= 2 EnMin= -282.826614590217     IErMin= 2 ErrMin= 1.01D-03
 ErrMax= 1.01D-03  0.00D+00 EMaxC= 1.00D-01 BMatC= 1.49D-04 BMatP= 1.96D-03
 IDIUse=3 WtCom= 9.90D-01 WtEn= 1.01D-02
 Coeff-Com: -0.292D+00 0.129D+01
 Coeff-En:   0.000D+00 0.100D+01
 Coeff:     -0.289D+00 0.129D+01
 Gap=     0.586 Goal=   None    Shift=    0.000
 RMSDP=2.63D-04 MaxDP=3.99D-03 DE=-2.67D-03 OVMax= 5.10D-03

 Cycle   3  Pass 1  IDiag  1:
 E= -282.826934827077     Delta-E=       -0.000320236860 Rises=F Damp=F
 DIIS: error= 4.11D-04 at cycle   3 NSaved=   3.
 NSaved= 3 IEnMin= 3 EnMin= -282.826934827077     IErMin= 3 ErrMin= 4.11D-04
 ErrMax= 4.11D-04  0.00D+00 EMaxC= 1.00D-01 BMatC= 6.77D-06 BMatP= 1.49D-04
 IDIUse=3 WtCom= 9.96D-01 WtEn= 4.11D-03
 Coeff-Com: -0.384D-02-0.114D+00 0.112D+01
 Coeff-En:   0.000D+00 0.000D+00 0.100D+01
 Coeff:     -0.382D-02-0.113D+00 0.112D+01
 Gap=     0.586 Goal=   None    Shift=    0.000
 RMSDP=6.18D-05 MaxDP=6.79D-04 DE=-3.20D-04 OVMax= 1.76D-03

 Cycle   4  Pass 1  IDiag  1:
 E= -282.826952514206     Delta-E=       -0.000017687130 Rises=F Damp=F
 DIIS: error= 1.83D-04 at cycle   4 NSaved=   4.
 NSaved= 4 IEnMin= 4 EnMin= -282.826952514206     IErMin= 4 ErrMin= 1.83D-04
 ErrMax= 1.83D-04  0.00D+00 EMaxC= 1.00D-01 BMatC= 1.58D-06 BMatP= 6.77D-06
 IDIUse=3 WtCom= 9.98D-01 WtEn= 1.83D-03
 Coeff-Com:  0.225D-01-0.135D+00 0.281D+00 0.832D+00
 Coeff-En:   0.000D+00 0.000D+00 0.000D+00 0.100D+01
 Coeff:      0.224D-01-0.135D+00 0.280D+00 0.832D+00
 Gap=     0.586 Goal=   None    Shift=    0.000
 RMSDP=2.19D-05 MaxDP=2.34D-04 DE=-1.77D-05 OVMax= 7.71D-04

 Cycle   5  Pass 1  IDiag  1:
 E= -282.826955482303     Delta-E=       -0.000002968096 Rises=F Damp=F
 DIIS: error= 9.34D-05 at cycle   5 NSaved=   5.
 NSaved= 5 IEnMin= 5 EnMin= -282.826955482303     IErMin= 5 ErrMin= 9.34D-05
 ErrMax= 9.34D-05  0.00D+00 EMaxC= 1.00D-01 BMatC= 2.83D-07 BMatP= 1.58D-06
 IDIUse=1 WtCom= 1.00D+00 WtEn= 0.00D+00
 Coeff-Com:  0.773D-03 0.207D-01-0.206D+00 0.279D-01 0.116D+01
 Coeff:      0.773D-03 0.207D-01-0.206D+00 0.279D-01 0.116D+01
 Gap=     0.586 Goal=   None    Shift=    0.000
 RMSDP=1.46D-05 MaxDP=2.19D-04 DE=-2.97D-06 OVMax= 6.21D-04

 Cycle   6  Pass 1  IDiag  1:
 E= -282.826956436492     Delta-E=       -0.000000954190 Rises=F Damp=F
 DIIS: error= 3.85D-05 at cycle   6 NSaved=   6.
 NSaved= 6 IEnMin= 6 EnMin= -282.826956436492     IErMin= 6 ErrMin= 3.85D-05
 ErrMax= 3.85D-05  0.00D+00 EMaxC= 1.00D-01 BMatC= 4.16D-08 BMatP= 2.83D-07
 IDIUse=1 WtCom= 1.00D+00 WtEn= 0.00D+00
 Coeff-Com: -0.430D-02 0.254D-01-0.447D-01-0.155D+00-0.324D-01 0.121D+01
 Coeff:     -0.430D-02 0.254D-01-0.447D-01-0.155D+00-0.324D-01 0.121D+01
 Gap=     0.586 Goal=   None    Shift=    0.000
 RMSDP=6.91D-06 MaxDP=1.24D-04 DE=-9.54D-07 OVMax= 3.23D-04

 Cycle   7  Pass 1  IDiag  1:
 E= -282.826956600797     Delta-E=       -0.000000164305 Rises=F Damp=F
 DIIS: error= 8.56D-06 at cycle   7 NSaved=   7.
 NSaved= 7 IEnMin= 7 EnMin= -282.826956600797     IErMin= 7 ErrMin= 8.56D-06
 ErrMax= 8.56D-06  0.00D+00 EMaxC= 1.00D-01 BMatC= 5.05D-09 BMatP= 4.16D-08
 IDIUse=1 WtCom= 1.00D+00 WtEn= 0.00D+00
 Coeff-Com: -0.729D-03 0.165D-02 0.149D-01-0.251D-01-0.125D+00 0.174D+00
 Coeff-Com:  0.960D+00
 Coeff:     -0.729D-03 0.165D-02 0.149D-01-0.251D-01-0.125D+00 0.174D+00
 Coeff:      0.960D+00
 Gap=     0.586 Goal=   None    Shift=    0.000
 RMSDP=1.75D-06 MaxDP=3.56D-05 DE=-1.64D-07 OVMax= 8.77D-05

 Cycle   8  Pass 1  IDiag  1:
 E= -282.826956615447     Delta-E=       -0.000000014650 Rises=F Damp=F
 DIIS: error= 3.75D-06 at cycle   8 NSaved=   8.
 NSaved= 8 IEnMin= 8 EnMin= -282.826956615447     IErMin= 8 ErrMin= 3.75D-06
 ErrMax= 3.75D-06  0.00D+00 EMaxC= 1.00D-01 BMatC= 8.91D-10 BMatP= 5.05D-09
 IDIUse=1 WtCom= 1.00D+00 WtEn= 0.00D+00
 Coeff-Com:  0.703D-03-0.429D-02 0.821D-02 0.259D-01 0.119D-02-0.205D+00
 Coeff-Com:  0.484D-01 0.112D+01
 Coeff:      0.703D-03-0.429D-02 0.821D-02 0.259D-01 0.119D-02-0.205D+00
 Coeff:      0.484D-01 0.112D+01
 Gap=     0.586 Goal=   None    Shift=    0.000
 RMSDP=8.63D-07 MaxDP=1.75D-05 DE=-1.47D-08 OVMax= 4.29D-05

 Cycle   9  Pass 1  IDiag  1:
 E= -282.826956618627     Delta-E=       -0.000000003180 Rises=F Damp=F
 DIIS: error= 1.81D-06 at cycle   9 NSaved=   9.
 NSaved= 9 IEnMin= 9 EnMin= -282.826956618627     IErMin= 9 ErrMin= 1.81D-06
 ErrMax= 1.81D-06  0.00D+00 EMaxC= 1.00D-01 BMatC= 1.14D-10 BMatP= 8.91D-10
 IDIUse=1 WtCom= 1.00D+00 WtEn= 0.00D+00
 Coeff-Com: -0.828D-04 0.862D-03-0.414D-02-0.220D-02 0.188D-01 0.195D-01
 Coeff-Com: -0.160D+00-0.251D+00 0.138D+01
 Coeff:     -0.828D-04 0.862D-03-0.414D-02-0.220D-02 0.188D-01 0.195D-01
 Coeff:     -0.160D+00-0.251D+00 0.138D+01
 Gap=     0.586 Goal=   None    Shift=    0.000
 RMSDP=4.02D-07 MaxDP=7.45D-06 DE=-3.18D-09 OVMax= 1.87D-05

 Cycle  10  Pass 1  IDiag  1:
 E= -282.826956619129     Delta-E=       -0.000000000501 Rises=F Damp=F
 DIIS: error= 5.06D-07 at cycle  10 NSaved=  10.
 NSaved=10 IEnMin=10 EnMin= -282.826956619129     IErMin=10 ErrMin= 5.06D-07
 ErrMax= 5.06D-07  0.00D+00 EMaxC= 1.00D-01 BMatC= 8.08D-12 BMatP= 1.14D-10
 IDIUse=1 WtCom= 1.00D+00 WtEn= 0.00D+00
 Coeff-Com: -0.690D-04 0.431D-03-0.943D-03-0.243D-02 0.463D-03 0.190D-01
 Coeff-Com: -0.901D-02-0.106D+00 0.227D-01 0.108D+01
 Coeff:     -0.690D-04 0.431D-03-0.943D-03-0.243D-02 0.463D-03 0.190D-01
 Coeff:     -0.901D-02-0.106D+00 0.227D-01 0.108D+01
 Gap=     0.586 Goal=   None    Shift=    0.000
 RMSDP=8.91D-08 MaxDP=1.45D-06 DE=-5.01D-10 OVMax= 4.00D-06

 Cycle  11  Pass 1  IDiag  1:
 E= -282.826956619155     Delta-E=       -0.000000000026 Rises=F Damp=F
 DIIS: error= 1.49D-07 at cycle  11 NSaved=  11.
 NSaved=11 IEnMin=11 EnMin= -282.826956619155     IErMin=11 ErrMin= 1.49D-07
 ErrMax= 1.49D-07  0.00D+00 EMaxC= 1.00D-01 BMatC= 7.65D-13 BMatP= 8.08D-12
 IDIUse=1 WtCom= 1.00D+00 WtEn= 0.00D+00
 Coeff-Com:  0.390D-05-0.601D-04 0.329D-03 0.108D-03-0.176D-02-0.135D-02
 Coeff-Com:  0.168D-01 0.216D-01-0.148D+00 0.457D-01 0.107D+01
 Coeff:      0.390D-05-0.601D-04 0.329D-03 0.108D-03-0.176D-02-0.135D-02
 Coeff:      0.168D-01 0.216D-01-0.148D+00 0.457D-01 0.107D+01
 Gap=     0.586 Goal=   None    Shift=    0.000
 RMSDP=2.41D-08 MaxDP=3.04D-07 DE=-2.61D-11 OVMax= 9.24D-07

 Cycle  12  Pass 1  IDiag  1:
 E= -282.826956619157     Delta-E=       -0.000000000002 Rises=F Damp=F
 DIIS: error= 3.61D-08 at cycle  12 NSaved=  12.
 NSaved=12 IEnMin=12 EnMin= -282.826956619157     IErMin=12 ErrMin= 3.61D-08
 ErrMax= 3.61D-08  0.00D+00 EMaxC= 1.00D-01 BMatC= 5.11D-14 BMatP= 7.65D-13
 IDIUse=1 WtCom= 1.00D+00 WtEn= 0.00D+00
 Coeff-Com:  0.390D-05-0.184D-04-0.380D-06 0.172D-03 0.302D-03-0.132D-02
 Coeff-Com: -0.174D-02 0.487D-02 0.170D-01-0.825D-01-0.128D+00 0.119D+01
 Coeff:      0.390D-05-0.184D-04-0.380D-06 0.172D-03 0.302D-03-0.132D-02
 Coeff:     -0.174D-02 0.487D-02 0.170D-01-0.825D-01-0.128D+00 0.119D+01
 Gap=     0.586 Goal=   None    Shift=    0.000
 RMSDP=6.08D-09 MaxDP=8.68D-08 DE=-2.39D-12 OVMax= 1.55D-07

 SCF Done:  E(RHF) =  -282.826956619     A.U. after   12 cycles
            NFock= 12  Conv=0.61D-08     -V/T= 2.0017
 KE= 2.823469550791D+02 PE=-1.029613453591D+03 EE= 2.825705517776D+02
 Leave Link  502 at Mon Nov 27 10:26:09 2023, MaxMem=   134217728 cpu:               2.1 elap:               0.6
 (Enter /home/emanuele/chem_software/gaussian//gdv/l701.exe)
 ... and contract with generalized density number  0.
 Compute integral first derivatives.
 Leave Link  701 at Mon Nov 27 10:26:09 2023, MaxMem=   134217728 cpu:               0.5 elap:               0.1
 (Enter /home/emanuele/chem_software/gaussian//gdv/l702.exe)
 L702 exits ... SP integral derivatives will be done elsewhere.
 Leave Link  702 at Mon Nov 27 10:26:09 2023, MaxMem=   134217728 cpu:               0.1 elap:               0.0
 (Enter /home/emanuele/chem_software/gaussian//gdv/l703.exe)
 Integral derivatives from FoFJK, PRISM(SPDF).
 Compute integral first derivatives, UseDBF=F ICtDFT=           0.
 Calling FoFJK, ICntrl=      2127 FMM=F ISym2X=0 I1Cent= 0 IOpClX= 0 NMat=1 NMatS=1 NMatT=0.
 FoFJK:  IHMeth= 1 ICntrl=    2127 DoSepK=F KAlg= 0 I1Cent=           0 FoldK=F
 IRaf=         0 NMat=       1 IRICut=       1 DoRegI=T DoRafI=F ISym2E= 0 IDoP0=0 IntGTp=1.
 FoFCou: FMM=F IPFlag=           0 FMFlag=      100000 FMFlg1=         800
         NFxFlg=           0 DoJE=F BraDBF=F KetDBF=F FulRan=T
         wScrn=  0.000000 ICntrl=      2127 IOpCl=  0 I1Cent=           0 NGrid=           0
         NMat0=    1 NMatS0=      1 NMatT0=    0 NMatD0=    1 NMtDS0=    0 NMtDT0=    0
 Symmetry not used in FoFCou.
 Leave Link  703 at Mon Nov 27 10:26:10 2023, MaxMem=   134217728 cpu:               2.6 elap:               0.9
 (Enter /home/emanuele/chem_software/gaussian//gdv/l716.exe)
 Dipole        =-8.70229998D-02-6.30744816D-01 6.07757088D-01
 -------------------------------------------------------------------
 Center     Atomic                   Forces (Hartrees/Bohr)
 Number     Number              X              Y              Z
 -------------------------------------------------------------------
      1        6           0.002382534   -0.003021990   -0.018206870
      2        8          -0.000454616   -0.003430910    0.005078937
      3        6           0.000499460    0.000407664    0.006399285
      4        1           0.001222368   -0.001495766    0.001242083
      5        1          -0.000819856   -0.000248680   -0.000658024
      6        7          -0.001284877   -0.000117700   -0.001672293
      7        1          -0.000056893    0.001506129    0.000915970
      8        1           0.001297446   -0.000893066    0.000473667
      9        8          -0.000447746    0.005732589    0.006480545
     10        1          -0.002337819    0.001561729   -0.000053301
 -------------------------------------------------------------------
 Cartesian Forces:  Max     0.018206870 RMS     0.004183799
 Leave Link  716 at Mon Nov 27 10:26:10 2023, MaxMem=   134217728 cpu:               0.2 elap:               0.1
 (Enter /home/emanuele/chem_software/gaussian//gdv/l103.exe)

 GradGradGradGradGradGradGradGradGradGradGradGradGradGradGradGradGradGrad
 Berny optimization.
 Using GEDIIS/GDIIS optimizer.
 FormGI is forming the generalized inverse of G from B-inverse, IUseBI=4.
 Internal  Forces:  Max     0.005706383 RMS     0.002010162
 Search for a local minimum.
 Step number   3 out of a maximum of  100 on scan point     1 out of    11
 All quantities printed in internal units (Hartrees-Bohrs-Radians)
 RMS Force = .20150D-02 SwitMx=.10000D-02 MixMth= 1
 Mixed Optimization -- RFO/linear search
 Update second derivatives using D2CorX and points    1    3    2
 DE=  5.54D-04 DEPred=-3.00D-04 R=-1.85D+00
 Trust test=-1.85D+00 RLast= 1.90D-01 DXMaxT set to 1.50D-01
 ITU= -1  1  0
 Use linear search instead of GDIIS.
     Eigenvalues ---    0.00640   0.02314   0.02346   0.04526   0.05979
     Eigenvalues ---    0.06512   0.09835   0.12710   0.15297   0.16000
     Eigenvalues ---    0.16048   0.21994   0.23663   0.25005   0.31162
     Eigenvalues ---    0.33687   0.34625   0.38087   0.45581   0.46034
[...]
      8        1          -0.000567795    0.002817910   -0.000965331
      9        8          -0.002207343    0.000794468    0.000777086
     10        1          -0.000003969   -0.000105118    0.000361585
 -------------------------------------------------------------------
 Cartesian Forces:  Max     0.007769914 RMS     0.002765542
 Leave Link  716 at Mon Nov 27 10:26:21 2023, MaxMem=   134217728 cpu:               0.2 elap:               0.0
 (Enter /home/emanuele/chem_software/gaussian//gdv/l103.exe)

 GradGradGradGradGradGradGradGradGradGradGradGradGradGradGradGradGradGrad
 Berny optimization.
 Using GEDIIS/GDIIS optimizer.
 FormGI is forming the generalized inverse of G from B-inverse, IUseBI=4.
 Internal  Forces:  Max     0.003853525 RMS     0.001699117
 Search for a local minimum.
 Step number   3 out of a maximum of  100 on scan point     2 out of    11
 All quantities printed in internal units (Hartrees-Bohrs-Radians)
 RMS Force = .15810D-02 SwitMx=.10000D-02 MixMth= 1
 Mixed Optimization -- RFO/linear search
 Update second derivatives using D2CorX and points    2    3
 DE= -5.11D-03 DEPred=-5.07D-03 R= 1.01D+00
 TightC=F SS=  1.41D+00  RLast= 6.48D-01 DXNew= 4.8926D-01 1.9426D+00
 Trust test= 1.01D+00 RLast= 6.48D-01 DXMaxT set to 4.89D-01
 ITU=  1  1  0
 Use linear search instead of GDIIS.
     Eigenvalues ---    0.00644   0.02140   0.02352   0.04635   0.06146
     Eigenvalues ---    0.06768   0.10173   0.12294   0.15338   0.16058
     Eigenvalues ---    0.17543   0.22770   0.24799   0.26937   0.31799
     Eigenvalues ---    0.33946   0.35277   0.43317   0.45624   0.47307
     Eigenvalues ---    0.52638   0.54277   1.067481000.000001000.00000
     Eigenvalues --- 1000.000001000.000001000.000001000.000001000.00000
     Eigenvalues --- 1000.000001000.000001000.000001000.000001000.00000
     Eigenvalues --- 1000.00000
 RFO step:  Lambda=-5.22967979D-04 EMin= 6.44086132D-03
 Quartic linear search produced a step of -0.02008.
 Iteration  1 RMS(Cart)=  0.02239006 RMS(Int)=  0.00028296
 Iteration  2 RMS(Cart)=  0.00029294 RMS(Int)=  0.00008844
 Iteration  3 RMS(Cart)=  0.00000007 RMS(Int)=  0.00008844
 Fixing frozen coordinates.
 Iteration  1 RMS(Cart)=  0.00000812 RMS(Int)=  0.00000796
 Iteration  2 RMS(Cart)=  0.00000447 RMS(Int)=  0.00000889
 Iteration  3 RMS(Cart)=  0.00000246 RMS(Int)=  0.00001005
 Iteration  4 RMS(Cart)=  0.00000136 RMS(Int)=  0.00001082
 Iteration  5 RMS(Cart)=  0.00000075 RMS(Int)=  0.00001128
 ITry= 1 IFail=0 DXMaxC= 5.50D-02 DCOld= 1.00D+10 DXMaxT= 4.89D-01 DXLimC= 3.00D+00 Rises=F
 Variable       Old X    -DE/DX   Delta X   Delta X   Delta X     New X
                                 (Linear)    (Quad)   (Total)
    R1        2.51169   0.00257  -0.00010   0.00425   0.00415   2.51585
    R2        2.84797   0.00354   0.00034   0.00910   0.00944   2.85741
    R3        2.23868   0.00093   0.00009   0.00028   0.00037   2.23905
    R4        1.79993  -0.00009  -0.00002   0.00011   0.00009   1.80002
    R5        2.05745   0.00183  -0.00005   0.00562   0.00557   2.06302
    R6        2.04684  -0.00055   0.00022  -0.00232  -0.00210   2.04474
    R7        2.73656  -0.00065   0.00015  -0.00478  -0.00463   2.73193
    R8        1.89504  -0.00130   0.00023  -0.00374  -0.00351   1.89153
    R9        1.89786  -0.00206   0.00006  -0.00507  -0.00501   1.89285
    A1        1.93987   0.00134   0.00012   0.00430   0.00441   1.94428
    A2        2.15118  -0.00296  -0.00015  -0.01246  -0.01262   2.13856
    A3        2.19162   0.00160   0.00003   0.00785   0.00786   2.19948
    A4        1.89042   0.00016   0.00005   0.00063   0.00068   1.89110
    A5        1.85449  -0.00096   0.00291   0.00229   0.00519   1.85968
    A6        1.88009   0.00043  -0.00247   0.00670   0.00423   1.88432
    A7        1.92057   0.00340   0.00003   0.01831   0.01837   1.93894
    A8        1.87915  -0.00072  -0.00042  -0.01674  -0.01733   1.86182
    A9        2.01346  -0.00108   0.00015  -0.00197  -0.00186   2.01160
   A10        1.91102  -0.00103  -0.00058  -0.00818  -0.00879   1.90222
   A11        1.92156   0.00211  -0.00076   0.01383   0.01288   1.93445
   A12        1.89430   0.00385  -0.00027   0.02295   0.02250   1.91680
   A13        1.86349  -0.00061  -0.00247   0.00796   0.00513   1.86862
    D1        3.11738  -0.00062  -0.00006  -0.01696  -0.01697   3.10040
    D2        0.00860   0.00002  -0.00023  -0.00745  -0.00773   0.00087
    D3       -1.23570   0.00058   0.00091  -0.01993  -0.01904  -1.25474
    D4        0.77411  -0.00052   0.00042  -0.03492  -0.03446   0.73965
    D5        2.85637   0.00043  -0.00157  -0.03034  -0.03190   2.82447
    D6        1.87216  -0.00019   0.00108  -0.03018  -0.02914   1.84302
    D7       -2.40122  -0.00129   0.00059  -0.04517  -0.04457  -2.44579
    D8       -0.31895  -0.00033  -0.00140  -0.04059  -0.04200  -0.36096
    D9        1.23313  -0.00271   0.00000   0.00000  -0.00000   1.23313
   D10       -3.01615  -0.00004  -0.00339   0.03051   0.02726  -2.98889
   D11       -0.86432  -0.00328  -0.00413  -0.01555  -0.01971  -0.88403
   D12        1.16958  -0.00062  -0.00753   0.01496   0.00756   1.17714
   D13       -2.98676  -0.00078  -0.00324   0.01417   0.01080  -2.97595
   D14       -0.95286   0.00189  -0.00664   0.04468   0.03807  -0.91479
         Item               Value     Threshold  Converged?
 Maximum Force            0.003542     0.000450     NO 
 RMS     Force            0.001581     0.000300     NO 
 Maximum Displacement     0.055025     0.001800     NO 
 RMS     Displacement     0.022346     0.001200     NO 
 Predicted change in Energy=-2.667218D-04
 Lowest energy point so far.  Saving SCF results.
 GradGradGradGradGradGradGradGradGradGradGradGradGradGradGradGradGradGrad

 Leave Link  103 at Mon Nov 27 10:26:21 2023, MaxMem=   134217728 cpu:               0.0 elap:               0.0
 (Enter /home/emanuele/chem_software/gaussian//gdv/l202.exe)
                          Input orientation:                          
 ---------------------------------------------------------------------
 Center     Atomic      Atomic             Coordinates (Angstroms)
 Number     Number       Type             X           Y           Z
 ---------------------------------------------------------------------
      1          6           0       -0.584113    0.121876   -0.013281
      2          8           0       -1.627977   -0.701730   -0.080032
      3          6           0        0.708912   -0.640069    0.170850
      4          1           0        0.702475   -1.020940    1.193937
      5          1           0        0.683728   -1.502770   -0.481765
      6          7           0        1.849044    0.178585   -0.175400
      7          1           0        1.988991    0.899891    0.504337
      8          1           0        2.679288   -0.381699   -0.184606
      9          8           0       -0.699078    1.300549   -0.050575
     10          1           0       -2.419245   -0.177282   -0.158514
 ---------------------------------------------------------------------
                    Distance matrix (angstroms):
                    1          2          3          4          5
     1  C    0.000000
     2  O    1.331329   0.000000
     3  C    1.512077   2.351127   0.000000
     4  H    2.102073   2.675052   1.091702   0.000000
     5  H    2.113379   2.479322   1.082031   1.743699   0.000000
     6  N    2.439211   3.587998   1.445678   2.151410   2.068520
     7  H    2.737535   3.998642   2.030097   2.412522   2.906697
     8  H    3.306467   4.320404   2.018783   2.493351   2.308108
     9  O    1.184854   2.207452   2.407792   2.983701   3.155420
    10  H    1.865020   0.952528   3.179311   3.505142   3.389668
                    6          7          8          9         10
     6  N    0.000000
     7  H    1.000954   0.000000
     8  H    1.001652   1.610474   0.000000
     9  O    2.786989   2.773836   3.776410   0.000000
    10  H    4.283132   4.586090   5.102696   2.270378   0.000000
 Symmetry turned off by external request.
 Stoichiometry    C2H5NO2
 Framework group  C1[X(C2H5NO2)]
 Deg. of freedom    24
 Full point group                 C1      NOp   1
 Rotational constants (GHZ):          10.6532363           3.9290931           2.9642886
 Leave Link  202 at Mon Nov 27 10:26:21 2023, MaxMem=   134217728 cpu:               0.1 elap:               0.0
 (Enter /home/emanuele/chem_software/gaussian//gdv/l301.exe)
 Standard basis: 6-31G(d) (6D, 7F)
 Ernie: Thresh=  0.10000D-02 Tol=  0.10000D-05 Strict=F.
    85 basis functions,   160 primitive gaussians,    85 cartesian basis functions
    20 alpha electrons       20 beta electrons
       nuclear repulsion energy       180.8244360115 Hartrees.
 IExCor=       0 DFT=F Ex=HF Corr=None N6=None ScaHFX=  1.000000
 ScaDFX=  1.000000  1.000000  1.000000  1.000000  1.000000  0.000000
 ScaDFX=  0.000000  0.000000  0.000000  0.000000  0.000000  0.000000
 IRadAn=      5 IRanWt=     -1 IRanGd=            0 ICorTp=0 IEmpDi=  4
 NAtoms=   10 NActive=   10 NUniq=   10 SFac= 1.00D+00 NAtFMM=   60 NAOKFM=F Big=F
 Integral buffers will be    131072 words long.
 Raffenetti 1 integral format.
 Two-electron integral symmetry is turned off.
 Leave Link  301 at Mon Nov 27 10:26:21 2023, MaxMem=   134217728 cpu:               0.2 elap:               0.1
 (Enter /home/emanuele/chem_software/gaussian//gdv/l302.exe)
 NPDir=0 NMtPBC=     1 NCelOv=     1 NCel=       1 NClECP=     1 NCelD=      1
         NCelK=      1 NCelE2=     1 NClLst=     1 CellRange=     0.0.
 One-electron integrals computed using PRISM.
 NBasis=    85 RedAO= T EigKep=  3.67D-03  NBF=    85
 NBsUse=    85 1.00D-06 EigRej= -1.00D+00 NBFU=    85
 Leave Link  302 at Mon Nov 27 10:26:22 2023, MaxMem=   134217728 cpu:               0.5 elap:               0.1
 (Enter /home/emanuele/chem_software/gaussian//gdv/l303.exe)
 DipDrv:  MaxL=1.
 Leave Link  303 at Mon Nov 27 10:26:22 2023, MaxMem=   134217728 cpu:               0.2 elap:               0.0
 (Enter /home/emanuele/chem_software/gaussian//gdv/l401.exe)
 Initial guess from the checkpoint file:  "2_qm.chk"
 B after Tr=    -0.010936    0.000575    0.003510
         Rot=    0.999977   -0.006644    0.001450   -0.000766 Ang=  -0.78 deg.
 AO Guess basis will be translated and rotated to current coordinates.
 JPrj=2 DoOrth=T DoCkMO=T.
 Generating alternative initial guess.
 ExpMin= 1.61D-01 ExpMax= 5.48D+03 ExpMxC= 8.25D+02 IAcc=3 IRadAn=         5 AccDes= 0.00D+00
 Harris functional with IExCor= 2005 and IRadAn=       5 diagonalized for initial guess.
 HarFok:  IExCor=    2005 AccDes= 0.00D+00 IRadAn=         5 IDoV= 1 UseB2=F ITyADJ=14 ICtDFT=  3500011
 FoFCou: FMM=F IPFlag=           0 FMFlag=      100000 FMFlg1=           0
         NFxFlg=           0 DoJE=T BraDBF=F KetDBF=T FulRan=T
         wScrn=  0.000000 ICntrl=       500 IOpCl=  0 I1Cent=   200000004 NGrid=           0
         NMat0=    1 NMatS0=      1 NMatT0=    0 NMatD0=    1 NMtDS0=    0 NMtDT0=    0
 Symmetry not used in FoFCou.
 Harris En= -283.088966042494    
 Leave Link  401 at Mon Nov 27 10:26:22 2023, MaxMem=   134217728 cpu:               2.5 elap:               0.6
 (Enter /home/emanuele/chem_software/gaussian//gdv/l502.exe)
 Keep R1 ints in memory in canonical form, NReq=7542387.
 FoFCou: FMM=F IPFlag=           0 FMFlag=           0 FMFlg1=           0
         NFxFlg=           0 DoJE=F BraDBF=F KetDBF=F FulRan=T
         wScrn=  0.000000 ICntrl=       600 IOpCl=  0 I1Cent=           0 NGrid=           0
         NMat0=    1 NMatS0=   3655 NMatT0=    0 NMatD0=    1 NMtDS0=    0 NMtDT0=    0
 Symmetry not used in FoFCou.
 Two-electron integral symmetry not used.
 Closed shell SCF:
 Using DIIS extrapolation, IDIIS=  1040.
 NGot=   134217728 LenX=   127520231 LenY=   127512565
 Requested convergence on RMS density matrix=1.00D-08 within 128 cycles.
 Requested convergence on MAX density matrix=1.00D-06.
 Requested convergence on             energy=1.00D-06.
 No special actions if energy rises.

 Cycle   1  Pass 1  IDiag  1:
 E= -282.825881805360    
 DIIS: error= 1.76D-03 at cycle   1 NSaved=   1.
 NSaved= 1 IEnMin= 1 EnMin= -282.825881805360     IErMin= 1 ErrMin= 1.76D-03
 ErrMax= 1.76D-03  0.00D+00 EMaxC= 1.00D-01 BMatC= 5.00D-04 BMatP= 5.00D-04
 IDIUse=3 WtCom= 9.82D-01 WtEn= 1.76D-02
 Coeff-Com:  0.100D+01
 Coeff-En:   0.100D+01
 Coeff:      0.100D+01
 Gap=     1.935 Goal=   None    Shift=    0.000
 GapD=    1.935 DampG=2.000 DampE=1.000 DampFc=2.0000 IDamp=-1.
 RMSDP=2.87D-04 MaxDP=3.11D-03              OVMax= 4.20D-03

 Cycle   2  Pass 1  IDiag  1:
 E= -282.826544321288     Delta-E=       -0.000662515928 Rises=F Damp=F
 DIIS: error= 5.00D-04 at cycle   2 NSaved=   2.
 NSaved= 2 IEnMin= 2 EnMin= -282.826544321288     IErMin= 2 ErrMin= 5.00D-04
 ErrMax= 5.00D-04  0.00D+00 EMaxC= 1.00D-01 BMatC= 3.56D-05 BMatP= 5.00D-04
 IDIUse=3 WtCom= 9.95D-01 WtEn= 5.00D-03
 Coeff-Com: -0.253D+00 0.125D+01
 Coeff-En:   0.000D+00 0.100D+01
 Coeff:     -0.252D+00 0.125D+01
 Gap=     0.598 Goal=   None    Shift=    0.000
 RMSDP=1.11D-04 MaxDP=1.19D-03 DE=-6.63D-04 OVMax= 2.41D-03

 Cycle   3  Pass 1  IDiag  1:
 E= -282.826611859557     Delta-E=       -0.000067538269 Rises=F Damp=F
 DIIS: error= 1.64D-04 at cycle   3 NSaved=   3.
 NSaved= 3 IEnMin= 3 EnMin= -282.826611859557     IErMin= 3 ErrMin= 1.64D-04
 ErrMax= 1.64D-04  0.00D+00 EMaxC= 1.00D-01 BMatC= 2.88D-06 BMatP= 3.56D-05
 IDIUse=3 WtCom= 9.98D-01 WtEn= 1.64D-03
 Coeff-Com: -0.777D-01 0.224D+00 0.854D+00
 Coeff-En:   0.000D+00 0.000D+00 0.100D+01
 Coeff:     -0.776D-01 0.223D+00 0.854D+00
 Gap=     0.598 Goal=   None    Shift=    0.000
 RMSDP=2.77D-05 MaxDP=3.71D-04 DE=-6.75D-05 OVMax= 6.04D-04

 Cycle   4  Pass 1  IDiag  1:
 E= -282.826616112430     Delta-E=       -0.000004252874 Rises=F Damp=F
 DIIS: error= 8.46D-05 at cycle   4 NSaved=   4.
 NSaved= 4 IEnMin= 4 EnMin= -282.826616112430     IErMin= 4 ErrMin= 8.46D-05
 ErrMax= 8.46D-05  0.00D+00 EMaxC= 1.00D-01 BMatC= 3.81D-07 BMatP= 2.88D-06
 IDIUse=1 WtCom= 1.00D+00 WtEn= 0.00D+00
 Coeff-Com:  0.169D-01-0.112D+00 0.102D+00 0.993D+00
 Coeff:      0.169D-01-0.112D+00 0.102D+00 0.993D+00
 Gap=     0.598 Goal=   None    Shift=    0.000
 RMSDP=1.49D-05 MaxDP=2.16D-04 DE=-4.25D-06 OVMax= 3.44D-04

 Cycle   5  Pass 1  IDiag  1:
 E= -282.826616944347     Delta-E=       -0.000000831917 Rises=F Damp=F
 DIIS: error= 3.57D-05 at cycle   5 NSaved=   5.
 NSaved= 5 IEnMin= 5 EnMin= -282.826616944347     IErMin= 5 ErrMin= 3.57D-05
 ErrMax= 3.57D-05  0.00D+00 EMaxC= 1.00D-01 BMatC= 5.62D-08 BMatP= 3.81D-07
 IDIUse=1 WtCom= 1.00D+00 WtEn= 0.00D+00
 Coeff-Com:  0.947D-02-0.356D-01-0.656D-01 0.129D+00 0.963D+00
 Coeff:      0.947D-02-0.356D-01-0.656D-01 0.129D+00 0.963D+00
 Gap=     0.598 Goal=   None    Shift=    0.000
 RMSDP=5.65D-06 MaxDP=8.19D-05 DE=-8.32D-07 OVMax= 1.60D-04

 Cycle   6  Pass 1  IDiag  1:
 E= -282.826617085288     Delta-E=       -0.000000140941 Rises=F Damp=F
 DIIS: error= 1.80D-05 at cycle   6 NSaved=   6.
 NSaved= 6 IEnMin= 6 EnMin= -282.826617085288     IErMin= 6 ErrMin= 1.80D-05
 ErrMax= 1.80D-05  0.00D+00 EMaxC= 1.00D-01 BMatC= 1.26D-08 BMatP= 5.62D-08
 IDIUse=1 WtCom= 1.00D+00 WtEn= 0.00D+00
 Coeff-Com: -0.260D-02 0.205D-01-0.302D-01-0.201D+00 0.135D+00 0.108D+01
 Coeff:     -0.260D-02 0.205D-01-0.302D-01-0.201D+00 0.135D+00 0.108D+01
 Gap=     0.598 Goal=   None    Shift=    0.000
 RMSDP=3.16D-06 MaxDP=4.30D-05 DE=-1.41D-07 OVMax= 1.14D-04

 Cycle   7  Pass 1  IDiag  1:
 E= -282.826617123978     Delta-E=       -0.000000038690 Rises=F Damp=F
 DIIS: error= 5.30D-06 at cycle   7 NSaved=   7.
 NSaved= 7 IEnMin= 7 EnMin= -282.826617123978     IErMin= 7 ErrMin= 5.30D-06
 ErrMax= 5.30D-06  0.00D+00 EMaxC= 1.00D-01 BMatC= 1.40D-09 BMatP= 1.26D-08
 IDIUse=1 WtCom= 1.00D+00 WtEn= 0.00D+00
 Coeff-Com: -0.128D-02 0.446D-02 0.996D-02-0.136D-01-0.145D+00-0.360D-01
 Coeff-Com:  0.118D+01
 Coeff:     -0.128D-02 0.446D-02 0.996D-02-0.136D-01-0.145D+00-0.360D-01
 Coeff:      0.118D+01
 Gap=     0.598 Goal=   None    Shift=    0.000
 RMSDP=1.21D-06 MaxDP=2.16D-05 DE=-3.87D-08 OVMax= 5.53D-05

 Cycle   8  Pass 1  IDiag  1:
 E= -282.826617129475     Delta-E=       -0.000000005497 Rises=F Damp=F
 DIIS: error= 1.73D-06 at cycle   8 NSaved=   8.
 NSaved= 8 IEnMin= 8 EnMin= -282.826617129475     IErMin= 8 ErrMin= 1.73D-06
 ErrMax= 1.73D-06  0.00D+00 EMaxC= 1.00D-01 BMatC= 1.91D-10 BMatP= 1.40D-09
 IDIUse=1 WtCom= 1.00D+00 WtEn= 0.00D+00
 Coeff-Com:  0.330D-03-0.252D-02 0.387D-02 0.254D-01-0.190D-01-0.137D+00
 Coeff-Com:  0.545D-01 0.107D+01
 Coeff:      0.330D-03-0.252D-02 0.387D-02 0.254D-01-0.190D-01-0.137D+00
 Coeff:      0.545D-01 0.107D+01
 Gap=     0.598 Goal=   None    Shift=    0.000
 RMSDP=4.31D-07 MaxDP=7.54D-06 DE=-5.50D-09 OVMax= 1.90D-05

 Cycle   9  Pass 1  IDiag  1:
 E= -282.826617130173     Delta-E=       -0.000000000697 Rises=F Damp=F
 DIIS: error= 9.40D-07 at cycle   9 NSaved=   9.
 NSaved= 9 IEnMin= 9 EnMin= -282.826617130173     IErMin= 9 ErrMin= 9.40D-07
 ErrMax= 9.40D-07  0.00D+00 EMaxC= 1.00D-01 BMatC= 3.05D-11 BMatP= 1.91D-10
 IDIUse=1 WtCom= 1.00D+00 WtEn= 0.00D+00
 Coeff-Com:  0.209D-03-0.561D-03-0.230D-02-0.149D-04 0.284D-01 0.220D-01
 Coeff-Com: -0.215D+00-0.167D+00 0.133D+01
 Coeff:      0.209D-03-0.561D-03-0.230D-02-0.149D-04 0.284D-01 0.220D-01
 Coeff:     -0.215D+00-0.167D+00 0.133D+01
 Gap=     0.598 Goal=   None    Shift=    0.000
 RMSDP=2.42D-07 MaxDP=4.08D-06 DE=-6.97D-10 OVMax= 1.03D-05

 Cycle  10  Pass 1  IDiag  1:
 E= -282.826617130320     Delta-E=       -0.000000000148 Rises=F Damp=F
 DIIS: error= 2.78D-07 at cycle  10 NSaved=  10.
 NSaved=10 IEnMin=10 EnMin= -282.826617130320     IErMin=10 ErrMin= 2.78D-07
 ErrMax= 2.78D-07  0.00D+00 EMaxC= 1.00D-01 BMatC= 2.54D-12 BMatP= 3.05D-11
 IDIUse=1 WtCom= 1.00D+00 WtEn= 0.00D+00
 Coeff-Com: -0.612D-04 0.295D-03 0.759D-04-0.222D-02-0.404D-02 0.818D-02
 Coeff-Com:  0.391D-01-0.773D-01-0.268D+00 0.130D+01
 Coeff:     -0.612D-04 0.295D-03 0.759D-04-0.222D-02-0.404D-02 0.818D-02
 Coeff:      0.391D-01-0.773D-01-0.268D+00 0.130D+01
 Gap=     0.598 Goal=   None    Shift=    0.000
 RMSDP=6.33D-08 MaxDP=1.13D-06 DE=-1.48D-10 OVMax= 2.90D-06

 Cycle  11  Pass 1  IDiag  1:
 E= -282.826617130331     Delta-E=       -0.000000000011 Rises=F Damp=F
 DIIS: error= 7.31D-08 at cycle  11 NSaved=  11.
 NSaved=11 IEnMin=11 EnMin= -282.826617130331     IErMin=11 ErrMin= 7.31D-08
 ErrMax= 7.31D-08  0.00D+00 EMaxC= 1.00D-01 BMatC= 2.43D-13 BMatP= 2.54D-12
 IDIUse=1 WtCom= 1.00D+00 WtEn= 0.00D+00
 Coeff-Com: -0.248D-04 0.823D-04 0.192D-03-0.248D-03-0.289D-02-0.899D-03
 Coeff-Com:  0.221D-01 0.781D-02-0.142D+00 0.118D+00 0.998D+00
 Coeff:     -0.248D-04 0.823D-04 0.192D-03-0.248D-03-0.289D-02-0.899D-03
 Coeff:      0.221D-01 0.781D-02-0.142D+00 0.118D+00 0.998D+00
 Gap=     0.598 Goal=   None    Shift=    0.000
 RMSDP=1.42D-08 MaxDP=2.10D-07 DE=-1.11D-11 OVMax= 5.49D-07

 Cycle  12  Pass 1  IDiag  1:
 E= -282.826617130331     Delta-E=        0.000000000000 Rises=F Damp=F
 DIIS: error= 2.02D-08 at cycle  12 NSaved=  12.
 NSaved=12 IEnMin=11 EnMin= -282.826617130331     IErMin=12 ErrMin= 2.02D-08
 ErrMax= 2.02D-08  0.00D+00 EMaxC= 1.00D-01 BMatC= 3.13D-14 BMatP= 2.43D-13
 IDIUse=1 WtCom= 1.00D+00 WtEn= 0.00D+00
 Coeff-Com:  0.502D-05-0.260D-04-0.327D-05 0.219D-03 0.333D-03-0.801D-03
 Coeff-Com: -0.379D-02 0.924D-02 0.254D-01-0.155D+00 0.703D-01 0.105D+01
 Coeff:      0.502D-05-0.260D-04-0.327D-05 0.219D-03 0.333D-03-0.801D-03
 Coeff:     -0.379D-02 0.924D-02 0.254D-01-0.155D+00 0.703D-01 0.105D+01
 Gap=     0.598 Goal=   None    Shift=    0.000
 RMSDP=5.12D-09 MaxDP=7.68D-08 DE= 3.41D-13 OVMax= 1.48D-07

 SCF Done:  E(RHF) =  -282.826617130     A.U. after   12 cycles
            NFock= 12  Conv=0.51D-08     -V/T= 2.0019
 KE= 2.823003401361D+02 PE=-1.027602610506D+03 EE= 2.816512172285D+02
 Leave Link  502 at Mon Nov 27 10:26:23 2023, MaxMem=   134217728 cpu:               2.1 elap:               0.5
 (Enter /home/emanuele/chem_software/gaussian//gdv/l701.exe)
