 Entering Gaussian System, Link 0=/home/emanuele/chem_software/gaussian//g09/g09
 Input=2_qm.gjf
 Output=2_qm.log
 Initial command:
 /home/emanuele/chem_software/gaussian//gdv/l1.exe "/home/emanuele/chem_software/gaussian/scratch/Gau-14710.inp" -scrdir="/home/emanuele/chem_software/gaussian/scratch/"
 Entering Link 1 = /home/emanuele/chem_software/gaussian//gdv/l1.exe PID=     14712.
  
 Copyright (c) 1988-2020, Gaussian, Inc.  All Rights Reserved.
  
 This is the private, development version of
 the Gaussian(R) DV system of programs. It is based on
 the Gaussian(R) 16 system (copyright 2016, Gaussian, Inc.),
 the Gaussian(R) 09 system (copyright 2009, Gaussian, Inc.),
 the Gaussian(R) 03 system (copyright 2003, Gaussian, Inc.),
 the Gaussian(R) 98 system (copyright 1998, Gaussian, Inc.),
 the Gaussian(R) 94 system (copyright 1995, Gaussian, Inc.),
 the Gaussian 92(TM) system (copyright 1992, Gaussian, Inc.),
 the Gaussian 90(TM) system (copyright 1990, Gaussian, Inc.),
 the Gaussian 88(TM) system (copyright 1988, Gaussian, Inc.),
 the Gaussian 86(TM) system (copyright 1986, Carnegie Mellon
 University), and the Gaussian 82(TM) system (copyright 1983,
 Carnegie Mellon University). Gaussian is a federally registered
 trademark of Gaussian, Inc.
  
 This software contains proprietary and confidential information,
 including trade secrets, belonging to Gaussian, Inc.
  
 This software is provided under written license and may be
 used, copied, transmitted, or stored only in accord with that
 written license.
  
 The following legend is applicable only to US Government
 contracts under FAR:
  
                    RESTRICTED RIGHTS LEGEND
  
 Use, reproduction and disclosure by the US Government is
 subject to restrictions as set forth in subparagraphs (a)
 and (c) of the Commercial Computer Software - Restricted
 Rights clause in FAR 52.227-19.
  
 Gaussian, Inc.
 340 Quinnipiac St., Bldg. 40, Wallingford CT 06492
  
  
 ---------------------------------------------------------------
 Warning -- This program may not be used in any manner that
 competes with the business of Gaussian, Inc. or will provide
 assistance to any competitor of Gaussian, Inc.  The licensee
 of this program is prohibited from giving any competitor of
 Gaussian, Inc. access to this program.  By using this program,
 the user acknowledges that Gaussian, Inc. is engaged in the
 business of creating and licensing software in the field of
 computational chemistry and represents and warrants to the
 licensee that it is not a competitor of Gaussian, Inc. and that
 it will not use this program in any manner prohibited above.
 ---------------------------------------------------------------
  

 Cite this work as:
 Gaussian Development Version, Revision J.14,
 M. J. Frisch, G. W. Trucks, H. B. Schlegel, G. E. Scuseria, 
 M. A. Robb, J. R. Cheeseman, G. Scalmani, V. Barone, 
 G. A. Petersson, H. Nakatsuji, X. Li, A. V. Marenich, M. Caricato, 
 J. Bloino, B. G. Janesko, J. Zheng, R. Gomperts, B. Mennucci, 
 H. P. Hratchian, J. V. Ortiz, A. F. Izmaylov, J. L. Sonnenberg, 
 D. Williams-Young, F. Ding, F. Lipparini, F. Egidi, J. Goings, 
 B. Peng, A. Petrone, T. Henderson, D. Ranasinghe, V. G. Zakrzewski, 
 J. Gao, N. Rega, G. Zheng, W. Liang, M. Hada, M. Ehara, K. Toyota, 
 R. Fukuda, J. Hasegawa, M. Ishida, T. Nakajima, Y. Honda, O. Kitao, 
 H. Nakai, T. Vreven, K. Throssell, J. A. Montgomery, Jr., 
 J. E. Peralta, F. Ogliaro, M. J. Bearpark, J. J. Heyd, 
 E. N. Brothers, K. N. Kudin, V. N. Staroverov, T. A. Keith, 
 R. Kobayashi, J. Normand, K. Raghavachari, A. P. Rendell, 
 J. C. Burant, S. S. Iyengar, J. Tomasi, M. Cossi, J. M. Millam, 
 M. Klene, C. Adamo, R. Cammi, J. W. Ochterski, R. L. Martin, 
 K. Morokuma, O. Farkas, J. B. Foresman, and D. J. Fox, 
 Gaussian, Inc., Wallingford CT, 2020.
 
 ******************************************
 Gaussian DV:  ES64L-GDVRevJ.14 29-Dec-2020
                 1-Jan-2024 
 ******************************************
 %mem=1GB
 %nprocshared=4
 Will use up to    4 processors via shared memory.
 %chk=2_qm.chk
 -------------------------------------------------------------------
 #p nosymm geom=nocrowd opt=(modredundant,maxcycle=100) PBEPBE/6-31G
 -------------------------------------------------------------------
 1/6=100,18=120,19=15,26=3,37=210000000,38=1/1,3;
 2/9=110,12=1,15=1,40=1/2;
 3/5=1,6=6,11=2,25=1,30=1,71=1,74=10009/1,2,3;
 4//1;
 5/5=2,38=5/2;
 6/7=2,8=2,9=2,10=2,28=1/1;
 7/30=1/1,2,3,16;
 1/6=100,18=20,19=15,26=3/3(2);
 2/9=110,12=1,15=1/2;
 99//99;
 2/9=110,12=1,15=1/2;
 3/5=1,6=6,11=2,25=1,30=1,71=1,74=10009/1,2,3;
 4/5=5,16=3,69=1/1;
 5/5=2,38=5/2;
 7/30=1/1,2,3,16;
 1/6=100,18=20,19=15,26=3/3(-5);
 2/9=110,12=1,15=1/2;
 6/7=2,8=2,9=2,10=2,19=2,28=1/1;
 99/9=1/99;
 Leave Link    1 at Mon Jan  1 12:19:00 2024, MaxMem=   134217728 cpu:               0.1 elap:               0.1
 (Enter /home/emanuele/chem_software/gaussian//gdv/l101.exe)
 -----
 Title
 -----
 Symbolic Z-matrix:
 Charge =  0 Multiplicity = 1
 C                    -0.53685   0.10417   0.01464 
 O                    -1.63632  -0.67637  -0.06827 
 C                     0.72601  -0.7177    0.10528 
 H                     0.71699  -1.15712   1.11445 
 H                     0.64338  -1.5538   -0.59228 
 N                     1.88901   0.09773  -0.1951 
 H                     1.74816   1.04081   0.14593 
 H                     2.72354  -0.27843   0.23189 
 O                    -0.58681   1.30563   0.04628 
 H                    -2.40509  -0.08851  -0.07785 
 
 The following ModRedundant input section has been read:
 D       1       3       6       7 S  10 36.000                                
 
 ITRead=  0  0  0  0  0  0  0  0  0  0
 MicOpt= -1 -1 -1 -1 -1 -1 -1 -1 -1 -1
 NAtoms=     10 NQM=       10 NQMF=       0 NMMI=      0 NMMIF=      0
                NMic=       0 NMicF=      0.
                    Isotopes and Nuclear Properties:
 (Nuclear quadrupole moments (NQMom) in fm**2, nuclear magnetic moments (NMagM)
  in nuclear magnetons)

  Atom         1           2           3           4           5           6           7           8           9          10
 IAtWgt=          12          16          12           1           1          14           1           1          16           1
 AtmWgt=  12.0000000  15.9949146  12.0000000   1.0078250   1.0078250  14.0030740   1.0078250   1.0078250  15.9949146   1.0078250
 NucSpn=           0           0           0           1           1           2           1           1           0           1
 AtZEff=  -0.0000000  -0.0000000  -0.0000000  -0.0000000  -0.0000000  -0.0000000  -0.0000000  -0.0000000  -0.0000000  -0.0000000
 NQMom=    0.0000000   0.0000000   0.0000000   0.0000000   0.0000000   2.0440000   0.0000000   0.0000000   0.0000000   0.0000000
 NMagM=    0.0000000   0.0000000   0.0000000   2.7928460   2.7928460   0.4037610   2.7928460   2.7928460   0.0000000   2.7928460
 AtZNuc=   6.0000000   8.0000000   6.0000000   1.0000000   1.0000000   7.0000000   1.0000000   1.0000000   8.0000000   1.0000000
 Leave Link  101 at Mon Jan  1 12:19:00 2024, MaxMem=   134217728 cpu:               0.8 elap:               0.3
 (Enter /home/emanuele/chem_software/gaussian//gdv/l103.exe)

 GradGradGradGradGradGradGradGradGradGradGradGradGradGradGradGradGradGrad
 Berny optimization.
 Initialization pass.
                           ----------------------------
                           !    Initial Parameters    !
                           ! (Angstroms and Degrees)  !
 --------------------------                            --------------------------
 ! Name  Definition              Value          Derivative Info.                !
 --------------------------------------------------------------------------------
 ! R1    R(1,2)                  1.3509         estimate D2E/DX2                !
 ! R2    R(1,3)                  1.5095         estimate D2E/DX2                !
 ! R3    R(1,9)                  1.2029         estimate D2E/DX2                !
 ! R4    R(2,10)                 0.9678         estimate D2E/DX2                !
 ! R5    R(3,4)                  1.1007         estimate D2E/DX2                !
 ! R6    R(3,5)                  1.092          estimate D2E/DX2                !
 ! R7    R(3,6)                  1.4518         estimate D2E/DX2                !
 ! R8    R(6,7)                  1.0127         estimate D2E/DX2                !
 ! R9    R(6,8)                  1.0101         estimate D2E/DX2                !
 ! A1    A(2,1,3)              111.7154         estimate D2E/DX2                !
 ! A2    A(2,1,9)              123.0182         estimate D2E/DX2                !
 ! A3    A(3,1,9)              125.2388         estimate D2E/DX2                !
 ! A4    A(1,2,10)             107.2257         estimate D2E/DX2                !
 ! A5    A(1,3,4)              105.4003         estimate D2E/DX2                !
 ! A6    A(1,3,5)              108.3736         estimate D2E/DX2                !
 ! A7    A(1,3,6)              110.6071         estimate D2E/DX2                !
 ! A8    A(4,3,5)              106.2232         estimate D2E/DX2                !
 ! A9    A(4,3,6)              114.8648         estimate D2E/DX2                !
 ! A10   A(5,3,6)              111.0079         estimate D2E/DX2                !
 ! A11   A(3,6,7)              109.9968         estimate D2E/DX2                !
 ! A12   A(3,6,8)              111.4207         estimate D2E/DX2                !
 ! A13   A(7,6,8)              108.6253         estimate D2E/DX2                !
 ! D1    D(3,1,2,10)           177.195          estimate D2E/DX2                !
 ! D2    D(9,1,2,10)            -0.9857         estimate D2E/DX2                !
 ! D3    D(2,1,3,4)            -71.8288         estimate D2E/DX2                !
 ! D4    D(2,1,3,5)             41.552          estimate D2E/DX2                !
 ! D5    D(2,1,3,6)            163.4539         estimate D2E/DX2                !
 ! D6    D(9,1,3,4)            106.3034         estimate D2E/DX2                !
 ! D7    D(9,1,3,5)           -140.3158         estimate D2E/DX2                !
 ! D8    D(9,1,3,6)            -18.4139         estimate D2E/DX2                !
 ! D9    D(1,3,6,7)             34.6533         Scan                            !
 ! D10   D(1,3,6,8)            155.1742         estimate D2E/DX2                !
 ! D11   D(4,3,6,7)            -84.4877         estimate D2E/DX2                !
 ! D12   D(4,3,6,8)             36.0331         estimate D2E/DX2                !
 ! D13   D(5,3,6,7)            154.9936         estimate D2E/DX2                !
 ! D14   D(5,3,6,8)            -84.4855         estimate D2E/DX2                !
 --------------------------------------------------------------------------------
 Trust Radius=3.00D-01 FncErr=1.00D-07 GrdErr=1.00D-06 EigMax=2.50D+02 EigMin=1.00D-04
 Number of optimizations in scan=  11
 Number of steps in this run=    100 maximum allowed number of steps=    100.
 GradGradGradGradGradGradGradGradGradGradGradGradGradGradGradGradGradGrad

 Leave Link  103 at Mon Jan  1 12:19:00 2024, MaxMem=   134217728 cpu:               0.0 elap:               0.0
 (Enter /home/emanuele/chem_software/gaussian//gdv/l202.exe)
                          Input orientation:                          
 ---------------------------------------------------------------------
 Center     Atomic      Atomic             Coordinates (Angstroms)
 Number     Number       Type             X           Y           Z
 ---------------------------------------------------------------------
      1          6           0       -0.536850    0.104174    0.014636
      2          8           0       -1.636322   -0.676373   -0.068268
      3          6           0        0.726013   -0.717700    0.105280
      4          1           0        0.716994   -1.157121    1.114447
      5          1           0        0.643380   -1.553795   -0.592281
      6          7           0        1.889013    0.097733   -0.195097
      7          1           0        1.748159    1.040807    0.145925
      8          1           0        2.723536   -0.278432    0.231888
      9          8           0       -0.586810    1.305633    0.046275
     10          1           0       -2.405088   -0.088514   -0.077854
 ---------------------------------------------------------------------
                    Distance matrix (angstroms):
                    1          2          3          4          5
     1  C    0.000000
     2  O    1.350913   0.000000
     3  C    1.509475   2.369062   0.000000
     4  H    2.091070   2.677318   1.100723   0.000000
     5  H    2.123712   2.498299   1.092005   1.753764   0.000000
     6  N    2.434921   3.611553   1.451801   2.159443   2.106395
     7  H    2.473011   3.801223   2.034400   2.613852   2.915038
     8  H    3.289940   4.388258   2.049167   2.361613   2.575433
     9  O    1.202913   2.245650   2.412646   2.984301   3.177648
    10  H    1.880424   0.967818   3.198938   3.508689   3.421234
                    6          7          8          9         10
     6  N    0.000000
     7  H    1.012682   0.000000
     8  H    1.010072   1.642906   0.000000
     9  O    2.765318   2.352051   3.674521   0.000000
    10  H    4.299737   4.309861   5.141478   2.294600   0.000000
 Symmetry turned off by external request.
 Stoichiometry    C2H5NO2
 Framework group  C1[X(C2H5NO2)]
 Deg. of freedom    24
 Full point group                 C1      NOp   1
 Rotational constants (GHZ):          10.4489861           3.9571341           2.9518000
 Leave Link  202 at Mon Jan  1 12:19:00 2024, MaxMem=   134217728 cpu:               0.1 elap:               0.0
 (Enter /home/emanuele/chem_software/gaussian//gdv/l301.exe)
 Standard basis: 6-31G (6D, 7F)
 Ernie: Thresh=  0.10000D-02 Tol=  0.10000D-05 Strict=F.
    55 basis functions,   130 primitive gaussians,    55 cartesian basis functions
    20 alpha electrons       20 beta electrons
       nuclear repulsion energy       179.9791115102 Hartrees.
 IExCor=   10009 DFT=T Ex=PBE Corr=PBE N6=None ScaHFX=  0.000000
 ScaDFX=  1.000000  1.000000  1.000000  1.000000  1.000000  0.000000
 ScaDFX=  0.000000  0.000000  0.000000  0.000000  0.000000  0.000000
 IRadAn=      5 IRanWt=     -1 IRanGd=            0 ICorTp=0 IEmpDi=  4
 NAtoms=   10 NActive=   10 NUniq=   10 SFac= 1.00D+00 NAtFMM=   60 NAOKFM=F Big=F
 Integral buffers will be    131072 words long.
 Raffenetti 2 integral format.
 Two-electron integral symmetry is turned off.
 Leave Link  301 at Mon Jan  1 12:19:00 2024, MaxMem=   134217728 cpu:               0.2 elap:               0.1
 (Enter /home/emanuele/chem_software/gaussian//gdv/l302.exe)
 NPDir=0 NMtPBC=     1 NCelOv=     1 NCel=       1 NClECP=     1 NCelD=      1
         NCelK=      1 NCelE2=     1 NClLst=     1 CellRange=     0.0.
 One-electron integrals computed using PRISM.
 NBasis=    55 RedAO= T EigKep=  5.66D-03  NBF=    55
 NBsUse=    55 1.00D-06 EigRej= -1.00D+00 NBFU=    55
 Precomputing XC quadrature grid using
 IXCGrd= 4 IRadAn=           5 IRanWt=          -1 IRanGd=           0 AccXCQ= 0.00D+00.
 Generated NRdTot=       0 NPtTot=      218924 NUsed=           0 NTot=          64
 NSgBfM=    55    55    55    55    55 MxSgAt=    10 MxSgA2=    10 SizInc=   0.000
 NMBTot=     1903 MaxBatPerAtom=       84 MaxMicBPerAtom=      198.
 Leave Link  302 at Mon Jan  1 12:19:01 2024, MaxMem=   134217728 cpu:               0.7 elap:               0.2
 (Enter /home/emanuele/chem_software/gaussian//gdv/l303.exe)
 DipDrv:  MaxL=1.
 Leave Link  303 at Mon Jan  1 12:19:01 2024, MaxMem=   134217728 cpu:               0.1 elap:               0.0
 (Enter /home/emanuele/chem_software/gaussian//gdv/l401.exe)
 ExpMin= 1.61D-01 ExpMax= 5.48D+03 ExpMxC= 8.25D+02 IAcc=3 IRadAn=         5 AccDes= 0.00D+00
 Harris functional with IExCor=10009 and IRadAn=       5 diagonalized for initial guess.
 HarFok:  IExCor=   10009 AccDes= 0.00D+00 IRadAn=         5 IDoV= 1 UseB2=F ITyADJ=14 ICtDFT=  3500011
 FoFCou: FMM=F IPFlag=           0 FMFlag=      100000 FMFlg1=           0
         NFxFlg=           0 DoJE=T BraDBF=F KetDBF=T FulRan=T
         wScrn=  0.000000 ICntrl=       500 IOpCl=  0 I1Cent=   200000004 NGrid=           0
         NMat0=    1 NMatS0=      1 NMatT0=    0 NMatD0=    1 NMtDS0=    0 NMtDT0=    0
 Symmetry not used in FoFCou.
 Harris En= -284.094167280963    
 JPrj=0 DoOrth=F DoCkMO=F.
 Leave Link  401 at Mon Jan  1 12:19:01 2024, MaxMem=   134217728 cpu:               2.3 elap:               0.7
 (Enter /home/emanuele/chem_software/gaussian//gdv/l502.exe)
 Keep J ints in memory in canonical form, NReq=4700713.
 FoFCou: FMM=F IPFlag=           0 FMFlag=           0 FMFlg1=           0
         NFxFlg=           0 DoJE=F BraDBF=F KetDBF=F FulRan=T
         wScrn=  0.000000 ICntrl=       600 IOpCl=  0 I1Cent=           0 NGrid=           0
         NMat0=    1 NMatS0=   1540 NMatT0=    0 NMatD0=    1 NMtDS0=    0 NMtDT0=    0
 Symmetry not used in FoFCou.
 Two-electron integral symmetry not used.
 Closed shell SCF:
 Using DIIS extrapolation, IDIIS=  1040.
 NGot=   134217728 LenX=   133023731 LenY=   133020265
 Requested convergence on RMS density matrix=1.00D-08 within 128 cycles.
 Requested convergence on MAX density matrix=1.00D-06.
 Requested convergence on             energy=1.00D-06.
 No special actions if energy rises.
 Integral accuracy reduced to 1.0D-05 until final iterations.

 Cycle   1  Pass 0  IDiag  1:
 E= -283.851103811744    
 DIIS: error= 4.55D-02 at cycle   1 NSaved=   1.
 NSaved= 1 IEnMin= 1 EnMin= -283.851103811744     IErMin= 1 ErrMin= 4.55D-02
 ErrMax= 4.55D-02  0.00D+00 EMaxC= 1.00D-01 BMatC= 1.73D-01 BMatP= 1.73D-01
 IDIUse=3 WtCom= 5.45D-01 WtEn= 4.55D-01
 Coeff-Com:  0.100D+01
 Coeff-En:   0.100D+01
 Coeff:      0.100D+01
 Gap=     0.036 Goal=   None    Shift=    0.000
 GapD=    0.036 DampG=0.250 DampE=0.500 DampFc=0.2500 IDamp=-1.
 Damping current iteration by 2.50D-01
 RMSDP=2.37D-02 MaxDP=2.45D-01              OVMax= 2.91D-01

 Cycle   2  Pass 0  IDiag  1:
 E= -283.901317743674     Delta-E=       -0.050213931931 Rises=F Damp=T
 DIIS: error= 1.71D-02 at cycle   2 NSaved=   2.
 NSaved= 2 IEnMin= 2 EnMin= -283.901317743674     IErMin= 2 ErrMin= 1.71D-02
 ErrMax= 1.71D-02  0.00D+00 EMaxC= 1.00D-01 BMatC= 1.74D-02 BMatP= 1.73D-01
 IDIUse=3 WtCom= 8.29D-01 WtEn= 1.71D-01
 Coeff-Com: -0.251D+00 0.125D+01
 Coeff-En:   0.881D-01 0.912D+00
 Coeff:     -0.193D+00 0.119D+01
 Gap=     0.085 Goal=   None    Shift=    0.000
 RMSDP=6.36D-03 MaxDP=6.77D-02 DE=-5.02D-02 OVMax= 2.42D-01

 Cycle   3  Pass 0  IDiag  1:
 E= -283.949667404941     Delta-E=       -0.048349661267 Rises=F Damp=F
 DIIS: error= 3.63D-02 at cycle   3 NSaved=   3.
 NSaved= 3 IEnMin= 3 EnMin= -283.949667404941     IErMin= 2 ErrMin= 1.71D-02
 ErrMax= 3.63D-02  0.00D+00 EMaxC= 1.00D-01 BMatC= 6.47D-02 BMatP= 1.74D-02
 IDIUse=2 WtCom= 0.00D+00 WtEn= 1.00D+00
 EnCoef did     7 forward-backward iterations
 Coeff-En:   0.104D+00 0.707D-01 0.825D+00
 Coeff:      0.104D+00 0.707D-01 0.825D+00
 Gap=     0.155 Goal=   None    Shift=    0.000
 RMSDP=1.49D-02 MaxDP=1.85D-01 DE=-4.83D-02 OVMax= 3.57D-01

 Cycle   4  Pass 0  IDiag  1:
 E= -283.619143461256     Delta-E=        0.330523943685 Rises=F Damp=F
 DIIS: error= 1.09D-01 at cycle   4 NSaved=   4.
 NSaved= 4 IEnMin= 3 EnMin= -283.949667404941     IErMin= 2 ErrMin= 1.71D-02
 ErrMax= 1.09D-01  0.00D+00 EMaxC= 1.00D-01 BMatC= 4.77D-01 BMatP= 1.74D-02
 IDIUse=2 WtCom= 0.00D+00 WtEn= 1.00D+00
 EnCoef did     1 forward-backward iterations
 Coeff-En:   0.368D-01 0.000D+00 0.778D+00 0.185D+00
 Coeff:      0.368D-01 0.000D+00 0.778D+00 0.185D+00
 Gap=     0.186 Goal=   None    Shift=    0.000
 RMSDP=8.92D-03 MaxDP=1.11D-01 DE= 3.31D-01 OVMax= 2.04D-01

 Cycle   5  Pass 0  IDiag  1:
 E= -283.969051555093     Delta-E=       -0.349908093837 Rises=F Damp=F
 DIIS: error= 3.01D-02 at cycle   5 NSaved=   5.
 NSaved= 5 IEnMin= 5 EnMin= -283.969051555093     IErMin= 2 ErrMin= 1.71D-02
 ErrMax= 3.01D-02  0.00D+00 EMaxC= 1.00D-01 BMatC= 4.36D-02 BMatP= 1.74D-02
 IDIUse=2 WtCom= 0.00D+00 WtEn= 1.00D+00
 Coeff-En:   0.000D+00 0.000D+00 0.424D+00 0.000D+00 0.576D+00
 Coeff:      0.000D+00 0.000D+00 0.424D+00 0.000D+00 0.576D+00
 Gap=     0.137 Goal=   None    Shift=    0.000
 RMSDP=3.35D-03 MaxDP=4.91D-02 DE=-3.50D-01 OVMax= 8.02D-02

 Cycle   6  Pass 0  IDiag  1:
 E= -284.002773987009     Delta-E=       -0.033722431916 Rises=F Damp=F
 DIIS: error= 6.19D-03 at cycle   6 NSaved=   6.
 NSaved= 6 IEnMin= 6 EnMin= -284.002773987009     IErMin= 6 ErrMin= 6.19D-03
 ErrMax= 6.19D-03  0.00D+00 EMaxC= 1.00D-01 BMatC= 1.79D-03 BMatP= 1.74D-02
 IDIUse=3 WtCom= 9.38D-01 WtEn= 6.19D-02
 Coeff-Com: -0.652D-01 0.124D+00 0.224D+00-0.513D-01 0.430D+00 0.338D+00
 Coeff-En:   0.000D+00 0.000D+00 0.000D+00 0.000D+00 0.000D+00 0.100D+01
 Coeff:     -0.612D-01 0.117D+00 0.210D+00-0.481D-01 0.403D+00 0.379D+00
 Gap=     0.143 Goal=   None    Shift=    0.000
 RMSDP=6.46D-04 MaxDP=1.05D-02 DE=-3.37D-02 OVMax= 8.76D-03

 Cycle   7  Pass 0  IDiag  1:
 E= -284.004127398428     Delta-E=       -0.001353411419 Rises=F Damp=F
 DIIS: error= 1.16D-03 at cycle   7 NSaved=   7.
 NSaved= 7 IEnMin= 7 EnMin= -284.004127398428     IErMin= 7 ErrMin= 1.16D-03
 ErrMax= 1.16D-03  0.00D+00 EMaxC= 1.00D-01 BMatC= 6.54D-05 BMatP= 1.79D-03
 IDIUse=3 WtCom= 9.88D-01 WtEn= 1.16D-02
 Coeff-Com: -0.177D-01 0.315D-01 0.595D-01-0.201D-01 0.137D+00 0.226D+00
 Coeff-Com:  0.584D+00
 Coeff-En:   0.000D+00 0.000D+00 0.000D+00 0.000D+00 0.000D+00 0.000D+00
 Coeff-En:   0.100D+01
 Coeff:     -0.175D-01 0.312D-01 0.588D-01-0.199D-01 0.135D+00 0.224D+00
 Coeff:      0.589D+00
 Gap=     0.143 Goal=   None    Shift=    0.000
 RMSDP=1.44D-04 MaxDP=1.68D-03 DE=-1.35D-03 OVMax= 2.01D-03

 Cycle   8  Pass 0  IDiag  1:
 E= -284.004179953340     Delta-E=       -0.000052554912 Rises=F Damp=F
 DIIS: error= 2.16D-04 at cycle   8 NSaved=   8.
 NSaved= 8 IEnMin= 8 EnMin= -284.004179953340     IErMin= 8 ErrMin= 2.16D-04
 ErrMax= 2.16D-04  0.00D+00 EMaxC= 1.00D-01 BMatC= 3.16D-06 BMatP= 6.54D-05
 IDIUse=3 WtCom= 9.98D-01 WtEn= 2.16D-03
 Coeff-Com:  0.328D-02-0.596D-02 0.215D-02-0.121D-02 0.982D-02 0.790D-01
 Coeff-Com:  0.318D+00 0.595D+00
 Coeff-En:   0.000D+00 0.000D+00 0.000D+00 0.000D+00 0.000D+00 0.000D+00
 Coeff-En:   0.000D+00 0.100D+01
 Coeff:      0.328D-02-0.595D-02 0.215D-02-0.121D-02 0.980D-02 0.788D-01
 Coeff:      0.318D+00 0.596D+00
 Gap=     0.143 Goal=   None    Shift=    0.000
 RMSDP=3.03D-05 MaxDP=3.75D-04 DE=-5.26D-05 OVMax= 3.27D-04

 Cycle   9  Pass 0  IDiag  1:
 E= -284.004182942898     Delta-E=       -0.000002989558 Rises=F Damp=F
 DIIS: error= 1.25D-05 at cycle   9 NSaved=   9.
 NSaved= 9 IEnMin= 9 EnMin= -284.004182942898     IErMin= 9 ErrMin= 1.25D-05
 ErrMax= 1.25D-05  0.00D+00 EMaxC= 1.00D-01 BMatC= 1.51D-08 BMatP= 3.16D-06
 IDIUse=1 WtCom= 1.00D+00 WtEn= 0.00D+00
 Coeff-Com:  0.856D-03-0.111D-02 0.229D-03-0.129D-03 0.103D-02 0.173D-01
 Coeff-Com:  0.831D-01 0.174D+00 0.725D+00
 Coeff:      0.856D-03-0.111D-02 0.229D-03-0.129D-03 0.103D-02 0.173D-01
 Coeff:      0.831D-01 0.174D+00 0.725D+00
 Gap=     0.143 Goal=   None    Shift=    0.000
 RMSDP=3.69D-06 MaxDP=2.36D-05 DE=-2.99D-06 OVMax= 3.01D-05

 Initial convergence to 1.0D-05 achieved.  Increase integral accuracy.
 Cycle  10  Pass 1  IDiag  1:
 E= -284.004187388350     Delta-E=       -0.000004445453 Rises=F Damp=F
 DIIS: error= 5.06D-06 at cycle   1 NSaved=   1.
 NSaved= 1 IEnMin= 1 EnMin= -284.004187388350     IErMin= 1 ErrMin= 5.06D-06
 ErrMax= 5.06D-06  0.00D+00 EMaxC= 1.00D-01 BMatC= 2.71D-09 BMatP= 2.71D-09
 IDIUse=1 WtCom= 1.00D+00 WtEn= 0.00D+00
 Coeff-Com:  0.100D+01
 Coeff:      0.100D+01
 Gap=     0.143 Goal=   None    Shift=    0.000
 RMSDP=3.69D-06 MaxDP=2.36D-05 DE=-4.45D-06 OVMax= 2.53D-05

 Cycle  11  Pass 1  IDiag  1:
 E= -284.004187385662     Delta-E=        0.000000002689 Rises=F Damp=F
 DIIS: error= 9.32D-06 at cycle   2 NSaved=   2.
 NSaved= 2 IEnMin= 1 EnMin= -284.004187388350     IErMin= 1 ErrMin= 5.06D-06
 ErrMax= 9.32D-06  0.00D+00 EMaxC= 1.00D-01 BMatC= 5.96D-09 BMatP= 2.71D-09
 IDIUse=1 WtCom= 1.00D+00 WtEn= 0.00D+00
 Coeff-Com:  0.601D+00 0.399D+00
 Coeff:      0.601D+00 0.399D+00
 Gap=     0.143 Goal=   None    Shift=    0.000
 RMSDP=1.46D-06 MaxDP=1.72D-05 DE= 2.69D-09 OVMax= 1.57D-05

 Cycle  12  Pass 1  IDiag  1:
 E= -284.004187391019     Delta-E=       -0.000000005358 Rises=F Damp=F
 DIIS: error= 2.19D-06 at cycle   3 NSaved=   3.
 NSaved= 3 IEnMin= 3 EnMin= -284.004187391019     IErMin= 3 ErrMin= 2.19D-06
 ErrMax= 2.19D-06  0.00D+00 EMaxC= 1.00D-01 BMatC= 2.84D-10 BMatP= 2.71D-09
 IDIUse=1 WtCom= 1.00D+00 WtEn= 0.00D+00
 Coeff-Com:  0.327D+00 0.247D+00 0.425D+00
 Coeff:      0.327D+00 0.247D+00 0.425D+00
 Gap=     0.143 Goal=   None    Shift=    0.000
 RMSDP=4.17D-07 MaxDP=6.40D-06 DE=-5.36D-09 OVMax= 9.71D-06

 Cycle  13  Pass 1  IDiag  1:
 E= -284.004187391169     Delta-E=       -0.000000000150 Rises=F Damp=F
 DIIS: error= 1.51D-06 at cycle   4 NSaved=   4.
 NSaved= 4 IEnMin= 4 EnMin= -284.004187391169     IErMin= 4 ErrMin= 1.51D-06
 ErrMax= 1.51D-06  0.00D+00 EMaxC= 1.00D-01 BMatC= 9.97D-11 BMatP= 2.84D-10
 IDIUse=1 WtCom= 1.00D+00 WtEn= 0.00D+00
 Coeff-Com:  0.106D+00 0.964D-01 0.348D+00 0.449D+00
 Coeff:      0.106D+00 0.964D-01 0.348D+00 0.449D+00
 Gap=     0.143 Goal=   None    Shift=    0.000
 RMSDP=1.96D-07 MaxDP=2.70D-06 DE=-1.50D-10 OVMax= 4.92D-06

 Cycle  14  Pass 1  IDiag  1:
 E= -284.004187391239     Delta-E=       -0.000000000070 Rises=F Damp=F
 DIIS: error= 4.19D-07 at cycle   5 NSaved=   5.
 NSaved= 5 IEnMin= 5 EnMin= -284.004187391239     IErMin= 5 ErrMin= 4.19D-07
 ErrMax= 4.19D-07  0.00D+00 EMaxC= 1.00D-01 BMatC= 1.14D-11 BMatP= 9.97D-11
 IDIUse=1 WtCom= 1.00D+00 WtEn= 0.00D+00
 Coeff-Com:  0.515D-02 0.155D-01 0.147D+00 0.310D+00 0.522D+00
 Coeff:      0.515D-02 0.155D-01 0.147D+00 0.310D+00 0.522D+00
 Gap=     0.143 Goal=   None    Shift=    0.000
 RMSDP=5.82D-08 MaxDP=7.03D-07 DE=-7.00D-11 OVMax= 1.05D-06

 Cycle  15  Pass 1  IDiag  1:
 E= -284.004187391250     Delta-E=       -0.000000000011 Rises=F Damp=F
 DIIS: error= 6.60D-08 at cycle   6 NSaved=   6.
 NSaved= 6 IEnMin= 6 EnMin= -284.004187391250     IErMin= 6 ErrMin= 6.60D-08
 ErrMax= 6.60D-08  0.00D+00 EMaxC= 1.00D-01 BMatC= 2.36D-13 BMatP= 1.14D-11
 IDIUse=1 WtCom= 1.00D+00 WtEn= 0.00D+00
 Coeff-Com:  0.368D-03 0.569D-02 0.670D-01 0.151D+00 0.283D+00 0.493D+00
 Coeff:      0.368D-03 0.569D-02 0.670D-01 0.151D+00 0.283D+00 0.493D+00
 Gap=     0.143 Goal=   None    Shift=    0.000
 RMSDP=1.22D-08 MaxDP=1.25D-07 DE=-1.08D-11 OVMax= 1.64D-07

 Cycle  16  Pass 1  IDiag  1:
 E= -284.004187391250     Delta-E=       -0.000000000000 Rises=F Damp=F
 DIIS: error= 2.37D-08 at cycle   7 NSaved=   7.
 NSaved= 7 IEnMin= 7 EnMin= -284.004187391250     IErMin= 7 ErrMin= 2.37D-08
 ErrMax= 2.37D-08  0.00D+00 EMaxC= 1.00D-01 BMatC= 3.67D-14 BMatP= 2.36D-13
 IDIUse=1 WtCom= 1.00D+00 WtEn= 0.00D+00
 Coeff-Com: -0.367D-03 0.203D-02 0.287D-01 0.653D-01 0.131D+00 0.317D+00
 Coeff-Com:  0.456D+00
 Coeff:     -0.367D-03 0.203D-02 0.287D-01 0.653D-01 0.131D+00 0.317D+00
 Coeff:      0.456D+00
 Gap=     0.143 Goal=   None    Shift=    0.000
 RMSDP=3.66D-09 MaxDP=3.72D-08 DE=-2.27D-13 OVMax= 5.19D-08

 SCF Done:  E(RPBE-PBE) =  -284.004187391     A.U. after   16 cycles
            NFock= 16  Conv=0.37D-08     -V/T= 2.0040
 KE= 2.828669380632D+02 PE=-1.026522799436D+03 EE= 2.796725624715D+02
 Leave Link  502 at Mon Jan  1 12:19:07 2024, MaxMem=   134217728 cpu:              22.7 elap:               6.0
 (Enter /home/emanuele/chem_software/gaussian//gdv/l601.exe)
 Copying SCF densities to generalized density rwf, IOpCl= 0 IROHF=0.

 **********************************************************************

            Population analysis using the SCF Density.

 **********************************************************************

 Alpha  occ. eigenvalues --      -18.82348     -18.77534     -13.97630     -10.03307      -9.93269
 Alpha  occ. eigenvalues --       -1.05039      -0.96249      -0.81873      -0.66701      -0.55720
 Alpha  occ. eigenvalues --       -0.47745      -0.44302      -0.42425      -0.39740      -0.38172
 Alpha  occ. eigenvalues --       -0.35810      -0.33438      -0.28324      -0.24012      -0.17687
 Alpha virt. eigenvalues --       -0.03408       0.03977       0.06266       0.10563       0.13621
 Alpha virt. eigenvalues --        0.14128       0.18881       0.20070       0.25560       0.32190
 Alpha virt. eigenvalues --        0.49787       0.52370       0.54892       0.58524       0.63914
 Alpha virt. eigenvalues --        0.64910       0.68021       0.72965       0.75778       0.78417
 Alpha virt. eigenvalues --        0.83864       0.86168       0.87444       0.90129       0.91413
 Alpha virt. eigenvalues --        0.92742       0.95703       0.99926       1.04360       1.08154
 Alpha virt. eigenvalues --        1.14357       1.29543       1.58698       1.69096       1.83861
          Condensed to atoms (all electrons):
               1          2          3          4          5          6
     1  C    4.866057   0.154675   0.159242  -0.030441  -0.020108  -0.039846
     2  O    0.154675   8.362489  -0.132271   0.003086   0.005400   0.002017
     3  C    0.159242  -0.132271   5.410743   0.343186   0.344277   0.287055
     4  H   -0.030441   0.003086   0.343186   0.627998  -0.052275  -0.056772
     5  H   -0.020108   0.005400   0.344277  -0.052275   0.563810  -0.050520
     6  N   -0.039846   0.002017   0.287055  -0.056772  -0.050520   6.896220
     7  H   -0.004593   0.000755  -0.056970   0.001298   0.005805   0.317217
     8  H    0.006591  -0.000085  -0.037366  -0.006092   0.000225   0.315923
     9  O    0.516080  -0.118030  -0.118642  -0.000661   0.002442  -0.003494
    10  H   -0.010506   0.217765   0.013527  -0.000559  -0.000372  -0.000229
               7          8          9         10
     1  C   -0.004593   0.006591   0.516080  -0.010506
     2  O    0.000755  -0.000085  -0.118030   0.217765
     3  C   -0.056970  -0.037366  -0.118642   0.013527
     4  H    0.001298  -0.006092  -0.000661  -0.000559
     5  H    0.005805   0.000225   0.002442  -0.000372
     6  N    0.317217   0.315923  -0.003494  -0.000229
     7  H    0.455047  -0.036030   0.019938  -0.000043
     8  H   -0.036030   0.474499   0.000332   0.000007
     9  O    0.019938   0.000332   8.049361   0.007405
    10  H   -0.000043   0.000007   0.007405   0.397083
 Mulliken charges:
               1
     1  C    0.402849
     2  O   -0.495802
     3  C   -0.212783
     4  H    0.171232
     5  H    0.201314
     6  N   -0.667572
     7  H    0.297575
     8  H    0.281996
     9  O   -0.354733
    10  H    0.375922
 Sum of Mulliken charges =  -0.00000
 Mulliken charges with hydrogens summed into heavy atoms:
               1
     1  C    0.402849
     2  O   -0.119880
     3  C    0.159764
     6  N   -0.088000
     9  O   -0.354733
 Electronic spatial extent (au):  <R**2>=            416.6924
 Charge=             -0.0000 electrons
 Dipole moment (field-independent basis, Debye):
    X=             -0.3660    Y=             -1.1905    Z=              1.7107  Tot=              2.1161
 Quadrupole moment (field-independent basis, Debye-Ang):
   XX=            -22.7811   YY=            -33.0365   ZZ=            -30.3991
   XY=             -1.3141   XZ=              4.0071   YZ=              0.1584
 Traceless Quadrupole moment (field-independent basis, Debye-Ang):
   XX=              5.9578   YY=             -4.2976   ZZ=             -1.6602
   XY=             -1.3141   XZ=              4.0071   YZ=              0.1584
 Octapole moment (field-independent basis, Debye-Ang**2):
  XXX=            -14.3107  YYY=             -1.8153  ZZZ=              1.7946  XYY=              6.2675
  XXY=              3.4078  XXZ=              8.1736  XZZ=             -4.7178  YZZ=              0.2677
  YYZ=             -0.0888  XYZ=              0.9063
 Hexadecapole moment (field-independent basis, Debye-Ang**3):
 XXXX=           -240.1789 YYYY=           -138.8258 ZZZZ=            -35.6159 XXXY=             -6.3383
 XXXZ=             22.4364 YYYX=              4.2932 YYYZ=              1.5451 ZZZX=              4.2628
 ZZZY=              0.4290 XXYY=            -78.1044 XXZZ=            -66.0383 YYZZ=            -27.1527
 XXYZ=              0.7071 YYXZ=              0.8279 ZZXY=             -0.7605
 N-N= 1.799791115102D+02 E-N=-1.026522800275D+03  KE= 2.828669380632D+02
 No NMR shielding tensors so no spin-rotation constants.
 Leave Link  601 at Mon Jan  1 12:19:08 2024, MaxMem=   134217728 cpu:               0.3 elap:               0.1
 (Enter /home/emanuele/chem_software/gaussian//gdv/l701.exe)
 ... and contract with generalized density number  0.
 Compute integral first derivatives.
 Leave Link  701 at Mon Jan  1 12:19:08 2024, MaxMem=   134217728 cpu:               0.3 elap:               0.1
 (Enter /home/emanuele/chem_software/gaussian//gdv/l702.exe)
 L702 exits ... SP integral derivatives will be done elsewhere.
 Leave Link  702 at Mon Jan  1 12:19:08 2024, MaxMem=   134217728 cpu:               0.1 elap:               0.0
 (Enter /home/emanuele/chem_software/gaussian//gdv/l703.exe)
 Integral derivatives from FoFJK, PRISM(SPDF).
 Compute integral first derivatives, UseDBF=F ICtDFT=           0.
 Calling FoFJK, ICntrl=      2527 FMM=F ISym2X=0 I1Cent= 0 IOpClX= 0 NMat=1 NMatS=1 NMatT=0.
 FoFJK:  IHMeth= 1 ICntrl=    2527 DoSepK=F KAlg= 0 I1Cent=           0 FoldK=F
 IRaf=         0 NMat=       1 IRICut=       1 DoRegI=T DoRafI=F ISym2E= 0 IDoP0=0 IntGTp=1.
 FoFCou: FMM=F IPFlag=           0 FMFlag=      100000 FMFlg1=         800
         NFxFlg=           0 DoJE=F BraDBF=F KetDBF=F FulRan=T
         wScrn=  0.000000 ICntrl=      2527 IOpCl=  0 I1Cent=           0 NGrid=           0
         NMat0=    1 NMatS0=      1 NMatT0=    0 NMatD0=    1 NMtDS0=    0 NMtDT0=    0
 Symmetry not used in FoFCou.
 Leave Link  703 at Mon Jan  1 12:19:09 2024, MaxMem=   134217728 cpu:               4.9 elap:               1.2
 (Enter /home/emanuele/chem_software/gaussian//gdv/l716.exe)
 Dipole        =-1.43988374D-01-4.68368933D-01 6.73042054D-01
 -------------------------------------------------------------------
 Center     Atomic                   Forces (Hartrees/Bohr)
 Number     Number              X              Y              Z
 -------------------------------------------------------------------
      1        6           0.028013322   -0.049315475   -0.001738117
      2        8          -0.006374856   -0.027942083   -0.001031046
      3        6          -0.003546193    0.000397077   -0.004068071
      4        1          -0.000507227   -0.005481730    0.009320645
      5        1          -0.001185793   -0.006534529   -0.004777089
      6        7          -0.002043709   -0.000019789    0.002233754
      7        1          -0.002578517    0.014267242   -0.001301373
      8        1           0.012282482   -0.006214479   -0.000193135
      9        8          -0.001313682    0.070566420    0.002326296
     10        1          -0.022745827    0.010277346   -0.000771864
 -------------------------------------------------------------------
 Cartesian Forces:  Max     0.070566420 RMS     0.018508164
 Leave Link  716 at Mon Jan  1 12:19:09 2024, MaxMem=   134217728 cpu:               0.1 elap:               0.0
 (Enter /home/emanuele/chem_software/gaussian//gdv/l103.exe)

 GradGradGradGradGradGradGradGradGradGradGradGradGradGradGradGradGradGrad
 Berny optimization.
 FormGI is forming the generalized inverse of G from B-inverse, IUseBI=4.
 Internal  Forces:  Max     0.070596940 RMS     0.014536187
 Search for a local minimum.
 Step number   1 out of a maximum of  100 on scan point     1 out of    11
 All quantities printed in internal units (Hartrees-Bohrs-Radians)
 RMS Force = .14723D-01 SwitMx=.10000D-02 MixMth= 1
 Mixed Optimization -- RFO/linear search
 Second derivative matrix not updated -- first step.
 ITU=  0
     Eigenvalues ---    0.00641   0.01053   0.02341   0.02405   0.04773
     Eigenvalues ---    0.06482   0.09826   0.12461   0.16000   0.16000
     Eigenvalues ---    0.16000   0.21890   0.24992   0.25000   0.31403
     Eigenvalues ---    0.33602   0.34582   0.38010   0.45526   0.45961
     Eigenvalues ---    0.53825   0.54828   1.033731000.000001000.00000
     Eigenvalues --- 1000.000001000.000001000.000001000.000001000.00000
     Eigenvalues --- 1000.000001000.000001000.000001000.000001000.00000
     Eigenvalues --- 1000.00000
 RFO step:  Lambda=-1.15434067D-02 EMin= 6.40605360D-03
 Linear search not attempted -- first point.
 Iteration  1 RMS(Cart)=  0.04765236 RMS(Int)=  0.00166654
 Iteration  2 RMS(Cart)=  0.00146479 RMS(Int)=  0.00073143
 Iteration  3 RMS(Cart)=  0.00000155 RMS(Int)=  0.00073143
 Iteration  4 RMS(Cart)=  0.00000000 RMS(Int)=  0.00073143
 Fixing frozen coordinates.
 Iteration  1 RMS(Cart)=  0.00009504 RMS(Int)=  0.00009317
 Iteration  2 RMS(Cart)=  0.00005139 RMS(Int)=  0.00010410
 Iteration  3 RMS(Cart)=  0.00002778 RMS(Int)=  0.00011747
 Iteration  4 RMS(Cart)=  0.00001502 RMS(Int)=  0.00012619
 Iteration  5 RMS(Cart)=  0.00000812 RMS(Int)=  0.00013125
 Iteration  6 RMS(Cart)=  0.00000439 RMS(Int)=  0.00013408
 Iteration  7 RMS(Cart)=  0.00000237 RMS(Int)=  0.00013563
 Iteration  8 RMS(Cart)=  0.00000128 RMS(Int)=  0.00013647
 Iteration  9 RMS(Cart)=  0.00000069 RMS(Int)=  0.00013693
 ITry= 1 IFail=0 DXMaxC= 1.42D-01 DCOld= 1.00D+10 DXMaxT= 3.00D-01 DXLimC= 3.00D+00 Rises=F
 Variable       Old X    -DE/DX   Delta X   Delta X   Delta X     New X
                                 (Linear)    (Quad)   (Total)
    R1        2.55286   0.03402   0.00000   0.06077   0.06077   2.61362
    R2        2.85250   0.00405   0.00000   0.01244   0.01244   2.86494
    R3        2.27318   0.07060   0.00000   0.06754   0.06754   2.34072
    R4        1.82891   0.02432   0.00000   0.04423   0.04423   1.87314
    R5        2.08006   0.01074   0.00000   0.03089   0.03089   2.11096
    R6        2.06359   0.00814   0.00000   0.02279   0.02279   2.08638
    R7        2.74351   0.01049   0.00000   0.02680   0.02680   2.77030
    R8        1.91369   0.01321   0.00000   0.02829   0.02829   1.94198
    R9        1.90876   0.01238   0.00000   0.02628   0.02628   1.93504
    A1        1.94980  -0.00150   0.00000  -0.00583  -0.00585   1.94395
    A2        2.14707   0.00262   0.00000   0.00994   0.00992   2.15699
    A3        2.18583  -0.00113   0.00000  -0.00441  -0.00442   2.18141
    A4        1.87144   0.01038   0.00000   0.06050   0.06050   1.93194
    A5        1.83958   0.00133   0.00000   0.01619   0.01653   1.85611
    A6        1.89148   0.00072   0.00000  -0.01105  -0.01145   1.88002
    A7        1.93046  -0.00386   0.00000  -0.01649  -0.01655   1.91391
    A8        1.85394  -0.00109   0.00000  -0.00578  -0.00574   1.84820
    A9        2.00477   0.00168   0.00000   0.01617   0.01623   2.02100
   A10        1.93745   0.00130   0.00000   0.00061   0.00038   1.93783
   A11        1.91981   0.00390   0.00000   0.03887   0.03689   1.95670
   A12        1.94466   0.00426   0.00000   0.04054   0.03860   1.98326
   A13        1.89587   0.00082   0.00000   0.03506   0.03184   1.92771
    D1        3.09264   0.00002   0.00000  -0.00049  -0.00053   3.09211
    D2       -0.01720   0.00030   0.00000   0.00971   0.00975  -0.00745
    D3       -1.25365   0.00038   0.00000   0.01195   0.01202  -1.24163
    D4        0.72522   0.00010   0.00000   0.00823   0.00819   0.73341
    D5        2.85281  -0.00023   0.00000  -0.00851  -0.00858   2.84423
    D6        1.85534   0.00018   0.00000   0.00179   0.00188   1.85723
    D7       -2.44897  -0.00011   0.00000  -0.00193  -0.00195  -2.45092
    D8       -0.32138  -0.00044   0.00000  -0.01867  -0.01871  -0.34010
    D9        0.60481  -0.00301   0.00000   0.00000  -0.00000   0.60481
   D10        2.70830   0.00342   0.00000   0.09662   0.09764   2.80594
   D11       -1.47459  -0.00304   0.00000  -0.01998  -0.02033  -1.49492
   D12        0.62890   0.00339   0.00000   0.07664   0.07731   0.70621
   D13        2.70515  -0.00381   0.00000  -0.02447  -0.02482   2.68033
   D14       -1.47455   0.00262   0.00000   0.07215   0.07282  -1.40173
         Item               Value     Threshold  Converged?
 Maximum Force            0.070597     0.000450     NO 
 RMS     Force            0.014723     0.000300     NO 
 Maximum Displacement     0.142231     0.001800     NO 
 RMS     Displacement     0.047612     0.001200     NO 
 Predicted change in Energy=-6.062240D-03
 Lowest energy point so far.  Saving SCF results.
 GradGradGradGradGradGradGradGradGradGradGradGradGradGradGradGradGradGrad

 Leave Link  103 at Mon Jan  1 12:19:09 2024, MaxMem=   134217728 cpu:               0.1 elap:               0.0
 (Enter /home/emanuele/chem_software/gaussian//gdv/l202.exe)
                          Input orientation:                          
 ---------------------------------------------------------------------
 Center     Atomic      Atomic             Coordinates (Angstroms)
 Number     Number       Type             X           Y           Z
 ---------------------------------------------------------------------
      1          6           0       -0.533237    0.113258    0.017439
      2          8           0       -1.660323   -0.682273   -0.080977
      3          6           0        0.725931   -0.723660    0.129262
      4          1           0        0.707491   -1.185048    1.146429
      5          1           0        0.637056   -1.561370   -0.584394
      6          7           0        1.896990    0.104244   -0.174543
      7          1           0        1.780559    1.072624    0.149116
      8          1           0        2.777187   -0.286062    0.173945
      9          8           0       -0.569275    1.350772    0.056444
     10          1           0       -2.480353   -0.126073   -0.107769
 ---------------------------------------------------------------------
                    Distance matrix (angstroms):
                    1          2          3          4          5
     1  C    0.000000
     2  O    1.383068   0.000000
     3  C    1.516060   2.395855   0.000000
     4  H    2.121231   2.714010   1.117071   0.000000
     5  H    2.129827   2.510815   1.104065   1.772661   0.000000
     6  N    2.437815   3.644426   1.465982   2.195939   2.128304
     7  H    2.508262   3.869403   2.083092   2.691318   2.963707
     8  H    3.338092   4.462451   2.097890   2.457142   2.604159
     9  O    1.238654   2.311394   2.446657   3.041148   3.216594
    10  H    1.965762   0.991224   3.270100   3.585636   3.464894
                    6          7          8          9         10
     6  N    0.000000
     7  H    1.027653   0.000000
     8  H    1.023977   1.685204   0.000000
     9  O    2.773022   2.368053   3.727176   0.000000
    10  H    4.383907   4.433762   5.267513   2.420798   0.000000
 Symmetry turned off by external request.
 Stoichiometry    C2H5NO2
 Framework group  C1[X(C2H5NO2)]
 Deg. of freedom    24
 Full point group                 C1      NOp   1
 Rotational constants (GHZ):           9.9587125           3.8913682           2.8781012
 Leave Link  202 at Mon Jan  1 12:19:09 2024, MaxMem=   134217728 cpu:               0.1 elap:               0.0
 (Enter /home/emanuele/chem_software/gaussian//gdv/l301.exe)
 Standard basis: 6-31G (6D, 7F)
 Ernie: Thresh=  0.10000D-02 Tol=  0.10000D-05 Strict=F.
    55 basis functions,   130 primitive gaussians,    55 cartesian basis functions
    20 alpha electrons       20 beta electrons
       nuclear repulsion energy       177.0763047963 Hartrees.
 IExCor=   10009 DFT=T Ex=PBE Corr=PBE N6=None ScaHFX=  0.000000
 ScaDFX=  1.000000  1.000000  1.000000  1.000000  1.000000  0.000000
 ScaDFX=  0.000000  0.000000  0.000000  0.000000  0.000000  0.000000
 IRadAn=      5 IRanWt=     -1 IRanGd=            0 ICorTp=0 IEmpDi=  4
 NAtoms=   10 NActive=   10 NUniq=   10 SFac= 1.00D+00 NAtFMM=   60 NAOKFM=F Big=F
 Integral buffers will be    131072 words long.
 Raffenetti 2 integral format.
 Two-electron integral symmetry is turned off.
 Leave Link  301 at Mon Jan  1 12:19:09 2024, MaxMem=   134217728 cpu:               0.2 elap:               0.1
 (Enter /home/emanuele/chem_software/gaussian//gdv/l302.exe)
 NPDir=0 NMtPBC=     1 NCelOv=     1 NCel=       1 NClECP=     1 NCelD=      1
         NCelK=      1 NCelE2=     1 NClLst=     1 CellRange=     0.0.
 One-electron integrals computed using PRISM.
 NBasis=    55 RedAO= T EigKep=  6.09D-03  NBF=    55
 NBsUse=    55 1.00D-06 EigRej= -1.00D+00 NBFU=    55
 Precomputing XC quadrature grid using
 IXCGrd= 4 IRadAn=           5 IRanWt=          -1 IRanGd=           0 AccXCQ= 0.00D+00.
 Generated NRdTot=       0 NPtTot=      219257 NUsed=           0 NTot=          64
 NSgBfM=    55    55    55    55    55 MxSgAt=    10 MxSgA2=    10 SizInc=   0.000
 NMBTot=     1892 MaxBatPerAtom=       84 MaxMicBPerAtom=      201.
 Leave Link  302 at Mon Jan  1 12:19:09 2024, MaxMem=   134217728 cpu:               0.7 elap:               0.2
 (Enter /home/emanuele/chem_software/gaussian//gdv/l303.exe)
 DipDrv:  MaxL=1.
 Leave Link  303 at Mon Jan  1 12:19:09 2024, MaxMem=   134217728 cpu:               0.2 elap:               0.0
 (Enter /home/emanuele/chem_software/gaussian//gdv/l401.exe)
 Initial guess from the checkpoint file:  "2_qm.chk"
 B after Tr=     0.000957    0.015560    0.011313
         Rot=    0.999994   -0.001266    0.002757    0.001890 Ang=  -0.41 deg.
 AO Guess basis will be translated and rotated to current coordinates.
 JPrj=2 DoOrth=T DoCkMO=T.
 Generating alternative initial guess.
 ExpMin= 1.61D-01 ExpMax= 5.48D+03 ExpMxC= 8.25D+02 IAcc=3 IRadAn=         5 AccDes= 0.00D+00
 Harris functional with IExCor=10009 and IRadAn=       5 diagonalized for initial guess.
 HarFok:  IExCor=   10009 AccDes= 0.00D+00 IRadAn=         5 IDoV= 1 UseB2=F ITyADJ=14 ICtDFT=  3500011
 FoFCou: FMM=F IPFlag=           0 FMFlag=      100000 FMFlg1=           0
         NFxFlg=           0 DoJE=T BraDBF=F KetDBF=T FulRan=T
         wScrn=  0.000000 ICntrl=       500 IOpCl=  0 I1Cent=   200000004 NGrid=           0
         NMat0=    1 NMatS0=      1 NMatT0=    0 NMatD0=    1 NMtDS0=    0 NMtDT0=    0
 Symmetry not used in FoFCou.
 Harris En= -284.094190656271    
 Leave Link  401 at Mon Jan  1 12:19:10 2024, MaxMem=   134217728 cpu:               2.4 elap:               0.6
 (Enter /home/emanuele/chem_software/gaussian//gdv/l502.exe)
 Keep J ints in memory in canonical form, NReq=4700713.
 FoFCou: FMM=F IPFlag=           0 FMFlag=           0 FMFlg1=           0
         NFxFlg=           0 DoJE=F BraDBF=F KetDBF=F FulRan=T
         wScrn=  0.000000 ICntrl=       600 IOpCl=  0 I1Cent=           0 NGrid=           0
         NMat0=    1 NMatS0=   1540 NMatT0=    0 NMatD0=    1 NMtDS0=    0 NMtDT0=    0
 Symmetry not used in FoFCou.
 Two-electron integral symmetry not used.
 Closed shell SCF:
 Using DIIS extrapolation, IDIIS=  1040.
 NGot=   134217728 LenX=   133023731 LenY=   133020265
 Requested convergence on RMS density matrix=1.00D-08 within 128 cycles.
 Requested convergence on MAX density matrix=1.00D-06.
 Requested convergence on             energy=1.00D-06.
 No special actions if energy rises.
 Integral accuracy reduced to 1.0D-05 until final iterations.

 Cycle   1  Pass 0  IDiag  1:
 E= -284.007423886851    
 DIIS: error= 4.37D-03 at cycle   1 NSaved=   1.
 NSaved= 1 IEnMin= 1 EnMin= -284.007423886851     IErMin= 1 ErrMin= 4.37D-03
 ErrMax= 4.37D-03  0.00D+00 EMaxC= 1.00D-01 BMatC= 1.78D-03 BMatP= 1.78D-03
 IDIUse=3 WtCom= 9.56D-01 WtEn= 4.37D-02
 Coeff-Com:  0.100D+01
 Coeff-En:   0.100D+01
 Coeff:      0.100D+01
 Gap=     0.523 Goal=   None    Shift=    0.000
 GapD=    0.523 DampG=2.000 DampE=1.000 DampFc=2.0000 IDamp=-1.
 RMSDP=1.69D-03 MaxDP=1.63D-02              OVMax= 1.31D-02

 Cycle   2  Pass 0  IDiag  1:
 E= -284.009709233338     Delta-E=       -0.002285346487 Rises=F Damp=F
 DIIS: error= 1.58D-03 at cycle   2 NSaved=   2.
 NSaved= 2 IEnMin= 2 EnMin= -284.009709233338     IErMin= 2 ErrMin= 1.58D-03
 ErrMax= 1.58D-03  0.00D+00 EMaxC= 1.00D-01 BMatC= 3.26D-04 BMatP= 1.78D-03
 IDIUse=3 WtCom= 9.84D-01 WtEn= 1.58D-02
 Coeff-Com:  0.241D+00 0.759D+00
 Coeff-En:   0.000D+00 0.100D+01
 Coeff:      0.237D+00 0.763D+00
 Gap=     0.128 Goal=   None    Shift=    0.000
 RMSDP=5.72D-04 MaxDP=5.91D-03 DE=-2.29D-03 OVMax= 5.76D-03

 Cycle   3  Pass 0  IDiag  1:
 E= -284.009798136408     Delta-E=       -0.000088903069 Rises=F Damp=F
 DIIS: error= 1.66D-03 at cycle   3 NSaved=   3.
 NSaved= 3 IEnMin= 3 EnMin= -284.009798136408     IErMin= 2 ErrMin= 1.58D-03
 ErrMax= 1.66D-03  0.00D+00 EMaxC= 1.00D-01 BMatC= 2.47D-04 BMatP= 3.26D-04
 IDIUse=3 WtCom= 9.83D-01 WtEn= 1.66D-02
 Coeff-Com:  0.509D-01 0.465D+00 0.484D+00
 Coeff-En:   0.000D+00 0.423D+00 0.577D+00
 Coeff:      0.500D-01 0.464D+00 0.486D+00
 Gap=     0.129 Goal=   None    Shift=    0.000
 RMSDP=3.59D-04 MaxDP=4.06D-03 DE=-8.89D-05 OVMax= 8.40D-03

 Cycle   4  Pass 0  IDiag  1:
 E= -284.009929050516     Delta-E=       -0.000130914108 Rises=F Damp=F
 DIIS: error= 1.60D-03 at cycle   4 NSaved=   4.
 NSaved= 4 IEnMin= 4 EnMin= -284.009929050516     IErMin= 2 ErrMin= 1.58D-03
 ErrMax= 1.60D-03  0.00D+00 EMaxC= 1.00D-01 BMatC= 1.16D-04 BMatP= 2.47D-04
 IDIUse=3 WtCom= 9.84D-01 WtEn= 1.60D-02
 Coeff-Com:  0.132D-01 0.294D+00 0.395D+00 0.298D+00
 Coeff-En:   0.000D+00 0.000D+00 0.306D+00 0.694D+00
 Coeff:      0.130D-01 0.289D+00 0.393D+00 0.305D+00
 Gap=     0.129 Goal=   None    Shift=    0.000
 RMSDP=1.90D-04 MaxDP=2.97D-03 DE=-1.31D-04 OVMax= 5.05D-03

 Cycle   5  Pass 0  IDiag  1:
 E= -284.010019983205     Delta-E=       -0.000090932689 Rises=F Damp=F
 DIIS: error= 2.04D-04 at cycle   5 NSaved=   5.
 NSaved= 5 IEnMin= 5 EnMin= -284.010019983205     IErMin= 5 ErrMin= 2.04D-04
 ErrMax= 2.04D-04  0.00D+00 EMaxC= 1.00D-01 BMatC= 2.72D-06 BMatP= 1.16D-04
 IDIUse=3 WtCom= 9.98D-01 WtEn= 2.04D-03
 Coeff-Com:  0.311D-02 0.114D+00 0.173D+00 0.187D+00 0.523D+00
 Coeff-En:   0.000D+00 0.000D+00 0.000D+00 0.000D+00 0.100D+01
 Coeff:      0.310D-02 0.114D+00 0.172D+00 0.187D+00 0.524D+00
 Gap=     0.130 Goal=   None    Shift=    0.000
 RMSDP=3.37D-05 MaxDP=3.63D-04 DE=-9.09D-05 OVMax= 5.90D-04

 Cycle   6  Pass 0  IDiag  1:
 E= -284.010022238367     Delta-E=       -0.000002255162 Rises=F Damp=F
 DIIS: error= 5.74D-05 at cycle   6 NSaved=   6.
 NSaved= 6 IEnMin= 6 EnMin= -284.010022238367     IErMin= 6 ErrMin= 5.74D-05
 ErrMax= 5.74D-05  0.00D+00 EMaxC= 1.00D-01 BMatC= 2.47D-07 BMatP= 2.72D-06
 IDIUse=1 WtCom= 1.00D+00 WtEn= 0.00D+00
 Coeff-Com:  0.559D-03 0.382D-01 0.645D-01 0.851D-01 0.331D+00 0.481D+00
 Coeff:      0.559D-03 0.382D-01 0.645D-01 0.851D-01 0.331D+00 0.481D+00
 Gap=     0.129 Goal=   None    Shift=    0.000
 RMSDP=1.03D-05 MaxDP=9.86D-05 DE=-2.26D-06 OVMax= 1.19D-04

 Cycle   7  Pass 0  IDiag  1:
 E= -284.010022475678     Delta-E=       -0.000000237312 Rises=F Damp=F
 DIIS: error= 8.86D-06 at cycle   7 NSaved=   7.
 NSaved= 7 IEnMin= 7 EnMin= -284.010022475678     IErMin= 7 ErrMin= 8.86D-06
 ErrMax= 8.86D-06  0.00D+00 EMaxC= 1.00D-01 BMatC= 4.81D-09 BMatP= 2.47D-07
 IDIUse=1 WtCom= 1.00D+00 WtEn= 0.00D+00
 Coeff-Com:  0.155D-03 0.137D-01 0.244D-01 0.325D-01 0.139D+00 0.223D+00
 Coeff-Com:  0.567D+00
 Coeff:      0.155D-03 0.137D-01 0.244D-01 0.325D-01 0.139D+00 0.223D+00
 Coeff:      0.567D+00
 Gap=     0.129 Goal=   None    Shift=    0.000
 RMSDP=1.80D-06 MaxDP=1.99D-05 DE=-2.37D-07 OVMax= 2.13D-05

 Initial convergence to 1.0D-05 achieved.  Increase integral accuracy.
 Cycle   8  Pass 1  IDiag  1:
 E= -284.010028937663     Delta-E=       -0.000006461985 Rises=F Damp=F
 DIIS: error= 4.86D-06 at cycle   1 NSaved=   1.
 NSaved= 1 IEnMin= 1 EnMin= -284.010028937663     IErMin= 1 ErrMin= 4.86D-06
 ErrMax= 4.86D-06  0.00D+00 EMaxC= 1.00D-01 BMatC= 2.24D-09 BMatP= 2.24D-09
 IDIUse=1 WtCom= 1.00D+00 WtEn= 0.00D+00
 Coeff-Com:  0.100D+01
 Coeff:      0.100D+01
 Gap=     0.129 Goal=   None    Shift=    0.000
 RMSDP=1.80D-06 MaxDP=1.99D-05 DE=-6.46D-06 OVMax= 3.22D-05

 Cycle   9  Pass 1  IDiag  1:
 E= -284.010028932468     Delta-E=        0.000000005195 Rises=F Damp=F
 DIIS: error= 9.73D-06 at cycle   2 NSaved=   2.
 NSaved= 2 IEnMin= 1 EnMin= -284.010028937663     IErMin= 1 ErrMin= 4.86D-06
 ErrMax= 9.73D-06  0.00D+00 EMaxC= 1.00D-01 BMatC= 9.15D-09 BMatP= 2.24D-09
 IDIUse=1 WtCom= 1.00D+00 WtEn= 0.00D+00
 Coeff-Com:  0.675D+00 0.325D+00
 Coeff:      0.675D+00 0.325D+00
 Gap=     0.129 Goal=   None    Shift=    0.000
 RMSDP=1.54D-06 MaxDP=1.90D-05 DE= 5.19D-09 OVMax= 2.54D-05

 Cycle  10  Pass 1  IDiag  1:
 E= -284.010028939610     Delta-E=       -0.000000007142 Rises=F Damp=F
 DIIS: error= 1.98D-06 at cycle   3 NSaved=   3.
 NSaved= 3 IEnMin= 3 EnMin= -284.010028939610     IErMin= 3 ErrMin= 1.98D-06
 ErrMax= 1.98D-06  0.00D+00 EMaxC= 1.00D-01 BMatC= 2.34D-10 BMatP= 2.24D-09
 IDIUse=1 WtCom= 1.00D+00 WtEn= 0.00D+00
 Coeff-Com:  0.341D+00 0.192D+00 0.467D+00
 Coeff:      0.341D+00 0.192D+00 0.467D+00
 Gap=     0.129 Goal=   None    Shift=    0.000
 RMSDP=4.20D-07 MaxDP=6.28D-06 DE=-7.14D-09 OVMax= 1.13D-05

 Cycle  11  Pass 1  IDiag  1:
 E= -284.010028939657     Delta-E=       -0.000000000047 Rises=F Damp=F
 DIIS: error= 2.00D-06 at cycle   4 NSaved=   4.
 NSaved= 4 IEnMin= 4 EnMin= -284.010028939657     IErMin= 3 ErrMin= 1.98D-06
 ErrMax= 2.00D-06  0.00D+00 EMaxC= 1.00D-01 BMatC= 1.82D-10 BMatP= 2.34D-10
 IDIUse=1 WtCom= 1.00D+00 WtEn= 0.00D+00
 Coeff-Com:  0.374D-01 0.452D-01 0.461D+00 0.457D+00
 Coeff:      0.374D-01 0.452D-01 0.461D+00 0.457D+00
 Gap=     0.129 Goal=   None    Shift=    0.000
 RMSDP=2.24D-07 MaxDP=2.93D-06 DE=-4.71D-11 OVMax= 6.28D-06

 Cycle  12  Pass 1  IDiag  1:
 E= -284.010028939798     Delta-E=       -0.000000000141 Rises=F Damp=F
 DIIS: error= 2.61D-07 at cycle   5 NSaved=   5.
 NSaved= 5 IEnMin= 5 EnMin= -284.010028939798     IErMin= 5 ErrMin= 2.61D-07
 ErrMax= 2.61D-07  0.00D+00 EMaxC= 1.00D-01 BMatC= 7.89D-12 BMatP= 1.82D-10
 IDIUse=1 WtCom= 1.00D+00 WtEn= 0.00D+00
 Coeff-Com:  0.198D-02 0.161D-01 0.266D+00 0.295D+00 0.422D+00
 Coeff:      0.198D-02 0.161D-01 0.266D+00 0.295D+00 0.422D+00
 Gap=     0.129 Goal=   None    Shift=    0.000
 RMSDP=5.11D-08 MaxDP=4.80D-07 DE=-1.41D-10 OVMax= 6.73D-07

 Cycle  13  Pass 1  IDiag  1:
 E= -284.010028939805     Delta-E=       -0.000000000007 Rises=F Damp=F
 DIIS: error= 4.27D-08 at cycle   6 NSaved=   6.
 NSaved= 6 IEnMin= 6 EnMin= -284.010028939805     IErMin= 6 ErrMin= 4.27D-08
 ErrMax= 4.27D-08  0.00D+00 EMaxC= 1.00D-01 BMatC= 1.27D-13 BMatP= 7.89D-12
 IDIUse=1 WtCom= 1.00D+00 WtEn= 0.00D+00
 Coeff-Com: -0.374D-03 0.576D-02 0.108D+00 0.122D+00 0.205D+00 0.560D+00
 Coeff:     -0.374D-03 0.576D-02 0.108D+00 0.122D+00 0.205D+00 0.560D+00
 Gap=     0.129 Goal=   None    Shift=    0.000
 RMSDP=9.08D-09 MaxDP=9.94D-08 DE=-6.82D-12 OVMax= 1.06D-07

 SCF Done:  E(RPBE-PBE) =  -284.010028940     A.U. after   13 cycles
            NFock= 13  Conv=0.91D-08     -V/T= 2.0055
 KE= 2.824619118997D+02 PE=-1.020577164956D+03 EE= 2.770289193206D+02
 Leave Link  502 at Mon Jan  1 12:19:15 2024, MaxMem=   134217728 cpu:              19.3 elap:               5.1
 (Enter /home/emanuele/chem_software/gaussian//gdv/l701.exe)
 ... and contract with generalized density number  0.
 Compute integral first derivatives.
 Leave Link  701 at Mon Jan  1 12:19:15 2024, MaxMem=   134217728 cpu:               0.3 elap:               0.1
 (Enter /home/emanuele/chem_software/gaussian//gdv/l702.exe)
 L702 exits ... SP integral derivatives will be done elsewhere.
 Leave Link  702 at Mon Jan  1 12:19:15 2024, MaxMem=   134217728 cpu:               0.1 elap:               0.0
 (Enter /home/emanuele/chem_software/gaussian//gdv/l703.exe)
 Integral derivatives from FoFJK, PRISM(SPDF).
 Compute integral first derivatives, UseDBF=F ICtDFT=           0.
 Calling FoFJK, ICntrl=      2527 FMM=F ISym2X=0 I1Cent= 0 IOpClX= 0 NMat=1 NMatS=1 NMatT=0.
 FoFJK:  IHMeth= 1 ICntrl=    2527 DoSepK=F KAlg= 0 I1Cent=           0 FoldK=F
 IRaf=         0 NMat=       1 IRICut=       1 DoRegI=T DoRafI=F ISym2E= 0 IDoP0=0 IntGTp=1.
 FoFCou: FMM=F IPFlag=           0 FMFlag=      100000 FMFlg1=         800
         NFxFlg=           0 DoJE=F BraDBF=F KetDBF=F FulRan=T
         wScrn=  0.000000 ICntrl=      2527 IOpCl=  0 I1Cent=           0 NGrid=           0
         NMat0=    1 NMatS0=      1 NMatT0=    0 NMatD0=    1 NMtDS0=    0 NMtDT0=    0
 Symmetry not used in FoFCou.
 Leave Link  703 at Mon Jan  1 12:19:17 2024, MaxMem=   134217728 cpu:               5.0 elap:               1.3
 (Enter /home/emanuele/chem_software/gaussian//gdv/l716.exe)
 Dipole        =-1.16614852D-01-5.13547017D-01 6.00893477D-01
 -------------------------------------------------------------------
 Center     Atomic                   Forces (Hartrees/Bohr)
 Number     Number              X              Y              Z
 -------------------------------------------------------------------
      1        6           0.004663020   -0.005002710    0.001992999
      2        8          -0.000981705   -0.004555854   -0.000373872
      3        6           0.000834387    0.002079932   -0.004135558
      4        1          -0.000239957    0.000193277    0.000706247
      5        1           0.000655244   -0.000806015   -0.000137039
      6        7          -0.000074908    0.000743376    0.008329487
      7        1          -0.002261424   -0.001588416   -0.003136570
      8        1          -0.001611552   -0.001394966   -0.003013136
      9        8          -0.001663916    0.007905058   -0.000291777
     10        1           0.000680812    0.002426318    0.000059218
 -------------------------------------------------------------------
 Cartesian Forces:  Max     0.008329487 RMS     0.002995287
 Leave Link  716 at Mon Jan  1 12:19:17 2024, MaxMem=   134217728 cpu:               0.1 elap:               0.0
 (Enter /home/emanuele/chem_software/gaussian//gdv/l103.exe)

 GradGradGradGradGradGradGradGradGradGradGradGradGradGradGradGradGradGrad
 Berny optimization.
 Using GEDIIS/GDIIS optimizer.
 FormGI is forming the generalized inverse of G from B-inverse, IUseBI=4.
 Internal  Forces:  Max     0.007937155 RMS     0.002065678
 Search for a local minimum.
 Step number   2 out of a maximum of  100 on scan point     1 out of    11
 All quantities printed in internal units (Hartrees-Bohrs-Radians)
 RMS Force = .20336D-02 SwitMx=.10000D-02 MixMth= 1
 Mixed Optimization -- RFO/linear search
 Update second derivatives using D2CorX and points    1    2
 DE= -5.84D-03 DEPred=-6.06D-03 R= 9.64D-01
 TightC=F SS=  1.41D+00  RLast= 2.13D-01 DXNew= 5.0454D-01 6.3837D-01
 Trust test= 9.64D-01 RLast= 2.13D-01 DXMaxT set to 5.05D-01
 ITU=  1  0
 Use linear search instead of GDIIS.
     Eigenvalues ---    0.00641   0.01063   0.02157   0.02341   0.04630
     Eigenvalues ---    0.06485   0.09719   0.12376   0.15983   0.16000
     Eigenvalues ---    0.17023   0.21706   0.24958   0.25094   0.31505
     Eigenvalues ---    0.33526   0.34505   0.38830   0.45726   0.46911
     Eigenvalues ---    0.53876   0.54598   0.949801000.000001000.00000
     Eigenvalues --- 1000.000001000.000001000.000001000.000001000.00000
     Eigenvalues --- 1000.000001000.000001000.000001000.000001000.00000
     Eigenvalues --- 1000.00000
 RFO step:  Lambda=-6.92800412D-04 EMin= 6.40642972D-03
 Quartic linear search produced a step of  0.05171.
 Iteration  1 RMS(Cart)=  0.02073425 RMS(Int)=  0.00065300
 Iteration  2 RMS(Cart)=  0.00061779 RMS(Int)=  0.00018722
 Iteration  3 RMS(Cart)=  0.00000031 RMS(Int)=  0.00018722
 Fixing frozen coordinates.
 Iteration  1 RMS(Cart)=  0.00002183 RMS(Int)=  0.00002118
 Iteration  2 RMS(Cart)=  0.00001174 RMS(Int)=  0.00002367
 Iteration  3 RMS(Cart)=  0.00000631 RMS(Int)=  0.00002669
 Iteration  4 RMS(Cart)=  0.00000340 RMS(Int)=  0.00002865
 Iteration  5 RMS(Cart)=  0.00000183 RMS(Int)=  0.00002978
 Iteration  6 RMS(Cart)=  0.00000098 RMS(Int)=  0.00003041
 ITry= 1 IFail=0 DXMaxC= 8.54D-02 DCOld= 1.00D+10 DXMaxT= 5.05D-01 DXLimC= 3.00D+00 Rises=F
 Variable       Old X    -DE/DX   Delta X   Delta X   Delta X     New X
                                 (Linear)    (Quad)   (Total)
    R1        2.61362   0.00149   0.00314   0.00242   0.00556   2.61918
    R2        2.86494  -0.00192   0.00064  -0.00649  -0.00584   2.85910
    R3        2.34072   0.00794   0.00349   0.00754   0.01104   2.35175
    R4        1.87314   0.00080   0.00229   0.00124   0.00353   1.87667
    R5        2.11096   0.00057   0.00160   0.00158   0.00317   2.11413
    R6        2.08638   0.00065   0.00118   0.00182   0.00300   2.08938
    R7        2.77030  -0.00487   0.00139  -0.01364  -0.01226   2.75805
    R8        1.94198  -0.00223   0.00146  -0.00534  -0.00388   1.93811
    R9        1.93504  -0.00188   0.00136  -0.00448  -0.00312   1.93192
    A1        1.94395  -0.00088  -0.00030  -0.00323  -0.00370   1.94026
    A2        2.15699  -0.00129   0.00051  -0.00503  -0.00469   2.15230
    A3        2.18141   0.00218  -0.00023   0.00957   0.00917   2.19058
    A4        1.93194  -0.00448   0.00313  -0.02957  -0.02644   1.90550
    A5        1.85611  -0.00011   0.00085  -0.00117  -0.00027   1.85584
    A6        1.88002   0.00144  -0.00059   0.00813   0.00746   1.88749
    A7        1.91391  -0.00155  -0.00086  -0.00785  -0.00871   1.90520
    A8        1.84820  -0.00014  -0.00030   0.00149   0.00118   1.84939
    A9        2.02100   0.00036   0.00084  -0.00021   0.00061   2.02161
   A10        1.93783   0.00015   0.00002   0.00059   0.00061   1.93844
   A11        1.95670  -0.00102   0.00191   0.00347   0.00488   1.96158
   A12        1.98326   0.00003   0.00200   0.01010   0.01160   1.99486
   A13        1.92771   0.00249   0.00165   0.03319   0.03407   1.96178
    D1        3.09211   0.00029  -0.00003   0.01967   0.01952   3.11163
    D2       -0.00745  -0.00015   0.00050  -0.01355  -0.01293  -0.02038
    D3       -1.24163  -0.00048   0.00062  -0.01479  -0.01419  -1.25582
    D4        0.73341  -0.00004   0.00042  -0.00994  -0.00954   0.72387
    D5        2.84423   0.00011  -0.00044  -0.00889  -0.00941   2.83482
    D6        1.85723  -0.00013   0.00010   0.01855   0.01871   1.87594
    D7       -2.45092   0.00031  -0.00010   0.02340   0.02336  -2.42756
    D8       -0.34010   0.00045  -0.00097   0.02445   0.02349  -0.31661
    D9        0.60481  -0.00202  -0.00000   0.00000  -0.00000   0.60481
   D10        2.80594   0.00056   0.00505   0.05656   0.06184   2.86778
   D11       -1.49492  -0.00093  -0.00105   0.00772   0.00658  -1.48834
   D12        0.70621   0.00164   0.00400   0.06428   0.06842   0.77463
   D13        2.68033  -0.00113  -0.00128   0.00543   0.00406   2.68439
   D14       -1.40173   0.00144   0.00377   0.06199   0.06591  -1.33582
         Item               Value     Threshold  Converged?
 Maximum Force            0.007937     0.000450     NO 
 RMS     Force            0.002034     0.000300     NO 
 Maximum Displacement     0.085400     0.001800     NO 
 RMS     Displacement     0.020921     0.001200     NO 
 Predicted change in Energy=-3.489899D-04
 Lowest energy point so far.  Saving SCF results.
 GradGradGradGradGradGradGradGradGradGradGradGradGradGradGradGradGradGrad

 Leave Link  103 at Mon Jan  1 12:19:17 2024, MaxMem=   134217728 cpu:               0.0 elap:               0.0
 (Enter /home/emanuele/chem_software/gaussian//gdv/l202.exe)
                          Input orientation:                          
 ---------------------------------------------------------------------
 Center     Atomic      Atomic             Coordinates (Angstroms)
 Number     Number       Type             X           Y           Z
 ---------------------------------------------------------------------
      1          6           0       -0.530358    0.111040    0.030483
      2          8           0       -1.656408   -0.688915   -0.084045
      3          6           0        0.725476   -0.725690    0.139293
      4          1           0        0.708283   -1.187876    1.157965
      5          1           0        0.643547   -1.564351   -0.576530
      6          7           0        1.884602    0.108847   -0.160879
      7          1           0        1.766110    1.073958    0.165277
      8          1           0        2.778786   -0.293272    0.128753
      9          8           0       -0.574380    1.354603    0.049966
     10          1           0       -2.463632   -0.111932   -0.125332
 ---------------------------------------------------------------------
                    Distance matrix (angstroms):
                    1          2          3          4          5
     1  C    0.000000
     2  O    1.386013   0.000000
     3  C    1.512969   2.392614   0.000000
     4  H    2.119582   2.717224   1.118751   0.000000
     5  H    2.133882   2.509726   1.105652   1.776062   0.000000
     6  N    2.422531   3.630575   1.459496   2.191932   2.124282
     7  H    2.493822   3.857915   2.079021   2.687066   2.961605
     8  H    3.335200   4.457887   2.098375   2.479229   2.583081
     9  O    1.244494   2.316183   2.454633   3.055664   3.224304
    10  H    1.952318   0.993089   3.258395   3.586858   3.459432
                    6          7          8          9         10
     6  N    0.000000
     7  H    1.025601   0.000000
     8  H    1.022326   1.701813   0.000000
     9  O    2.764590   2.360075   3.737034   0.000000
    10  H    4.353981   4.402443   5.251704   2.398067   0.000000
 Symmetry turned off by external request.
 Stoichiometry    C2H5NO2
 Framework group  C1[X(C2H5NO2)]
 Deg. of freedom    24
 Full point group                 C1      NOp   1
 Rotational constants (GHZ):           9.8876414           3.9201923           2.8875376
 Leave Link  202 at Mon Jan  1 12:19:17 2024, MaxMem=   134217728 cpu:               0.1 elap:               0.0
 (Enter /home/emanuele/chem_software/gaussian//gdv/l301.exe)
 Standard basis: 6-31G (6D, 7F)
 Ernie: Thresh=  0.10000D-02 Tol=  0.10000D-05 Strict=F.
    55 basis functions,   130 primitive gaussians,    55 cartesian basis functions
    20 alpha electrons       20 beta electrons
       nuclear repulsion energy       177.1489774353 Hartrees.
 IExCor=   10009 DFT=T Ex=PBE Corr=PBE N6=None ScaHFX=  0.000000
 ScaDFX=  1.000000  1.000000  1.000000  1.000000  1.000000  0.000000
 ScaDFX=  0.000000  0.000000  0.000000  0.000000  0.000000  0.000000
 IRadAn=      5 IRanWt=     -1 IRanGd=            0 ICorTp=0 IEmpDi=  4
 NAtoms=   10 NActive=   10 NUniq=   10 SFac= 1.00D+00 NAtFMM=   60 NAOKFM=F Big=F
 Integral buffers will be    131072 words long.
 Raffenetti 2 integral format.
 Two-electron integral symmetry is turned off.
 Leave Link  301 at Mon Jan  1 12:19:17 2024, MaxMem=   134217728 cpu:               0.2 elap:               0.1
 (Enter /home/emanuele/chem_software/gaussian//gdv/l302.exe)
 NPDir=0 NMtPBC=     1 NCelOv=     1 NCel=       1 NClECP=     1 NCelD=      1
         NCelK=      1 NCelE2=     1 NClLst=     1 CellRange=     0.0.
 One-electron integrals computed using PRISM.
 NBasis=    55 RedAO= T EigKep=  6.01D-03  NBF=    55
 NBsUse=    55 1.00D-06 EigRej= -1.00D+00 NBFU=    55
 Precomputing XC quadrature grid using
 IXCGrd= 4 IRadAn=           5 IRanWt=          -1 IRanGd=           0 AccXCQ= 0.00D+00.
 Generated NRdTot=       0 NPtTot=      219320 NUsed=           0 NTot=          64
 NSgBfM=    55    55    55    55    55 MxSgAt=    10 MxSgA2=    10 SizInc=   0.000
 NMBTot=     1887 MaxBatPerAtom=       84 MaxMicBPerAtom=      200.
 Leave Link  302 at Mon Jan  1 12:19:17 2024, MaxMem=   134217728 cpu:               0.6 elap:               0.2
 (Enter /home/emanuele/chem_software/gaussian//gdv/l303.exe)
 DipDrv:  MaxL=1.
 Leave Link  303 at Mon Jan  1 12:19:17 2024, MaxMem=   134217728 cpu:               0.2 elap:               0.0
 (Enter /home/emanuele/chem_software/gaussian//gdv/l401.exe)
 Initial guess from the checkpoint file:  "2_qm.chk"
 B after Tr=    -0.003272   -0.000656    0.006200
         Rot=    0.999998    0.001160    0.001412   -0.000919 Ang=   0.23 deg.
 AO Guess basis will be translated and rotated to current coordinates.
 JPrj=2 DoOrth=T DoCkMO=T.
 Generating alternative initial guess.
 ExpMin= 1.61D-01 ExpMax= 5.48D+03 ExpMxC= 8.25D+02 IAcc=3 IRadAn=         5 AccDes= 0.00D+00
 Harris functional with IExCor=10009 and IRadAn=       5 diagonalized for initial guess.
 HarFok:  IExCor=   10009 AccDes= 0.00D+00 IRadAn=         5 IDoV= 1 UseB2=F ITyADJ=14 ICtDFT=  3500011
 FoFCou: FMM=F IPFlag=           0 FMFlag=      100000 FMFlg1=           0
         NFxFlg=           0 DoJE=T BraDBF=F KetDBF=T FulRan=T
         wScrn=  0.000000 ICntrl=       500 IOpCl=  0 I1Cent=   200000004 NGrid=           0
         NMat0=    1 NMatS0=      1 NMatT0=    0 NMatD0=    1 NMtDS0=    0 NMtDT0=    0
 Symmetry not used in FoFCou.
 Harris En= -284.094011642195    
 Leave Link  401 at Mon Jan  1 12:19:18 2024, MaxMem=   134217728 cpu:               2.4 elap:               0.7
 (Enter /home/emanuele/chem_software/gaussian//gdv/l502.exe)
 Keep J ints in memory in canonical form, NReq=4700713.
 FoFCou: FMM=F IPFlag=           0 FMFlag=           0 FMFlg1=           0
         NFxFlg=           0 DoJE=F BraDBF=F KetDBF=F FulRan=T
         wScrn=  0.000000 ICntrl=       600 IOpCl=  0 I1Cent=           0 NGrid=           0
         NMat0=    1 NMatS0=   1540 NMatT0=    0 NMatD0=    1 NMtDS0=    0 NMtDT0=    0
 Symmetry not used in FoFCou.
 Two-electron integral symmetry not used.
 Closed shell SCF:
 Using DIIS extrapolation, IDIIS=  1040.
 NGot=   134217728 LenX=   133023731 LenY=   133020265
 Requested convergence on RMS density matrix=1.00D-08 within 128 cycles.
 Requested convergence on MAX density matrix=1.00D-06.
 Requested convergence on             energy=1.00D-06.
 No special actions if energy rises.
 Integral accuracy reduced to 1.0D-05 until final iterations.

 Cycle   1  Pass 0  IDiag  1:
 E= -284.009706026438    
 DIIS: error= 2.27D-03 at cycle   1 NSaved=   1.
 NSaved= 1 IEnMin= 1 EnMin= -284.009706026438     IErMin= 1 ErrMin= 2.27D-03
 ErrMax= 2.27D-03  0.00D+00 EMaxC= 1.00D-01 BMatC= 3.49D-04 BMatP= 3.49D-04
 IDIUse=3 WtCom= 9.77D-01 WtEn= 2.27D-02
 Coeff-Com:  0.100D+01
 Coeff-En:   0.100D+01
 Coeff:      0.100D+01
 Gap=     0.522 Goal=   None    Shift=    0.000
 GapD=    0.522 DampG=2.000 DampE=1.000 DampFc=2.0000 IDamp=-1.
 RMSDP=9.39D-04 MaxDP=1.18D-02              OVMax= 1.21D-02

 Cycle   2  Pass 0  IDiag  1:
 E= -284.010411448563     Delta-E=       -0.000705422124 Rises=F Damp=F
 DIIS: error= 4.68D-04 at cycle   2 NSaved=   2.
 NSaved= 2 IEnMin= 2 EnMin= -284.010411448563     IErMin= 2 ErrMin= 4.68D-04
 ErrMax= 4.68D-04  0.00D+00 EMaxC= 1.00D-01 BMatC= 2.78D-05 BMatP= 3.49D-04
 IDIUse=3 WtCom= 9.95D-01 WtEn= 4.68D-03
 Coeff-Com:  0.111D+00 0.889D+00
 Coeff-En:   0.000D+00 0.100D+01
 Coeff:      0.110D+00 0.890D+00
 Gap=     0.125 Goal=   None    Shift=    0.000
 RMSDP=2.65D-04 MaxDP=2.69D-03 DE=-7.05D-04 OVMax= 4.96D-03

 Cycle   3  Pass 0  IDiag  1:
 E= -284.010356418616     Delta-E=        0.000055029947 Rises=F Damp=F
 DIIS: error= 1.27D-03 at cycle   3 NSaved=   3.
 NSaved= 3 IEnMin= 2 EnMin= -284.010411448563     IErMin= 2 ErrMin= 4.68D-04
 ErrMax= 1.27D-03  0.00D+00 EMaxC= 1.00D-01 BMatC= 1.01D-04 BMatP= 2.78D-05
 IDIUse=3 WtCom= 2.19D-01 WtEn= 7.81D-01
 Coeff-Com:  0.273D-01 0.652D+00 0.321D+00
 Coeff-En:   0.000D+00 0.711D+00 0.289D+00
 Coeff:      0.598D-02 0.698D+00 0.296D+00
 Gap=     0.126 Goal=   None    Shift=    0.000
 RMSDP=1.59D-04 MaxDP=1.92D-03 DE= 5.50D-05 OVMax= 4.29D-03

 Cycle   4  Pass 0  IDiag  1:
 E= -284.010434426804     Delta-E=       -0.000078008189 Rises=F Damp=F
 DIIS: error= 2.55D-04 at cycle   4 NSaved=   4.
 NSaved= 4 IEnMin= 4 EnMin= -284.010434426804     IErMin= 4 ErrMin= 2.55D-04
 ErrMax= 2.55D-04  0.00D+00 EMaxC= 1.00D-01 BMatC= 6.21D-06 BMatP= 2.78D-05
 IDIUse=3 WtCom= 9.97D-01 WtEn= 2.55D-03
 Coeff-Com:  0.688D-02 0.394D+00 0.195D+00 0.404D+00
 Coeff-En:   0.000D+00 0.000D+00 0.000D+00 0.100D+01
 Coeff:      0.686D-02 0.393D+00 0.194D+00 0.406D+00
 Gap=     0.127 Goal=   None    Shift=    0.000
 RMSDP=5.48D-05 MaxDP=7.19D-04 DE=-7.80D-05 OVMax= 9.01D-04

 Cycle   5  Pass 0  IDiag  1:
 E= -284.010438945178     Delta-E=       -0.000004518373 Rises=F Damp=F
 DIIS: error= 1.04D-04 at cycle   5 NSaved=   5.
 NSaved= 5 IEnMin= 5 EnMin= -284.010438945178     IErMin= 5 ErrMin= 1.04D-04
 ErrMax= 1.04D-04  0.00D+00 EMaxC= 1.00D-01 BMatC= 8.83D-07 BMatP= 6.21D-06
 IDIUse=3 WtCom= 9.99D-01 WtEn= 1.04D-03
 Coeff-Com:  0.709D-03 0.143D+00 0.683D-01 0.285D+00 0.504D+00
 Coeff-En:   0.000D+00 0.000D+00 0.000D+00 0.148D+00 0.852D+00
 Coeff:      0.708D-03 0.142D+00 0.683D-01 0.285D+00 0.504D+00
 Gap=     0.127 Goal=   None    Shift=    0.000
 RMSDP=1.87D-05 MaxDP=2.17D-04 DE=-4.52D-06 OVMax= 2.70D-04

 Cycle   6  Pass 0  IDiag  1:
 E= -284.010439675182     Delta-E=       -0.000000730004 Rises=F Damp=F
 DIIS: error= 2.46D-05 at cycle   6 NSaved=   6.
 NSaved= 6 IEnMin= 6 EnMin= -284.010439675182     IErMin= 6 ErrMin= 2.46D-05
 ErrMax= 2.46D-05  0.00D+00 EMaxC= 1.00D-01 BMatC= 5.76D-08 BMatP= 8.83D-07
 IDIUse=1 WtCom= 1.00D+00 WtEn= 0.00D+00
 Coeff-Com:  0.201D-03 0.696D-01 0.326D-01 0.160D+00 0.323D+00 0.415D+00
 Coeff:      0.201D-03 0.696D-01 0.326D-01 0.160D+00 0.323D+00 0.415D+00
 Gap=     0.127 Goal=   None    Shift=    0.000
 RMSDP=3.99D-06 MaxDP=5.64D-05 DE=-7.30D-07 OVMax= 6.54D-05

 Initial convergence to 1.0D-05 achieved.  Increase integral accuracy.
 Cycle   7  Pass 1  IDiag  1:
 E= -284.010446154027     Delta-E=       -0.000006478845 Rises=F Damp=F
 DIIS: error= 5.03D-06 at cycle   1 NSaved=   1.
 NSaved= 1 IEnMin= 1 EnMin= -284.010446154027     IErMin= 1 ErrMin= 5.03D-06
 ErrMax= 5.03D-06  0.00D+00 EMaxC= 1.00D-01 BMatC= 1.86D-09 BMatP= 1.86D-09
 IDIUse=1 WtCom= 1.00D+00 WtEn= 0.00D+00
 Coeff-Com:  0.100D+01
 Coeff:      0.100D+01
 Gap=     0.127 Goal=   None    Shift=    0.000
 RMSDP=3.99D-06 MaxDP=5.64D-05 DE=-6.48D-06 OVMax= 2.01D-05

 Cycle   8  Pass 1  IDiag  1:
 E= -284.010446151994     Delta-E=        0.000000002033 Rises=F Damp=F
 DIIS: error= 8.35D-06 at cycle   2 NSaved=   2.
 NSaved= 2 IEnMin= 1 EnMin= -284.010446154027     IErMin= 1 ErrMin= 5.03D-06
 ErrMax= 8.35D-06  0.00D+00 EMaxC= 1.00D-01 BMatC= 4.82D-09 BMatP= 1.86D-09
 IDIUse=1 WtCom= 1.00D+00 WtEn= 0.00D+00
 Coeff-Com:  0.623D+00 0.377D+00
 Coeff:      0.623D+00 0.377D+00
 Gap=     0.127 Goal=   None    Shift=    0.000
 RMSDP=1.05D-06 MaxDP=1.44D-05 DE= 2.03D-09 OVMax= 1.30D-05

 Cycle   9  Pass 1  IDiag  1:
 E= -284.010446155881     Delta-E=       -0.000000003887 Rises=F Damp=F
 DIIS: error= 1.12D-06 at cycle   3 NSaved=   3.
 NSaved= 3 IEnMin= 3 EnMin= -284.010446155881     IErMin= 3 ErrMin= 1.12D-06
 ErrMax= 1.12D-06  0.00D+00 EMaxC= 1.00D-01 BMatC= 8.26D-11 BMatP= 1.86D-09
 IDIUse=1 WtCom= 1.00D+00 WtEn= 0.00D+00
 Coeff-Com:  0.167D+00 0.156D+00 0.677D+00
 Coeff:      0.167D+00 0.156D+00 0.677D+00
 Gap=     0.127 Goal=   None    Shift=    0.000
 RMSDP=2.46D-07 MaxDP=2.84D-06 DE=-3.89D-09 OVMax= 4.14D-06

 Cycle  10  Pass 1  IDiag  1:
 E= -284.010446155920     Delta-E=       -0.000000000039 Rises=F Damp=F
 DIIS: error= 6.32D-07 at cycle   4 NSaved=   4.
 NSaved= 4 IEnMin= 4 EnMin= -284.010446155920     IErMin= 4 ErrMin= 6.32D-07
 ErrMax= 6.32D-07  0.00D+00 EMaxC= 1.00D-01 BMatC= 4.12D-11 BMatP= 8.26D-11
 IDIUse=1 WtCom= 1.00D+00 WtEn= 0.00D+00
 Coeff-Com:  0.390D-01 0.603D-01 0.464D+00 0.437D+00
 Coeff:      0.390D-01 0.603D-01 0.464D+00 0.437D+00
 Gap=     0.127 Goal=   None    Shift=    0.000
 RMSDP=1.10D-07 MaxDP=1.20D-06 DE=-3.91D-11 OVMax= 1.57D-06

 Cycle  11  Pass 1  IDiag  1:
 E= -284.010446155956     Delta-E=       -0.000000000035 Rises=F Damp=F
 DIIS: error= 1.34D-07 at cycle   5 NSaved=   5.
 NSaved= 5 IEnMin= 5 EnMin= -284.010446155956     IErMin= 5 ErrMin= 1.34D-07
 ErrMax= 1.34D-07  0.00D+00 EMaxC= 1.00D-01 BMatC= 1.92D-12 BMatP= 4.12D-11
 IDIUse=1 WtCom= 1.00D+00 WtEn= 0.00D+00
 Coeff-Com:  0.586D-02 0.190D-01 0.202D+00 0.242D+00 0.531D+00
 Coeff:      0.586D-02 0.190D-01 0.202D+00 0.242D+00 0.531D+00
 Gap=     0.127 Goal=   None    Shift=    0.000
 RMSDP=3.58D-08 MaxDP=5.41D-07 DE=-3.55D-11 OVMax= 8.16D-07

 Cycle  12  Pass 1  IDiag  1:
 E= -284.010446155956     Delta-E=       -0.000000000000 Rises=F Damp=F
 DIIS: error= 1.55D-07 at cycle   6 NSaved=   6.
 NSaved= 6 IEnMin= 6 EnMin= -284.010446155956     IErMin= 5 ErrMin= 1.34D-07
 ErrMax= 1.55D-07  0.00D+00 EMaxC= 1.00D-01 BMatC= 1.12D-12 BMatP= 1.92D-12
 IDIUse=1 WtCom= 1.00D+00 WtEn= 0.00D+00
 Coeff-Com:  0.528D-03 0.865D-02 0.111D+00 0.147D+00 0.427D+00 0.307D+00
 Coeff:      0.528D-03 0.865D-02 0.111D+00 0.147D+00 0.427D+00 0.307D+00
 Gap=     0.127 Goal=   None    Shift=    0.000
 RMSDP=1.95D-08 MaxDP=2.76D-07 DE=-2.27D-13 OVMax= 5.21D-07

 Cycle  13  Pass 1  IDiag  1:
 E= -284.010446155956     Delta-E=       -0.000000000000 Rises=F Damp=F
 DIIS: error= 2.48D-08 at cycle   7 NSaved=   7.
 NSaved= 7 IEnMin= 7 EnMin= -284.010446155956     IErMin= 7 ErrMin= 2.48D-08
 ErrMax= 2.48D-08  0.00D+00 EMaxC= 1.00D-01 BMatC= 4.92D-14 BMatP= 1.12D-12
 IDIUse=1 WtCom= 1.00D+00 WtEn= 0.00D+00
 Coeff-Com: -0.334D-03 0.328D-02 0.457D-01 0.641D-01 0.203D+00 0.210D+00
 Coeff-Com:  0.475D+00
 Coeff:     -0.334D-03 0.328D-02 0.457D-01 0.641D-01 0.203D+00 0.210D+00
 Coeff:      0.475D+00
 Gap=     0.127 Goal=   None    Shift=    0.000
 RMSDP=3.98D-09 MaxDP=3.70D-08 DE=-2.27D-13 OVMax= 6.85D-08

 SCF Done:  E(RPBE-PBE) =  -284.010446156     A.U. after   13 cycles
            NFock= 13  Conv=0.40D-08     -V/T= 2.0055
 KE= 2.824497584636D+02 PE=-1.020721409725D+03 EE= 2.771122276701D+02
 Leave Link  502 at Mon Jan  1 12:19:23 2024, MaxMem=   134217728 cpu:              20.4 elap:               5.3
 (Enter /home/emanuele/chem_software/gaussian//gdv/l701.exe)
 ... and contract with generalized density number  0.
 Compute integral first derivatives.
 Leave Link  701 at Mon Jan  1 12:19:23 2024, MaxMem=   134217728 cpu:               0.3 elap:               0.1
 (Enter /home/emanuele/chem_software/gaussian//gdv/l702.exe)
 L702 exits ... SP integral derivatives will be done elsewhere.
 Leave Link  702 at Mon Jan  1 12:19:23 2024, MaxMem=   134217728 cpu:               0.1 elap:               0.0
 (Enter /home/emanuele/chem_software/gaussian//gdv/l703.exe)
 Integral derivatives from FoFJK, PRISM(SPDF).
 Compute integral first derivatives, UseDBF=F ICtDFT=           0.
 Calling FoFJK, ICntrl=      2527 FMM=F ISym2X=0 I1Cent= 0 IOpClX= 0 NMat=1 NMatS=1 NMatT=0.
 FoFJK:  IHMeth= 1 ICntrl=    2527 DoSepK=F KAlg= 0 I1Cent=           0 FoldK=F
 IRaf=         0 NMat=       1 IRICut=       1 DoRegI=T DoRafI=F ISym2E= 0 IDoP0=0 IntGTp=1.
 FoFCou: FMM=F IPFlag=           0 FMFlag=      100000 FMFlg1=         800
         NFxFlg=           0 DoJE=F BraDBF=F KetDBF=F FulRan=T
         wScrn=  0.000000 ICntrl=      2527 IOpCl=  0 I1Cent=           0 NGrid=           0
         NMat0=    1 NMatS0=      1 NMatT0=    0 NMatD0=    1 NMtDS0=    0 NMtDT0=    0
 Symmetry not used in FoFCou.
 Leave Link  703 at Mon Jan  1 12:19:24 2024, MaxMem=   134217728 cpu:               4.9 elap:               1.3
 (Enter /home/emanuele/chem_software/gaussian//gdv/l716.exe)
 Dipole        =-6.77041354D-02-5.21321468D-01 5.63958019D-01
 -------------------------------------------------------------------
 Center     Atomic                   Forces (Hartrees/Bohr)
 Number     Number              X              Y              Z
 -------------------------------------------------------------------
      1        6           0.001949701   -0.000541285   -0.002322825
      2        8          -0.001173296    0.000023092    0.000815777
      3        6           0.001362207    0.001750653   -0.002196381
      4        1          -0.000264901   -0.000113324    0.000253872
      5        1          -0.000217590    0.000062232    0.000530295
[...]
   D14       -1.15200   0.00008   0.00106   0.00014   0.00120  -1.15080
         Item               Value     Threshold  Converged?
 Maximum Force            0.000046     0.000450     YES
 RMS     Force            0.000017     0.000300     YES
 Maximum Displacement     0.001111     0.001800     YES
 RMS     Displacement     0.000326     0.001200     YES
 Predicted change in Energy=-2.710405D-08
 Optimization completed.
    -- Stationary point found.
                           ----------------------------
                           !   Optimized Parameters   !
                           ! (Angstroms and Degrees)  !
 --------------------------                            --------------------------
 ! Name  Definition              Value          Derivative Info.                !
 --------------------------------------------------------------------------------
 ! R1    R(1,2)                  1.3885         -DE/DX =    0.0                 !
 ! R2    R(1,3)                  1.5118         -DE/DX =    0.0                 !
 ! R3    R(1,9)                  1.2441         -DE/DX =    0.0                 !
 ! R4    R(2,10)                 0.9933         -DE/DX =    0.0                 !
 ! R5    R(3,4)                  1.1214         -DE/DX =    0.0                 !
 ! R6    R(3,5)                  1.1059         -DE/DX =    0.0                 !
 ! R7    R(3,6)                  1.4467         -DE/DX =    0.0                 !
 ! R8    R(6,7)                  1.0183         -DE/DX =    0.0                 !
 ! R9    R(6,8)                  1.0153         -DE/DX =    0.0                 !
 ! A1    A(2,1,3)              111.3893         -DE/DX =    0.0                 !
 ! A2    A(2,1,9)              122.8985         -DE/DX =    0.0                 !
 ! A3    A(3,1,9)              125.6676         -DE/DX =    0.0                 !
 ! A4    A(1,2,10)             108.7637         -DE/DX =    0.0                 !
 ! A5    A(1,3,4)              105.7366         -DE/DX =   -0.0002              !
 ! A6    A(1,3,5)              108.1113         -DE/DX =    0.0002              !
 ! A7    A(1,3,6)              109.5464         -DE/DX =    0.0                 !
 ! A8    A(4,3,5)              105.5086         -DE/DX =    0.0                 !
 ! A9    A(4,3,6)              116.0908         -DE/DX =    0.0                 !
 ! A10   A(5,3,6)              111.4233         -DE/DX =    0.0                 !
 ! A11   A(3,6,7)              114.9242         -DE/DX =    0.0001              !
 ! A12   A(3,6,8)              116.7389         -DE/DX =    0.0001              !
 ! A13   A(7,6,8)              115.3804         -DE/DX =    0.0001              !
 ! D1    D(3,1,2,10)           177.2991         -DE/DX =    0.0                 !
 ! D2    D(9,1,2,10)            -0.3964         -DE/DX =    0.0                 !
 ! D3    D(2,1,3,4)            -68.5548         -DE/DX =    0.0                 !
 ! D4    D(2,1,3,5)             44.0539         -DE/DX =    0.0                 !
 ! D5    D(2,1,3,6)            165.6492         -DE/DX =    0.0001              !
 ! D6    D(9,1,3,4)            109.0635         -DE/DX =    0.0                 !
 ! D7    D(9,1,3,5)           -138.3278         -DE/DX =   -0.0001              !
 ! D8    D(9,1,3,6)            -16.7326         -DE/DX =    0.0001              !
 ! D9    D(1,3,6,7)             34.6532         -DE/DX =   -0.0006              !
 ! D10   D(1,3,6,8)            174.4139         -DE/DX =   -0.0002              !
 ! D11   D(4,3,6,7)            -84.9712         -DE/DX =   -0.0003              !
 ! D12   D(4,3,6,8)             54.7895         -DE/DX =    0.0001              !
 ! D13   D(5,3,6,7)            154.2345         -DE/DX =   -0.0003              !
 ! D14   D(5,3,6,8)            -66.0048         -DE/DX =    0.0001              !
 --------------------------------------------------------------------------------
 Lowest energy point so far.  Saving SCF results.
 Summary of Optimized Potential Surface Scan (add -284.0 to energies):
                           1         2         3         4         5
     Eigenvalues --    -0.01078  -0.01429  -0.01250  -0.01106  -0.01078
           R1           1.38847   1.39202   1.39020   1.38747   1.38862
           R2           1.51190   1.52765   1.52259   1.51392   1.51215
           R3           1.24408   1.24365   1.24429   1.24520   1.24422
           R4           0.99332   0.99396   0.99373   0.99307   0.99320
           R5           1.12142   1.10457   1.10362   1.11154   1.12129
           R6           1.10590   1.10659   1.11249   1.11325   1.10735
           R7           1.44656   1.45009   1.44707   1.44456   1.44051
           R8           1.01827   1.02112   1.01576   1.01267   1.01201
           R9           1.01523   1.02145   1.01863   1.01713   1.01526
           A1         111.38530 111.22548 111.45583 111.49941 111.36822
           A2         122.90056 122.77828 122.82405 122.86825 122.86627
           A3         125.66891 125.99247 125.66285 125.62484 125.72848
           A4         108.76660 109.01112 108.98966 108.85757 108.74049
           A5         105.71518 108.18321 108.78799 107.07569 105.71544
           A6         108.12445 107.41419 105.96321 106.58405 107.87702
           A7         109.54699 115.02524 113.31195 110.51110 109.61442
           A8         105.50504 105.34728 105.19797 105.20317 105.34311
           A9         116.09826 110.12680 111.02194 113.51186 115.93672
           A10        111.42657 110.26093 112.11002 113.46969 111.88700
           A11        114.96042 114.01092 116.27654 117.98348 118.67096
           A12        116.76708 113.87750 114.83747 115.31250 116.57486
           A13        115.41177 110.89794 113.89479 116.28854 117.57271
           D1         177.27818-179.20574-177.09576-179.16272 177.54738
           D2          -0.40120   0.12602   0.29354  -0.10818  -0.35416
           D3         -68.60295 -54.53963 -51.93518 -59.10597 -65.89011
           D4          43.99745  58.72535  60.72896  53.08675  46.41737
           D5         165.60521-178.11602-175.93517 176.80363 168.47442
           D6         108.99866 126.15477 130.76516 121.87099 111.93863
           D7        -138.40094-120.58025-116.57070-125.93630-135.75389
           D8         -16.79319   2.57838   6.76517  -2.21942 -13.69684
           D9          34.65346  70.65339 106.65328 142.65334 178.65318
           D10        174.55382 -57.97263 -29.92416  -1.06333  28.95178
           D11        -84.94856 -51.88563 -16.11921  22.34504  59.11019
           D12         54.95181 179.48836-152.69664-121.37163 -90.59121
           D13        154.25367-167.71896-133.45903 -97.69958 -61.71898
           D14        -65.84597  63.65502  89.96354 118.58375 148.57961
                           6         7         8         9        10
     Eigenvalues --    -0.01103  -0.01234  -0.01424  -0.01346  -0.01112
           R1           1.38738   1.38998   1.39199   1.38994   1.38724
           R2           1.51337   1.52196   1.52753   1.52384   1.51449
           R3           1.24519   1.24436   1.24365   1.24450   1.24533
           R4           0.99303   0.99369   0.99396   0.99397   0.99314
           R5           1.11284   1.11283   1.10704   1.10290   1.11032
           R6           1.11251   1.10388   1.10427   1.10931   1.11237
           R7           1.44471   1.44683   1.44985   1.45571   1.44955
           R8           1.01274   1.01536   1.02078   1.02404   1.01959
           R9           1.01721   1.01842   1.02125   1.02231   1.01500
           A1         111.49797 111.46644 111.23456 111.54134 111.54073
           A2         122.87099 122.82783 122.77863 122.83970 122.88375
           A3         125.62734 125.64810 125.97959 125.58099 125.56559
           A4         108.84559 108.98215 109.00824 109.06967 108.90972
           A5         106.73138 105.93708 107.24698 109.08697 107.30526
           A6         106.88652 108.72771 108.31700 106.51231 106.58156
           A7         110.33905 113.10818 114.98262 114.22080 110.87740
           A8         105.22513 105.18831 105.33876 105.37834 105.24845
           A9         113.42047 112.28127 110.32910 110.51571 113.32411
           A10        113.74994 111.15274 110.14322 110.68378 113.04249
           A11        117.97714 116.46799 114.13222 112.43456 114.05838
           A12        115.29906 114.91028 113.93411 113.20370 116.58608
           A13        116.35882 114.13105 111.08703 109.74224 114.46135
           D1         179.48769 177.10504 178.89225-177.49200-178.99464
           D2           0.15146  -0.27563  -0.18312   0.38028  -0.08356
           D3         -52.31115 -60.30762 -59.54319 -51.00097 -59.31425
           D4          59.88842  52.30550  53.69388  62.28176  53.03184
           D5        -175.95833 176.28727 177.36596-175.21672 176.44444
           D6         127.00298 116.98372 119.49614 131.19715 121.80992
           D7        -120.79745-130.40316-127.26679-115.52012-125.84399
           D8           3.35580  -6.42139  -3.59472   6.98140  -2.43139
           D9        -145.34658-109.34674 -73.34665 -37.34656  -1.34687
           D10         -1.52685  27.94003  55.71626  87.72515 135.58316
           D11         94.97303 130.82085 165.22393-160.79478-122.08724
           D12       -121.20724 -91.89239 -65.71315 -35.72308  14.84279
           D13        -25.24329  13.29620  49.35131  82.85002 118.26673
           D14        118.57644 150.58296 178.41423-152.07827-104.80324
                          11
     Eigenvalues --    -0.01078
           R1           1.38851
           R2           1.51180
           R3           1.24412
           R4           0.99327
           R5           1.12141
           R6           1.10589
           R7           1.44667
           R8           1.01830
           R9           1.01526
           A1         111.38932
           A2         122.89847
           A3         125.66761
           A4         108.76368
           A5         105.73657
           A6         108.11131
           A7         109.54636
           A8         105.50856
           A9         116.09080
           A10        111.42329
           A11        114.92419
           A12        116.73889
           A13        115.38040
           D1         177.29914
           D2          -0.39638
           D3         -68.55479
           D4          44.05391
           D5         165.64916
           D6         109.06346
           D7        -138.32784
           D8         -16.73259
           D9          34.65319
           D10        174.41387
           D11        -84.97119
           D12         54.78948
           D13        154.23455
           D14        -66.00478
 Largest change from initial coordinates is atom    9       0.732 Angstoms.
 GradGradGradGradGradGradGradGradGradGradGradGradGradGradGradGradGradGrad

 Leave Link  103 at Mon Jan  1 12:36:01 2024, MaxMem=   134217728 cpu:               0.0 elap:               0.0
 (Enter /home/emanuele/chem_software/gaussian//gdv/l202.exe)
                          Input orientation:                          
 ---------------------------------------------------------------------
 Center     Atomic      Atomic             Coordinates (Angstroms)
 Number     Number       Type             X           Y           Z
 ---------------------------------------------------------------------
      1          6           0       -0.474193   -0.098741   -0.355794
      2          8           0       -1.625436   -0.819894   -0.068522
      3          6           0        0.657013   -0.472213    0.575026
      4          1           0        0.358957   -0.087816    1.585457
      5          1           0        0.673869   -1.573806    0.670904
      6          7           0        1.905673    0.031286    0.045687
      7          1           0        1.836646    0.922305   -0.442419
      8          1           0        2.728317   -0.082379    0.629711
      9          8           0       -0.425840    0.771486   -1.243595
     10          1           0       -2.352980   -0.513816   -0.671505
 ---------------------------------------------------------------------
                    Distance matrix (angstroms):
                    1          2          3          4          5
     1  C    0.000000
     2  O    1.388506   0.000000
     3  C    1.511799   2.396792   0.000000
     4  H    2.112514   2.685033   1.121415   0.000000
     5  H    2.132598   2.530205   1.105886   1.773061   0.000000
     6  N    2.416994   3.634045   1.446673   2.185729   2.117678
     7  H    2.527848   3.893722   2.090792   2.704846   2.970204
     8  H    3.350755   4.470640   2.108378   2.554867   2.539057
     9  O    1.244115   2.313508   2.454942   3.059059   3.221034
    10  H    1.949821   0.993274   3.258164   3.553865   3.476702
                    6          7          8          9         10
     6  N    0.000000
     7  H    1.018296   0.000000
     8  H    1.015256   1.718699   0.000000
     9  O    2.765158   2.404885   3.766572   0.000000
    10  H    4.352887   4.434850   5.262972   2.386034   0.000000
 Symmetry turned off by external request.
 Stoichiometry    C2H5NO2
 Framework group  C1[X(C2H5NO2)]
 Deg. of freedom    24
 Full point group                 C1      NOp   1
 Rotational constants (GHZ):           9.9563867           3.9127683           2.8806203
 Leave Link  202 at Mon Jan  1 12:36:01 2024, MaxMem=   134217728 cpu:               0.1 elap:               0.0
 (Enter /home/emanuele/chem_software/gaussian//gdv/l601.exe)
 Copying SCF densities to generalized density rwf, IOpCl= 0 IROHF=0.

 **********************************************************************

            Population analysis using the SCF Density.

 **********************************************************************

 Alpha  occ. eigenvalues --      -18.82249     -18.77517     -13.97391     -10.03469      -9.93970
 Alpha  occ. eigenvalues --       -1.02185      -0.94092      -0.80658      -0.66052      -0.54757
 Alpha  occ. eigenvalues --       -0.47578      -0.43099      -0.41938      -0.39859      -0.38069
 Alpha  occ. eigenvalues --       -0.34846      -0.33157      -0.27536      -0.23526      -0.16963
 Alpha virt. eigenvalues --       -0.04418       0.03171       0.06431       0.09979       0.12703
 Alpha virt. eigenvalues --        0.14120       0.17610       0.19173       0.24720       0.30872
 Alpha virt. eigenvalues --        0.50695       0.52694       0.54753       0.57911       0.60634
 Alpha virt. eigenvalues --        0.64441       0.67969       0.72646       0.75078       0.77164
 Alpha virt. eigenvalues --        0.83765       0.86567       0.87451       0.88415       0.90929
 Alpha virt. eigenvalues --        0.92008       0.96259       1.02690       1.03270       1.13292
 Alpha virt. eigenvalues --        1.14014       1.28081       1.53122       1.69489       1.80974
          Condensed to atoms (all electrons):
               1          2          3          4          5          6
     1  C    4.856011   0.156399   0.164678  -0.040847  -0.012607  -0.040738
     2  O    0.156399   8.360803  -0.120730   0.003614   0.004030   0.002126
     3  C    0.164678  -0.120730   5.334762   0.346972   0.344432   0.286970
     4  H   -0.040847   0.003614   0.346972   0.636480  -0.052248  -0.059437
     5  H   -0.012607   0.004030   0.344432  -0.052248   0.563028  -0.048716
     6  N   -0.040738   0.002126   0.286970  -0.059437  -0.048716   6.920997
     7  H   -0.002758   0.000540  -0.047162   0.000713   0.004727   0.322587
     8  H    0.006308  -0.000059  -0.033155  -0.002276  -0.001466   0.324775
     9  O    0.486727  -0.102365  -0.109954  -0.000583   0.002224  -0.002407
    10  H   -0.007912   0.210894   0.011733  -0.000561  -0.000263  -0.000224
               7          8          9         10
     1  C   -0.002758   0.006308   0.486727  -0.007912
     2  O    0.000540  -0.000059  -0.102365   0.210894
     3  C   -0.047162  -0.033155  -0.109954   0.011733
     4  H    0.000713  -0.002276  -0.000583  -0.000561
     5  H    0.004727  -0.001466   0.002224  -0.000263
     6  N    0.322587   0.324775  -0.002407  -0.000224
     7  H    0.422950  -0.029361   0.018017  -0.000027
     8  H   -0.029361   0.441581   0.000333   0.000004
     9  O    0.018017   0.000333   8.084927   0.006153
    10  H   -0.000027   0.000004   0.006153   0.400254
 Mulliken charges:
               1
     1  C    0.434739
     2  O   -0.515253
     3  C   -0.178546
     4  H    0.168171
     5  H    0.196859
     6  N   -0.705934
     7  H    0.309772
     8  H    0.293315
     9  O   -0.383073
    10  H    0.379950
 Sum of Mulliken charges =  -0.00000
 Mulliken charges with hydrogens summed into heavy atoms:
               1
     1  C    0.434739
     2  O   -0.135304
     3  C    0.186484
     6  N   -0.102846
     9  O   -0.383073
 Electronic spatial extent (au):  <R**2>=            432.0633
 Charge=             -0.0000 electrons
 Dipole moment (field-independent basis, Debye):
    X=             -0.3047    Y=             -0.1133    Z=              1.7406  Tot=              1.7707
 Quadrupole moment (field-independent basis, Debye-Ang):
   XX=            -22.9859   YY=            -31.0336   ZZ=            -31.3949
   XY=              1.4627   XZ=              4.7510   YZ=              1.6245
 Traceless Quadrupole moment (field-independent basis, Debye-Ang):
   XX=              5.4855   YY=             -2.5621   ZZ=             -2.9234
   XY=              1.4627   XZ=              4.7510   YZ=              1.6245
 Octapole moment (field-independent basis, Debye-Ang**2):
  XXX=            -13.3912  YYY=             12.3805  ZZZ=             17.4205  XYY=              1.7529
  XXY=              8.0747  XXZ=              3.5880  XZZ=             -2.4795  YZZ=              0.6769
  YYZ=              5.7230  XYZ=             -5.3907
 Hexadecapole moment (field-independent basis, Debye-Ang**3):
 XXXX=           -233.2081 YYYY=            -87.6748 ZZZZ=           -111.4420 XXXY=             -2.1534
 XXXZ=             10.3474 YYYX=            -16.8729 YYYZ=             20.8496 ZZZX=            -25.4640
 ZZZY=             25.4071 XXYY=            -68.2272 XXZZ=            -64.9997 YYZZ=            -34.5165
 XXYZ=              6.8293 YYXZ=             -9.0978 ZZXY=             -2.3763
 N-N= 1.772503268714D+02 E-N=-1.020980120554D+03  KE= 2.824611555096D+02
 No NMR shielding tensors so no spin-rotation constants.
 Leave Link  601 at Mon Jan  1 12:36:01 2024, MaxMem=   134217728 cpu:               0.4 elap:               0.1
 (Enter /home/emanuele/chem_software/gaussian//gdv/l9999.exe)
 Unable to Open any file for archive entry.
 1\1\GINC-EMANUELE-XPS-13-9343\Scan\RPBEPBE\6-31G\C2H5N1O2\EMANUELE\01-
 Jan-2024\0\\#p nosymm geom=nocrowd opt=(modredundant,maxcycle=100) PBE
 PBE/6-31G\\Title\\0,1\C,-0.4741932323,-0.0987407649,-0.3557942383\O,-1
 .6254362035,-0.8198938758,-0.0685219353\C,0.6570130255,-0.4722132613,0
 .5750260855\H,0.358956582,-0.0878158636,1.5854574803\H,0.6738687183,-1
 .5738063488,0.6709035057\N,1.9056732484,0.0312856292,0.045687132\H,1.8
 366463932,0.9223048787,-0.4424186104\H,2.7283165157,-0.0823789164,0.62
 97112617\O,-0.4258398977,0.7714862612,-1.2435945076\H,-2.3529801496,-0
 .5138157383,-0.6715051735\\Version=ES64L-GDVRevJ.14\HF=-284.010784,-28
 4.0142925,-284.0125042,-284.0110646,-284.0107845,-284.0110331,-284.012
 3367,-284.0142366,-284.0134608,-284.0111197,-284.0107839\RMSD=3.900e-0
 9,3.352e-09,3.779e-09,6.668e-09,3.034e-09,9.508e-09,6.501e-09,5.490e-0
 9,9.433e-09,3.896e-09,4.607e-09\PG=C01 [X(C2H5N1O2)]\\@
 The archive entry for this job was punched.


 NECESSARY EVIL: ONE WE LIKE TOO MUCH TO RELINQUISH.
 Job cpu time:       0 days  0 hours 50 minutes 30.4 seconds.
 Elapsed time:       0 days  0 hours 16 minutes 48.9 seconds.
 File lengths (MBytes):  RWF=      6 Int=      0 D2E=      0 Chk=      2 Scr=      1
 Normal termination of Gaussian DV at Mon Jan  1 12:36:01 2024.
