 Entering Gaussian System, Link 0=/home/emanuele/chem_software/gaussian//g09/g09
 Input=2_zmat_mm_30.gjf
 Output=2_zmat_mm_30.log
 Initial command:
 /home/emanuele/chem_software/gaussian//gdv/l1.exe "/home/emanuele/chem_software/gaussian/scratch/Gau-6289.inp" -scrdir="/home/emanuele/chem_software/gaussian/scratch/"
 Entering Link 1 = /home/emanuele/chem_software/gaussian//gdv/l1.exe PID=      6291.
  
 Copyright (c) 1988-2020, Gaussian, Inc.  All Rights Reserved.
  
 This is the private, development version of
 the Gaussian(R) DV system of programs. It is based on
 the Gaussian(R) 16 system (copyright 2016, Gaussian, Inc.),
 the Gaussian(R) 09 system (copyright 2009, Gaussian, Inc.),
 the Gaussian(R) 03 system (copyright 2003, Gaussian, Inc.),
 the Gaussian(R) 98 system (copyright 1998, Gaussian, Inc.),
 the Gaussian(R) 94 system (copyright 1995, Gaussian, Inc.),
 the Gaussian 92(TM) system (copyright 1992, Gaussian, Inc.),
 the Gaussian 90(TM) system (copyright 1990, Gaussian, Inc.),
 the Gaussian 88(TM) system (copyright 1988, Gaussian, Inc.),
 the Gaussian 86(TM) system (copyright 1986, Carnegie Mellon
 University), and the Gaussian 82(TM) system (copyright 1983,
 Carnegie Mellon University). Gaussian is a federally registered
 trademark of Gaussian, Inc.
  
 This software contains proprietary and confidential information,
 including trade secrets, belonging to Gaussian, Inc.
  
 This software is provided under written license and may be
 used, copied, transmitted, or stored only in accord with that
 written license.
  
 The following legend is applicable only to US Government
 contracts under FAR:
  
                    RESTRICTED RIGHTS LEGEND
  
 Use, reproduction and disclosure by the US Government is
 subject to restrictions as set forth in subparagraphs (a)
 and (c) of the Commercial Computer Software - Restricted
 Rights clause in FAR 52.227-19.
  
 Gaussian, Inc.
 340 Quinnipiac St., Bldg. 40, Wallingford CT 06492
  
  
 ---------------------------------------------------------------
 Warning -- This program may not be used in any manner that
 competes with the business of Gaussian, Inc. or will provide
 assistance to any competitor of Gaussian, Inc.  The licensee
 of this program is prohibited from giving any competitor of
 Gaussian, Inc. access to this program.  By using this program,
 the user acknowledges that Gaussian, Inc. is engaged in the
 business of creating and licensing software in the field of
 computational chemistry and represents and warrants to the
 licensee that it is not a competitor of Gaussian, Inc. and that
 it will not use this program in any manner prohibited above.
 ---------------------------------------------------------------
  

 Cite this work as:
 Gaussian Development Version, Revision J.14,
 M. J. Frisch, G. W. Trucks, H. B. Schlegel, G. E. Scuseria, 
 M. A. Robb, J. R. Cheeseman, G. Scalmani, V. Barone, 
 G. A. Petersson, H. Nakatsuji, X. Li, A. V. Marenich, M. Caricato, 
 J. Bloino, B. G. Janesko, J. Zheng, R. Gomperts, B. Mennucci, 
 H. P. Hratchian, J. V. Ortiz, A. F. Izmaylov, J. L. Sonnenberg, 
 D. Williams-Young, F. Ding, F. Lipparini, F. Egidi, J. Goings, 
 B. Peng, A. Petrone, T. Henderson, D. Ranasinghe, V. G. Zakrzewski, 
 J. Gao, N. Rega, G. Zheng, W. Liang, M. Hada, M. Ehara, K. Toyota, 
 R. Fukuda, J. Hasegawa, M. Ishida, T. Nakajima, Y. Honda, O. Kitao, 
 H. Nakai, T. Vreven, K. Throssell, J. A. Montgomery, Jr., 
 J. E. Peralta, F. Ogliaro, M. J. Bearpark, J. J. Heyd, 
 E. N. Brothers, K. N. Kudin, V. N. Staroverov, T. A. Keith, 
 R. Kobayashi, J. Normand, K. Raghavachari, A. P. Rendell, 
 J. C. Burant, S. S. Iyengar, J. Tomasi, M. Cossi, J. M. Millam, 
 M. Klene, C. Adamo, R. Cammi, J. W. Ochterski, R. L. Martin, 
 K. Morokuma, O. Farkas, J. B. Foresman, and D. J. Fox, 
 Gaussian, Inc., Wallingford CT, 2020.
 
 ******************************************
 Gaussian DV:  ES64L-GDVRevJ.14 29-Dec-2020
                26-Nov-2023 
 ******************************************
 %mem=1GB
 %nprocshared=1
 Will use up to    1 processors via shared memory.
 %chk=2_zmat_mm_30.chk
 -----------------------------------------------------------------
 #p Amber=(SoftFirst,Print) geom=nocrowd nosymm opt=(maxcycle=300)
 -----------------------------------------------------------------
 1/6=300,10=10,18=4000020,19=15,37=210000000,38=1,56=2,64=203/1,3;
 2/9=110,12=1,15=1,40=1/2;
 3/5=30,11=9,25=1,30=1,41=10030000,43=2,71=1/1;
 4/20=11,22=1001,24=3,119=11/2;
 7/30=1,44=-1/16;
 1/6=300,10=10,18=4000020,19=15,64=203/3(2);
 2/9=110,12=1,15=1/2;
 99//99;
 2/9=110,12=1,15=1/2;
 3/5=30,11=9,25=1,30=1,41=10030000,43=2,71=1/1;
 4/16=2,20=11,22=1001,24=3,119=11/2;
 7/30=1,44=-1/16;
 1/6=300,10=10,18=4000020,19=15,64=203/3(-4);
 2/9=110,12=1,15=1/2;
 99/9=10/99;
 Leave Link    1 at Sun Nov 26 11:20:21 2023, MaxMem=   134217728 cpu:               0.0 elap:               0.0
 (Enter /home/emanuele/chem_software/gaussian//gdv/l101.exe)
 -----
 Title
 -----
 Symbolic Z-matrix:
 Charge =  0 Multiplicity = 1
 C-C-+0.299289        -0.58106  -0.13098  -0.38245 
 O-OH--0.289770       -0.97752  -0.01228   0.93649 
 C-CT--0.035454        0.79309  -0.78594  -0.40986 
 H-HC-+0.090426        0.74858  -1.72203   0.20266 
 H-HC-+0.095387        1.03554  -1.08927  -1.45874 
 N-N3--0.336253        1.7731   -0.10246   0.45808 
 H-H-+0.142619         1.98308   0.83273   0.1172 
 H-H-+0.128282         1.42767  -0.02396   1.41278 
 O-O2--0.308037       -1.12383   0.5688   -1.20169 
 H-HO-+0.213510       -1.79661   0.5418    1.0505 
 
 ITRead=  3  3  3  3  3  3  3  3  3  3
 MicOpt=  0  0  0  0  0  0  0  0  0  0
 NAtoms=     10 NQM=        0 NQMF=       0 NMMI=      0 NMMIF=      0
                NMic=      10 NMicF=      0.
                    Isotopes and Nuclear Properties:
 (Nuclear quadrupole moments (NQMom) in fm**2, nuclear magnetic moments (NMagM)
  in nuclear magnetons)

  Atom         1           2           3           4           5           6           7           8           9          10
 IAtWgt=          12          16          12           1           1          14           1           1          16           1
 AtmWgt=  12.0000000  15.9949146  12.0000000   1.0078250   1.0078250  14.0030740   1.0078250   1.0078250  15.9949146   1.0078250
 NucSpn=           0           0           0           1           1           2           1           1           0           1
 AtZEff=  -0.0000000  -0.0000000  -0.0000000  -0.0000000  -0.0000000  -0.0000000  -0.0000000  -0.0000000  -0.0000000  -0.0000000
 NQMom=    0.0000000   0.0000000   0.0000000   0.0000000   0.0000000   2.0440000   0.0000000   0.0000000   0.0000000   0.0000000
 NMagM=    0.0000000   0.0000000   0.0000000   2.7928460   2.7928460   0.4037610   2.7928460   2.7928460   0.0000000   2.7928460
 AtZNuc=   6.0000000   8.0000000   6.0000000   1.0000000   1.0000000   7.0000000   1.0000000   1.0000000   8.0000000   1.0000000
 Generating MM parameters.
 I=    1 IAn=  6 Valence= 5.
          JB=  1 J=    2 IAn=  8 IBT=12 Dist= 1.38D+00
          JB=  2 J=    3 IAn=  6 IBT= 1 Dist= 1.52D+00
          JB=  3 J=    9 IAn=  8 IBT= 2 Dist= 1.21D+00
 I=    2 IAn=  8 Valence= 3.
          JB=  1 J=    1 IAn=  6 IBT=12 Dist= 1.38D+00
          JB=  2 J=   10 IAn=  1 IBT= 1 Dist= 9.95D-01
 Read MM parameter file:
 Include all MM classes

 MM sanity checks:
 All charges sum to:               -0.00000100
 Charges of atoms sum to:          -0.00000100
 WARNING -- The following centers have non-zero partial charges, but zero Vanderwaals
 parameters.  These centers can collapse onto other centers with non-zero charge.
   Center  Layer   Charge
     10 H    R    0.213510
 MMInit generated parameter data with length LenPar=        2069.
 MM Charge=             -0.0000 electrons
 MM Dipole moment (Debye):
    X=              0.3845    Y=             -0.8492    Z=              0.7025  Tot=              1.1672
 MM Quadrupole moment (Debye-Ang):
   XX=              0.0967   YY=              2.0316   ZZ=             -0.1508
   XY=              0.4733   XZ=             -2.8207   YZ=              2.3264
 MM Traceless Quadrupole moment (Debye-Ang):
   XX=             -0.5625   YY=              1.3724   ZZ=             -0.8099
   XY=              0.4733   XZ=             -2.8207   YZ=              2.3264
 MM Octapole moment (Debye-Ang**2):
  XXX=             -4.0909  YYY=             -2.4425  ZZZ=              2.7094  XYY=              2.3391
  XXY=              2.5467  XXZ=              3.4324  XZZ=              3.6127  YZZ=             -1.6718
  YYZ=              0.4414  XYZ=             -1.4086
 MM Hexadecapole moment (Debye-Ang**3):
 XXXX=              5.0040 YYYY=              4.6625 ZZZZ=              1.5779 XXXY=              2.5204
 XXXZ=             -9.0812 YYYX=             -1.4056 YYYZ=              0.9273 ZZZX=             -3.1105
 ZZZY=              3.6380 XXYY=              3.4292 XXZZ=              2.3747 YYZZ=              0.8400
 XXYZ=              4.3208 YYXZ=             -1.7032 ZZXY=             -0.8043
 Leave Link  101 at Sun Nov 26 11:20:21 2023, MaxMem=   134217728 cpu:               0.2 elap:               0.2
 (Enter /home/emanuele/chem_software/gaussian//gdv/l103.exe)

 GradGradGradGradGradGradGradGradGradGradGradGradGradGradGradGradGradGrad
 Berny optimization.
 Initialization pass.
 No Z-matrix variables, so optimization will use Cartesian coordinates.
 Trust Radius=1.00D-01 FncErr=1.00D-07 GrdErr=1.00D-07 EigMax=2.50D+02 EigMin=1.00D-04
 Number of steps in this run=      2 maximum allowed number of steps=      2.
 GradGradGradGradGradGradGradGradGradGradGradGradGradGradGradGradGradGrad

 Leave Link  103 at Sun Nov 26 11:20:21 2023, MaxMem=   134217728 cpu:               0.0 elap:               0.0
 (Enter /home/emanuele/chem_software/gaussian//gdv/l202.exe)
                          Input orientation:                          
 ---------------------------------------------------------------------
 Center     Atomic      Atomic             Coordinates (Angstroms)
 Number     Number       Type             X           Y           Z
 ---------------------------------------------------------------------
      1          6    20001002       -0.581063   -0.130977   -0.382450
      2          8    20001022       -0.977522   -0.012275    0.936487
      3          6    20001001        0.793088   -0.785938   -0.409859
      4          1    20001034        0.748579   -1.722032    0.202661
      5          1    20001034        1.035538   -1.089273   -1.458735
      6          7    20001020        1.773098   -0.102455    0.458077
      7          1    20001029        1.983082    0.832727    0.117195
      8          1    20001029        1.427666   -0.023958    1.412775
      9          8    20001025       -1.123834    0.568800   -1.201695
     10          1    20001031       -1.796607    0.541795    1.050496
 ---------------------------------------------------------------------
                    Distance matrix (angstroms):
                    1          2          3          4          5
     1  C    0.000000
     2  O    1.382340   0.000000
     3  C    1.522503   2.355050   0.000000
     4  H    2.154474   2.537951   1.119569   0.000000
     5  H    2.165668   3.308991   1.118452   1.800824   0.000000
     6  N    2.499875   2.793371   1.476781   1.933367   2.278590
     7  H    2.784459   3.185976   2.077005   2.838679   2.659977
     8  H    2.696160   2.451921   2.074921   2.192941   3.087755
     9  O    1.206421   2.220558   2.477279   3.275066   2.734623
    10  H    1.995872   0.995436   3.256076   3.510229   4.120397
                    6          7          8          9         10
     6  N    0.000000
     7  H    1.017280   0.000000
     8  H    1.018299   1.649522   0.000000
     9  O    3.405531   3.385566   3.700941   0.000000
    10  H    3.675434   3.904067   3.293518   2.350684   0.000000
 Symmetry turned off by external request.
 Stoichiometry    C2H5NO2
 Framework group  C1[X(C2H5NO2)]
 Deg. of freedom    24
 Full point group                 C1      NOp   1
 Rotational constants (GHZ):           8.8709088           4.0730584           3.2453697
 Leave Link  202 at Sun Nov 26 11:20:21 2023, MaxMem=   134217728 cpu:               0.0 elap:               0.0
 (Enter /home/emanuele/chem_software/gaussian//gdv/l301.exe)
 Standard basis: Dummy (5D, 7F)
    10 basis functions,    10 primitive gaussians,    10 cartesian basis functions
     7 alpha electrons        7 beta electrons
       nuclear repulsion energy        22.7320887941 Hartrees.
 IExCor=       0 DFT=F Ex=HF Corr=None N6=None ScaHFX=  1.000000
 ScaDFX=  1.000000  1.000000  1.000000  1.000000  1.000000  0.000000
 ScaDFX=  0.000000  0.000000  0.000000  0.000000  0.000000  0.000000
 IRadAn=      5 IRanWt=     -1 IRanGd=            0 ICorTp=0 IEmpDi=  4
 NAtoms=   10 NActive=   10 NUniq=   10 SFac= 1.00D+00 NAtFMM=   60 NAOKFM=F Big=F
 Integral buffers will be    131072 words long.
 Raffenetti 1 integral format.
 Two-electron integral symmetry is turned off.
 Leave Link  301 at Sun Nov 26 11:20:21 2023, MaxMem=   134217728 cpu:               0.0 elap:               0.0
 (Enter /home/emanuele/chem_software/gaussian//gdv/l402.exe)
 AMBER calculation of energy and first derivatives.
 NRF= 0 NRA=   0 NVA=  10 HaveQM=F NVQ=       0
 Convergence limit is  0.750E-04 MaxStp= 10000 StMxLn= 3.00D-04 StpMin= 1.00D-06.
 Convergence criteria             0.00011250 0.00007500 0.00045000 0.00030000
  Step  NS  ND Rises OKQ   Scale  Max. Force  RMS Force Max. Disp.  RMS Disp.     Energy   Flag
     1   0   0   F    T  1.00D+00 0.03763610 0.01634218 0.03763610 0.01634218    0.1043322 ----
     2   0   0   F    F  1.05D+00 0.03763610 0.01634218 0.03942146 0.01711741    0.0983107 ----
     3   0   0   F    T  2.00D+00 0.02962217 0.01305271 0.07484754 0.03345958    0.0962008 ----
     4   0   0   F    F  7.96D-01 0.02962217 0.01305271 0.05959333 0.02664039    0.0887866 ----
     5   0   0   F    T  3.36D+00 0.03122491 0.01154742 0.12314499 0.06009998    0.0869635 ----
     6   0   0   F    F -4.82D-01 0.03122491 0.01154742 0.05938336 0.02898160    0.0866115 ----
     7   0   0   F    T  1.82D+00 0.02991905 0.01030025 0.05709441 0.03111838    0.0834500 ----
     8   0   0   F    F -2.69D-01 0.02991905 0.01030025 0.01536497 0.00837443    0.0816133 ----
     9   0   0   F    T  1.41D+00 0.02004768 0.00927767 0.05419051 0.02274395    0.0813223 ----
    10   0   0   F    F  1.25D+00 0.02004768 0.00927767 0.06780629 0.02845854    0.0785226 ----
    11   0   0   F    F -2.04D-02 0.02004768 0.00927767 0.00138577 0.00058161    0.0773143 ----
    12   0   0   F    T  3.39D+00 0.01903327 0.00823386 0.12544854 0.05062088    0.0773138 ----
    13   0   0   F    F -3.23D-01 0.01903327 0.00823386 0.04057655 0.01637341    0.0755114 ----
    14   0   0   F    T  3.12D+00 0.01548942 0.00666461 0.08769145 0.03424747    0.0749108 ----
    15   0   0   F    F -4.62D-01 0.01548942 0.00666461 0.04054620 0.01583512    0.0746002 ----
    16   0   0   F    T  1.47D+00 0.02201866 0.00666195 0.04139282 0.01841235    0.0738000 ----
    17   0   0   F    F -2.74D-02 0.02201866 0.00666195 0.00113535 0.00050502    0.0728360 ----
    18   0   0   F    T  2.67D+00 0.00982469 0.00427983 0.03752188 0.01790732    0.0728352 ----
    19   0   0   F    F  2.05D-01 0.00982469 0.00427983 0.00771063 0.00367990    0.0719767 ----
    20   0   0   F    T  2.27D+00 0.01088780 0.00477192 0.03659680 0.02158723    0.0719511 ----
    21   0   0   F    F -2.69D-01 0.01088780 0.00477192 0.00983545 0.00580160    0.0714605 ----
    22   0   0   F    T  2.42D+00 0.01113446 0.00363290 0.02974510 0.01578562    0.0713836 ----
    23   0   0   T    F  4.71D-01 0.01113446 0.00363290 0.01400569 0.00743277    0.0714423 ----
    24   0   0   F    T  2.40D+00 0.00447762 0.00212582 0.01658161 0.00743277    0.0711586 ----
    25   0   0   F    T  2.83D+00 0.00603788 0.00171004 0.02105967 0.00743277    0.0709936 ----
    26   0   0   F    F -3.84D-01 0.00603788 0.00171004 0.00809571 0.00285729    0.0709463 ----
    27   0   0   F    T  2.07D+00 0.00404160 0.00136842 0.01423714 0.00457548    0.0709161 ----
    28   0   0   F    F -4.48D-01 0.00404160 0.00136842 0.00638280 0.00205128    0.0709052 ----
    29   0   0   F    T  1.88D+00 0.00181179 0.00091923 0.00650969 0.00252420    0.0708840 ----
    30   0   0   F    F  2.44D+00 0.00181179 0.00091923 0.01589572 0.00616373    0.0708433 ----
    31   0   0   F    T  2.31D+00 0.00400855 0.00147938 0.02234970 0.00868793    0.0708020 ----
    32   0   0   F    F -1.97D-01 0.00400855 0.00147938 0.00439802 0.00170963    0.0707447 ----
    33   0   0   F    T  1.84D+00 0.00456191 0.00143286 0.01604676 0.00697830    0.0707410 ----
    34   0   0   F    F -3.73D-02 0.00456191 0.00143286 0.00059916 0.00026056    0.0706867 ---+
    35   0   0   F    T  1.67D+00 0.00334813 0.00142498 0.01670367 0.00671774    0.0706867 ----
    36   0   0   F    F  5.99D-01 0.00334813 0.00142498 0.00999767 0.00402078    0.0706167 ----
    37   0   0   F    T  2.85D+00 0.00237392 0.00131768 0.02923326 0.01073852    0.0706053 ----
    38   0   0   F    F  4.41D-01 0.00237392 0.00131768 0.01288947 0.00473480    0.0705094 ----
    39   0   0   F    T  1.62D+00 0.00558276 0.00206555 0.04322505 0.01547332    0.0704997 ----
    40   0   0   F    F -1.44D-01 0.00558276 0.00206555 0.00620808 0.00222232    0.0704123 ----
    41   0   0   F    T  2.11D+00 0.00495720 0.00167080 0.03654667 0.01325101    0.0704096 ----
    42   0   0   F    F  7.28D-02 0.00495720 0.00167080 0.00266130 0.00096493    0.0703147 ----
    43   0   0   F    T  3.71D+00 0.00379152 0.00132903 0.03226481 0.01421594    0.0703143 ----
    44   0   0   F    F  1.00D+00 0.00379152 0.00132903 0.03233124 0.01424521    0.0701675 ----
    45   0   0   F    T  2.07D+00 0.00736978 0.00251042 0.05861558 0.02846115    0.0701192 ----
    46   0   0   F    F -2.80D-01 0.00736978 0.00251042 0.01639938 0.00796282    0.0700000 ----
    47   0   0   F    T  2.00D+00 0.00470747 0.00213913 0.05068859 0.02049833    0.0699789 ----
    48   0   0   F    F -3.19D-02 0.00470747 0.00213913 0.00161722 0.00065400    0.0698449 ----
    49   0   0   F    T  1.67D+00 0.00482192 0.00230620 0.04405452 0.01984433    0.0698448 ----
    50   0   0   F    F  1.73D+00 0.00482192 0.00230620 0.07602367 0.03424482    0.0696316 ----
    51   0   0   F    F -4.33D-02 0.00482192 0.00230620 0.00329471 0.00148410    0.0694994 ----
    52   0   0   F    T  3.37D+00 0.00584216 0.00267683 0.11883657 0.05260505    0.0694991 ----
    53   0   0   F    F -3.10D-01 0.00584216 0.00267683 0.03689180 0.01633079    0.0692978 ----
    54   0   0   F    T  2.66D+00 0.00630378 0.00259475 0.07214887 0.03627426    0.0692374 ----
    55   0   0   F    F -2.61D-01 0.00630378 0.00259475 0.01881175 0.00945798    0.0690665 ----
    56   0   0   F    T  1.32D+00 0.01218282 0.00320081 0.05908815 0.02681628    0.0690445 ----
    57   0   0   F    F  3.98D-01 0.01218282 0.00320081 0.02350073 0.01066546    0.0687676 ----
    58   0   0   F    F -1.34D-02 0.01218282 0.00320081 0.00031541 0.00014315    0.0687408 --++
    59   0   0   F    T  3.19D+00 0.00680314 0.00242811 0.09657673 0.03733860    0.0687408 ----
    60   0   0   F    F  6.69D-02 0.00680314 0.00242811 0.00645829 0.00249691    0.0684579 ----
    61   0   0   F    T  2.02D+00 0.00853094 0.00318736 0.11156123 0.03983551    0.0684569 ----
    62   0   0   F    F -1.20D-01 0.00853094 0.00318736 0.01333432 0.00476133    0.0681802 ----
    63   0   0   F    T  1.49D+00 0.01123300 0.00355338 0.10367809 0.03507418    0.0681745 ----
    64   0   0   F    F  9.41D-01 0.01123300 0.00355338 0.09757703 0.03301020    0.0677677 ----
    65   0   0   F    F -1.40D-01 0.01123300 0.00355338 0.01370581 0.00463666    0.0676647 ----
    66   0   0   F    T  2.04D+00 0.00817560 0.00432454 0.19250683 0.06344772    0.0676617 ----
    67   0   0   F    F  2.26D-01 0.00817560 0.00432454 0.04342189 0.01431128    0.0668441 ----
    68   0   0   F    F -5.47D-02 0.00817560 0.00432454 0.00237473 0.00078268    0.0668074 ----
    69   0   0   F    T  2.85D+00 0.01847837 0.00536299 0.23095721 0.07697632    0.0668072 ----
    70   0   0   F    F  1.01D-01 0.01847837 0.00536299 0.02327716 0.00775810    0.0654989 ----
    71   0   0   F    F -1.25D-01 0.01847837 0.00536299 0.00291744 0.00097236    0.0654898 ----
    72   0   0   F    T  3.73D+00 0.01323800 0.00582483 0.25046064 0.08376206    0.0654896 ----
    73   0   0   F    F -2.05D-01 0.01323800 0.00582483 0.05133453 0.01716791    0.0640724 ----
    74   0   0   F    F -2.85D-02 0.01323800 0.00582483 0.00146262 0.00048915    0.0639734 ----
    75   0   0   F    T  1.00D+00 0.03260047 0.01017616 0.20835017 0.06972549    0.0639733 ----
    76   0   0   F    F  3.68D-01 0.03260047 0.01017616 0.07661042 0.02563808    0.0617298 ----
    77   0   0   F    F -5.53D-02 0.03260047 0.01017616 0.00423451 0.00141710    0.0615246 ----
    78   0   0   F    T  5.28D+00 0.02112128 0.00832900 0.29825960 0.09394647    0.0615238 ----
    79   0   0   T    F  3.80D-01 0.02112128 0.00832900 0.11327270 0.03567889    0.0642332 ----
    80   0   0   F    T  1.40D+00 0.03395038 0.00945746 0.11105439 0.03567889    0.0594917 ----
    81   0   0   F    F  1.27D-01 0.03395038 0.00945746 0.01410122 0.00453036    0.0574481 ----
    82   0   0   F    T  1.54D+00 0.01962925 0.00859108 0.10992373 0.04020924    0.0574228 ----
    83   0   0   F    F  3.11D-01 0.01962925 0.00859108 0.03422706 0.01251999    0.0552618 ----
    84   0   0   F    F -9.54D-03 0.01962925 0.00859108 0.00032638 0.00011939    0.0551281 --++
    85   0   0   F    T  3.03D+00 0.01851230 0.00660303 0.14817683 0.05260984    0.0551281 ----
    86   0   0   F    F -4.40D-01 0.01851230 0.00660303 0.06526974 0.02317387    0.0547104 ----
    87   0   0   F    T  1.78D+00 0.01940704 0.00633346 0.08176241 0.02943597    0.0540171 ----
    88   0   0   F    F -3.74D-01 0.01940704 0.00633346 0.03058209 0.01101012    0.0535870 ----
    89   0   0   F    T  1.83D+00 0.01253909 0.00466127 0.04767689 0.01842585    0.0533470 ----
    90   0   0   F    F  4.36D-01 0.01253909 0.00466127 0.02078537 0.00803300    0.0525609 ----
    91   0   0   F    T  3.06D+00 0.00896855 0.00413989 0.07411946 0.02645885    0.0524798 ----
    92   0   0   T    F  4.74D-01 0.00896855 0.00413989 0.03511303 0.01253450    0.0525507 ----
    93   0   0   F    T  1.26D+00 0.01365005 0.00421209 0.03340469 0.01253450    0.0521104 ----
    94   0   0   F    F  3.65D-01 0.01365005 0.00421209 0.01217995 0.00457031    0.0516873 ----
    95   0   0   F    T  2.14D+00 0.00974174 0.00343219 0.04501242 0.01710481    0.0516550 ----
    96   0   0   F    F -1.64D-01 0.00974174 0.00343219 0.00738780 0.00280738    0.0513483 ----
    97   0   0   F    T  2.90D+00 0.00520168 0.00254354 0.03826525 0.01429743    0.0513358 ----
    98   0   0   F    F -4.59D-01 0.00520168 0.00254354 0.01754723 0.00655635    0.0512919 ----
    99   0   0   F    T  1.28D+00 0.00748791 0.00267448 0.02103230 0.00774108    0.0511836 ----
   100   0   0   F    F  3.36D-01 0.00748791 0.00267448 0.00706820 0.00260150    0.0510129 ----
   101   0   0   F    T  1.56D+00 0.00637219 0.00265547 0.02951746 0.01034258    0.0510015 ----
   102   0   0   F    F  1.08D+00 0.00637219 0.00265547 0.03198894 0.01120856    0.0507516 ----
   103   0   0   F    T  2.68D+00 0.00669600 0.00277266 0.05647786 0.02155113    0.0506600 ----
   104   0   0   T    F  4.58D-01 0.00669600 0.00277266 0.02584850 0.00986341    0.0507228 ----
   105   0   0   F    T  2.03D+00 0.00606708 0.00207889 0.02142920 0.00986341    0.0505180 ----
   106   0   0   T    F  4.98D-01 0.00606708 0.00207889 0.01066846 0.00491047    0.0505196 ----
   107   0   0   F    T  2.96D+00 0.00239937 0.00108284 0.01382057 0.00491047    0.0504524 ----
   108   0   0   F    F  4.78D-01 0.00239937 0.00108284 0.00661007 0.00234857    0.0503839 ----
   109   0   0   F    T  1.25D+00 0.00609815 0.00196451 0.01960912 0.00725903    0.0503760 ----
   110   0   0   F    F  3.54D-01 0.00609815 0.00196451 0.00694228 0.00256994    0.0502857 ----
   111   0   0   F    T  1.71D+00 0.00489909 0.00182852 0.02513713 0.00982897    0.0502793 ----
   112   0   0   F    F -2.50D-01 0.00489909 0.00182852 0.00627534 0.00245375    0.0502217 ----
   113   0   0   F    T  3.03D+00 0.00336614 0.00112184 0.01977892 0.00737523    0.0502144 ----
   114   0   0   F    F -2.02D-01 0.00336614 0.00112184 0.00399641 0.00149020    0.0501717 ----
   115   0   0   F    T  1.69D+00 0.00387210 0.00130117 0.01568541 0.00588503    0.0501688 ----
   116   0   0   F    F -1.29D-01 0.00387210 0.00130117 0.00203046 0.00076181    0.0501323 ----
   117   0   0   F    T  1.16D+00 0.00375494 0.00142139 0.01364871 0.00512322    0.0501315 ----
   118   0   0   F    F  1.23D+00 0.00375494 0.00142139 0.01675764 0.00629020    0.0500765 ----
   119   0   0   F    T  3.71D+00 0.00269470 0.00116159 0.03334682 0.01141342    0.0500522 ----
   120   0   0   T    F  4.19D-01 0.00269470 0.00116159 0.01398840 0.00478773    0.0500798 ----
   121   0   0   F    T  1.44D+00 0.00374522 0.00116709 0.01427414 0.00478773    0.0500209 ----
   122   0   0   F    F  2.08D-01 0.00374522 0.00116709 0.00296229 0.00099359    0.0499866 ----
   123   0   0   F    T  1.21D+00 0.00269440 0.00135633 0.01714586 0.00578132    0.0499855 ----
   124   0   0   F    F  1.88D+00 0.00269440 0.00135633 0.03215131 0.01084092    0.0499297 ----
   125   0   0   F    F -1.71D-02 0.00269440 0.00135633 0.00055009 0.00018548    0.0498874 ---+
   126   0   0   F    T  2.26D+00 0.00332116 0.00166828 0.05133801 0.01643675    0.0498874 ----
   127   0   0   F    F -9.00D-03 0.00332116 0.00166828 0.00046200 0.00014792    0.0497946 ---+
   128   0   0   F    T  1.00D+00 0.00906135 0.00252574 0.05178926 0.01637171    0.0497946 ----
   129   0   0   F    F  1.09D+00 0.00906135 0.00252574 0.05642789 0.01783808    0.0496512 ----
   130   0   0   F    F -1.44D-01 0.00906135 0.00252574 0.00814408 0.00257452    0.0496060 ----
   131   0   0   F    T  5.26D+00 0.00323509 0.00152747 0.09530010 0.03163527    0.0496045 ----
   132   0   0   T    F  4.12D-01 0.00323509 0.00152747 0.03925390 0.01303050    0.0497148 ----
   133   0   0   F    T  3.03D+00 0.00303137 0.00140372 0.03314096 0.01303050    0.0495264 ----
   134   0   0   F    F  1.19D-02 0.00303137 0.00140372 0.00039487 0.00015526    0.0494347 --++
   135   0   0   F    T  1.61D+00 0.00586576 0.00196009 0.02967021 0.01318575    0.0494347 ----
   136   0   0   F    F -2.30D-01 0.00586576 0.00196009 0.00683783 0.00303880    0.0493699 ----
   137   0   0   F    T  2.55D+00 0.00296657 0.00133743 0.02097649 0.01014695    0.0493636 ----
   138   0   0   F    F  4.47D-02 0.00296657 0.00133743 0.00093673 0.00045313    0.0492924 ----
   139   0   0   F    T  2.19D+00 0.00276325 0.00143064 0.02220413 0.01060007    0.0492922 ----
   140   0   0   F    F  8.98D-01 0.00276325 0.00143064 0.01994741 0.00952274    0.0491941 ----
   141   0   0   F    T  3.41D+00 0.00385106 0.00151954 0.04113165 0.02012281    0.0491663 ----
   142   0   0   F    F -4.42D-01 0.00385106 0.00151954 0.01816990 0.00888925    0.0491424 ----
   143   0   0   F    T  1.83D+00 0.00456713 0.00153874 0.02290876 0.01123356    0.0491000 ----
   144   0   0   F    F -1.94D-01 0.00456713 0.00153874 0.00443746 0.00217596    0.0490507 ----
   145   0   0   F    T  1.86D+00 0.00315512 0.00135195 0.01716757 0.00905761    0.0490476 ----
   146   0   0   F    F  1.03D+00 0.00315512 0.00135195 0.01766074 0.00931780    0.0489708 ----
   147   0   0   F    T  2.16D+00 0.00540890 0.00176496 0.03865335 0.01837540    0.0489443 ----
   148   0   0   F    F  5.58D-01 0.00540890 0.00176496 0.02155828 0.01024858    0.0488061 ----
   149   0   0   F    T  2.49D+00 0.00378702 0.00207232 0.06434469 0.02862399    0.0487855 ----
   150   0   0   F    F  1.51D-01 0.00378702 0.00207232 0.00968951 0.00431042    0.0486014 ----
   151   0   0   F    T  1.58D+00 0.00878758 0.00283133 0.07562128 0.03293440    0.0485981 ----
   152   0   0   F    F -9.44D-02 0.00878758 0.00283133 0.00714105 0.00311005    0.0484317 ----
   153   0   0   F    T  3.14D+00 0.00366343 0.00188671 0.06885803 0.02982435    0.0484300 ----
   154   0   0   F    F -1.87D-01 0.00366343 0.00188671 0.01286902 0.00557394    0.0483014 ----
   155   0   0   F    T  2.19D+00 0.00481234 0.00194683 0.05447688 0.02425042    0.0482943 ----
   156   0   0   F    F  4.54D-01 0.00481234 0.00194683 0.02474983 0.01101740    0.0481338 ----
   157   0   0   F    T  1.73D+00 0.00651797 0.00256157 0.08218539 0.03526781    0.0481172 ----
   158   0   0   F    F -2.31D-01 0.00651797 0.00256157 0.01897215 0.00814143    0.0479946 ----
   159   0   0   F    T  3.05D+00 0.00409595 0.00187243 0.05788586 0.02712639    0.0479810 ----
   160   0   0   F    F -4.49D-01 0.00409595 0.00187243 0.02600805 0.01218785    0.0479518 ----
   161   0   0   F    T  2.87D+00 0.00347388 0.00145437 0.03132264 0.01493853    0.0478927 ----
   162   0   0   F    F  4.33D-01 0.00347388 0.00145437 0.01356735 0.00647060    0.0477733 ----
   163   0   0   F    T  2.26D+00 0.00434262 0.00196046 0.04577170 0.02140914    0.0477612 ----
   164   0   0   F    F -2.21D-01 0.00434262 0.00196046 0.01011776 0.00473245    0.0476687 ----
   165   0   0   F    T  2.29D+00 0.00467139 0.00168305 0.03429509 0.01667668    0.0476608 ----
   166   0   0   F    F -3.82D-01 0.00467139 0.00168305 0.01309601 0.00636820    0.0476237 ----
   167   0   0   F    T  1.72D+00 0.00329894 0.00148795 0.02230633 0.01030848    0.0476003 ----
   168   0   0   F    F  2.09D+00 0.00329894 0.00148795 0.04662102 0.02154509    0.0475067 ----
   169   0   0   F    F -3.34D-02 0.00329894 0.00148795 0.00155850 0.00072023    0.0474340 ----
   170   0   0   F    T  4.30D+00 0.00398369 0.00163313 0.07093992 0.03113334    0.0474339 ----
   171   0   0   F    F -4.86D-01 0.00398369 0.00163313 0.03444932 0.01511874    0.0474269 ----
   172   0   0   F    T  2.24D+00 0.00334514 0.00157491 0.03818016 0.01601459    0.0473448 ----
   173   0   0   F    F  2.16D-01 0.00334514 0.00157491 0.00823622 0.00345467    0.0472481 ----
   174   0   0   F    T  1.82D+00 0.00559655 0.00189579 0.04762080 0.01946926    0.0472450 ----
   175   0   0   F    F -4.33D-01 0.00559655 0.00189579 0.02062338 0.00843165    0.0472234 ----
   176   0   0   F    T  3.54D+00 0.00202414 0.00107050 0.02843744 0.01103761    0.0471884 ----
   177   0   0   F    F  8.13D-01 0.00202414 0.00107050 0.02312624 0.00897614    0.0471018 ----
   178   0   0   F    T  3.14D+00 0.00331864 0.00151380 0.05225646 0.02001375    0.0470808 ----
   179   0   0   F    F -2.29D-01 0.00331864 0.00151380 0.01198689 0.00459087    0.0470045 ----
   180   0   0   F    T  6.78D+00 0.00257346 0.00085956 0.03913447 0.01542288    0.0469969 ----
   181   0   0   T    F  2.46D-01 0.00257346 0.00085956 0.00962864 0.00379464    0.0471484 ----
   182   0   0   F    T  2.08D+00 0.00143957 0.00073154 0.00972499 0.00379464    0.0469785 ----
   183   0   0   F    F -5.65D-02 0.00143957 0.00073154 0.00054952 0.00021442    0.0469628 ---+
   184   0   0   F    T  1.46D+00 0.00180083 0.00082037 0.00911703 0.00358022    0.0469627 ----
   185   0   0   F    F  1.07D-01 0.00180083 0.00082037 0.00097205 0.00038172    0.0469465 ----
   186   0   0   F    T  3.40D+00 0.00129771 0.00053877 0.00934823 0.00396194    0.0469463 ----
   187   0   0   F    F -4.14D-01 0.00129771 0.00053877 0.00387083 0.00164052    0.0469420 ----
   188   0   0   F    T  4.42D+00 0.00097452 0.00032196 0.00585686 0.00232142    0.0469377 ----
   189   0   0   F    F -1.52D-01 0.00097452 0.00032196 0.00089306 0.00035397    0.0469320 ----
   190   0   0   F    T  2.09D+00 0.00122731 0.00040860 0.00477531 0.00196745    0.0469319 ----
   191   0   0   F    T  3.84D+00 0.00082690 0.00028386 0.00365142 0.00196745    0.0469264 ----
   192   0   0   F    F -4.38D-01 0.00082690 0.00028386 0.00160046 0.00086235    0.0469254 ----
   193   0   0   F    T  1.00D+00 0.00119836 0.00039969 0.00219558 0.00111496    0.0469237 ----
   194   0   0   F    F  1.48D+00 0.00119836 0.00039969 0.00325586 0.00165340    0.0469199 ----
   195   0   0   F    T  2.30D+00 0.00114955 0.00041481 0.00583999 0.00276836    0.0469178 ----
   196   0   0   F    F -7.57D-02 0.00114955 0.00041481 0.00044203 0.00020954    0.0469123 --++
   197   0   0   F    T  3.79D+00 0.00073087 0.00029506 0.00516716 0.00255882    0.0469123 ----
   198   0   0   F    F -4.20D-01 0.00073087 0.00029506 0.00217187 0.00107553    0.0469109 ----
   199   0   0   F    T  2.05D+00 0.00073880 0.00029293 0.00327738 0.00148329    0.0469094 ----
   200   0   0   F    F  4.07D-01 0.00073880 0.00029293 0.00133472 0.00060407    0.0469060 ----
   201   0   0   F    T  1.25D+00 0.00134671 0.00043616 0.00460160 0.00208737    0.0469057 ----
   202   0   0   F    F  8.60D-02 0.00134671 0.00043616 0.00039588 0.00017958    0.0469019 --++
   203   0   0   F    T  3.83D+00 0.00054832 0.00024633 0.00462078 0.00226694    0.0469018 ----
   204   0   0   F    F -1.45D-01 0.00054832 0.00024633 0.00066795 0.00032770    0.0468990 ----
   205   0   0   F    T  2.52D+00 0.00058294 0.00027116 0.00425887 0.00193925    0.0468989 ----
   206   0   0   F    F  3.04D-01 0.00058294 0.00027116 0.00129612 0.00059018    0.0468954 ----
   207   0   0   F    T  2.53D+00 0.00071630 0.00030293 0.00565543 0.00252943    0.0468952 ----
   208   0   0   T    F  4.65D-01 0.00071630 0.00030293 0.00263019 0.00117637    0.0468957 ----
   209   0   0   F    T  1.40D+00 0.00053494 0.00027088 0.00264907 0.00117637    0.0468936 ----
   210   0   0   F    F  2.03D+00 0.00053494 0.00027088 0.00538420 0.00239095    0.0468910 ----
   211   0   0   F    T  4.19D+00 0.00051057 0.00026421 0.00759654 0.00356732    0.0468890 ----
   212   0   0   F    F -4.34D-01 0.00051057 0.00026421 0.00329929 0.00154934    0.0468879 ----
   213   0   0   F    T  3.29D+00 0.00042843 0.00021648 0.00443457 0.00201798    0.0468865 ----
   214   0   0   F    F -4.70D-01 0.00042843 0.00021648 0.00208608 0.00094928    0.0468862 ----
   215   0   0   F    T  1.45D+00 0.00057071 0.00023130 0.00232853 0.00106870    0.0468853 ----
   216   0   0   F    F  6.21D-01 0.00057071 0.00023130 0.00144656 0.00066391    0.0468837 ----
   217   0   0   F    T  1.26D+00 0.00076772 0.00031187 0.00399481 0.00173260    0.0468834 ----
   218   0   0   F    F  1.22D+00 0.00076772 0.00031187 0.00485855 0.00210722    0.0468805 ----
   219   0   0   F    T  4.88D+00 0.00043459 0.00022926 0.00973576 0.00383982    0.0468793 ----
   220   0   0   T    F  4.79D-01 0.00043459 0.00022926 0.00466382 0.00183943    0.0468796 ----
   221   0   0   F    T  3.04D+00 0.00048445 0.00019679 0.00432922 0.00183943    0.0468775 ----
   222   0   0   F    F  2.61D-01 0.00048445 0.00019679 0.00112885 0.00047963    0.0468753 ----
   223   0   0   F    T  1.00D+00 0.00138527 0.00038272 0.00632608 0.00232181    0.0468752 ----
   224   0   0   F    F  5.28D-01 0.00138527 0.00038272 0.00334084 0.00122616    0.0468723 ----
   225   0   0   F    T  6.58D+00 0.00033802 0.00017740 0.00960879 0.00354797    0.0468719 ----
   226   0   0   F    F -4.98D-01 0.00033802 0.00017740 0.00478440 0.00176660    0.0468718 ----
   227   0   0   F    T  1.87D+00 0.00069006 0.00023218 0.00478882 0.00178137    0.0468703 ----
   228   0   0   F    F  5.09D-01 0.00069006 0.00023218 0.00243792 0.00090687    0.0468683 ----
   229   0   0   F    T  4.24D+00 0.00056332 0.00018571 0.00747996 0.00268824    0.0468680 ----
   230   0   0   T    F  3.39D-01 0.00056332 0.00018571 0.00253649 0.00091160    0.0468701 ----
   231   0   0   F    T  1.31D+00 0.00050058 0.00019116 0.00218040 0.00091160    0.0468673 ----
   232   0   0   F    F  5.97D-01 0.00050058 0.00019116 0.00130209 0.00054439    0.0468663 ----
   233   0   0   F    T  2.93D+00 0.00042309 0.00015712 0.00387657 0.00145598    0.0468661 ----
   234   0   0   F    T  2.94D+00 0.00039330 0.00014802 0.00383049 0.00145598    0.0468651 ----
   235   0   0   T    F  4.94D-01 0.00039330 0.00014802 0.00189090 0.00071874    0.0468651 ----
   236   0   0   F    T  5.95D+00 0.00017413 0.00007984 0.00158747 0.00071874    0.0468647 ----
   237   0   0   T    F  4.10D-01 0.00017413 0.00007984 0.00065136 0.00029491    0.0468649 ---+
   238   0   0   F    T  1.45D+00 0.00027941 0.00009667 0.00064963 0.00029491    0.0468644 ---+
   239   0   0   F    T  1.65D+00 0.00018636 0.00008022 0.00066386 0.00029491    0.0468643 ---+
   240   0   0   F    T  4.71D+00 0.00011569 0.00005950 0.00060632 0.00029491    0.0468641 -+-+
   241   0   0   T    T  1.00D+00 0.00055193 0.00018416 0.00055193 0.00018416    0.0468642 ---+
   242   0   0   T    F  5.00D-01 0.00055193 0.00018416 0.00027596 0.00009208    0.0468651 --++
   243   0   0   T    F  5.00D-01 0.00055193 0.00018416 0.00013798 0.00004604    0.0468644 --++
   244   0   0   T    F  5.00D-01 0.00055193 0.00018416 0.00006899 0.00002302    0.0468642 --++
   245   0   0   T    F  5.00D-01 0.00055193 0.00018416 0.00003450 0.00001151    0.0468641 --++
   246   0   0   T    F  5.00D-01 0.00055193 0.00018416 0.00001725 0.00000575    0.0468641 --++
   247   0   0   T    F  5.00D-01 0.00055193 0.00018416 0.00000862 0.00000288    0.0468641 --++
   248   0   0   T    F  5.00D-01 0.00055193 0.00018416 0.00000431 0.00000144    0.0468641 --++
   249   0   0   T    F  5.00D-01 0.00055193 0.00018416 0.00000216 0.00000072    0.0468641 --++
   250   0   0   T    F  5.00D-01 0.00055193 0.00018416 0.00000108 0.00000036    0.0468641 --++
   251   0   0   T    F  5.00D-01 0.00055193 0.00018416 0.00000054 0.00000018    0.0468641 --++
   252   0   0   T    T  1.00D+00 0.00011575 0.00005964 0.00012074 0.00005246    0.0468641 -+++
   253   0   0   F    F  3.37D+00 0.00011575 0.00005964 0.00040637 0.00017657    0.0468640 -+++
   254   0   0   F    T  2.84D+00 0.00016069 0.00006652 0.00056447 0.00022903    0.0468639 -+-+
   255   0   0   T    T  1.00D+00 0.00044501 0.00014568 0.00044501 0.00014568    0.0468639 --++
   256   0   0   T    F  5.00D-01 0.00044501 0.00014568 0.00022251 0.00007284    0.0468647 --++
   257   0   0   T    F  5.00D-01 0.00044501 0.00014568 0.00011125 0.00003642    0.0468642 --++
   258   0   0   T    F  5.00D-01 0.00044501 0.00014568 0.00005563 0.00001821    0.0468640 --++
   259   0   0   T    F  5.00D-01 0.00044501 0.00014568 0.00002781 0.00000911    0.0468640 --++
   260   0   0   T    F  5.00D-01 0.00044501 0.00014568 0.00001391 0.00000455    0.0468639 --++
   261   0   0   T    F  5.00D-01 0.00044501 0.00014568 0.00000695 0.00000228    0.0468639 --++
   262   0   0   T    F  5.00D-01 0.00044501 0.00014568 0.00000348 0.00000114    0.0468639 --++
   263   0   0   T    F  5.00D-01 0.00044501 0.00014568 0.00000174 0.00000057    0.0468639 --++
   264   0   0   T    F  5.00D-01 0.00044501 0.00014568 0.00000087 0.00000028    0.0468639 --++
   265   0   0   T    T  1.00D+00 0.00016226 0.00006694 0.00011663 0.00004914    0.0468639 -+++
   266   0   0   F    T  1.22D+00 0.00008500 0.00004316 0.00010198 0.00004914    0.0468639 ====
 ****************************
 MOLECULAR MECHANICS FUNCTION
 ****************************
 Atomic parameters:
 Center  VDW
      1 1.9080 0.0860000
      2 1.7210 0.2104000
      3 1.9080 0.1094000
      4 1.4870 0.0157000
      5 1.4870 0.0157000
      6 1.8750 0.1700000
      7 0.6000 0.0157000
      8 0.6000 0.0157000
      9 1.6612 0.2100000
     10 0.0000 0.0000000
 Molecular mechanics terms:
 NBDir 3 1      0      0
 HrmStr1  1- 2  431.53 1.3510
 HrmStr1  1- 3  294.15 1.5090
 HrmStr1  1- 9  946.08 1.2030
 HrmStr1  2-10  566.76 0.9680
 HrmStr1  3- 4  358.05 1.0960
 HrmStr1  3- 5  358.05 1.0960
 HrmStr1  3- 6  380.82 1.4520
 HrmStr1  6- 7  506.01 1.0110
 HrmStr1  6- 8  506.01 1.0110
 HrmBnd1  1- 2-10  56.55 107.23
 HrmBnd1  1- 3- 4  46.41 106.89
 HrmBnd1  1- 3- 5  46.41 106.89
 HrmBnd1  1- 3- 6  59.93 110.61
 HrmBnd1  2- 1- 3  67.92 111.72
 HrmBnd1  2- 1- 9  91.40 123.02
 HrmBnd1  3- 1- 9  62.83 125.24
 HrmBnd1  3- 6- 7  52.60 110.71
 HrmBnd1  3- 6- 8  52.60 110.71
 HrmBnd1  4- 3- 5  44.68 106.22
 HrmBnd1  4- 3- 6  52.45 112.94
 HrmBnd1  5- 3- 6  52.45 112.94
 HrmBnd1  7- 6- 8  47.09 108.63
 AmbTrs  3- 1- 2-10   0 180   0   0  0.0000 14.5000  0.0000  0.0000  2.0
 AmbTrs  9- 1- 2-10   0   0   0   0  0.0000 14.5000  0.0000  0.0000  2.0
 AmbTrs  2- 1- 3- 4   0   0   0   0  0.0000 14.5000  0.0000  0.0000  6.0
 AmbTrs  2- 1- 3- 5   0   0   0   0  0.0000 14.5000  0.0000  0.0000  6.0
 AmbTrs  2- 1- 3- 6   0   0   0   0  0.0000 14.5000  0.0000  0.0000  6.0
 AmbTrs  9- 1- 3- 4   0   0   0   0  0.0000 14.5000  0.0000  0.0000  6.0
 AmbTrs  9- 1- 3- 5   0   0   0   0  0.0000 14.5000  0.0000  0.0000  6.0
 AmbTrs  9- 1- 3- 6   0   0   0   0  0.0000 14.5000  0.0000  0.0000  6.0
 AmbTrs  1- 3- 6- 7   0 180   0   0  0.0000 25.6300  0.0000  0.0000  6.0
 AmbTrs  1- 3- 6- 8   0 180   0   0  0.0000 25.6300  0.0000  0.0000  6.0
 AmbTrs  4- 3- 6- 7   0   0   0   0  0.0000 16.9300  0.0000  0.0000  6.0
 AmbTrs  4- 3- 6- 8   0   0   0   0  0.0000 16.9300  0.0000  0.0000  6.0
 AmbTrs  5- 3- 6- 7   0   0   0   0  0.0000 16.9300  0.0000  0.0000  6.0
 AmbTrs  5- 3- 6- 8   0   0   0   0  0.0000 16.9300  0.0000  0.0000  6.0
 NBPair  2- 1 3 1      0      0 -1.000 -1.000
 NBPair  3- 2 3 1      0      0 -1.000 -1.000
 NBPair 10- 3 3 1      0      0 -0.500 -0.167
 NBPair  9- 2 3 1      0      0 -1.000 -1.000
 NBPair 10- 9 3 1      0      0 -0.500 -0.167
 NBPair  3- 1 3 1      0      0 -1.000 -1.000
 NBPair  4- 2 3 1      0      0 -0.500 -0.167
 NBPair  5- 2 3 1      0      0 -0.500 -0.167
 NBPair  6- 2 3 1      0      0 -0.500 -0.167
 NBPair  9- 3 3 1      0      0 -1.000 -1.000
 NBPair  9- 4 3 1      0      0 -0.500 -0.167
 NBPair  9- 5 3 1      0      0 -0.500 -0.167
 NBPair  9- 6 3 1      0      0 -0.500 -0.167
 NBPair  9- 1 3 1      0      0 -1.000 -1.000
 NBPair 10- 1 3 1      0      0 -1.000 -1.000
 NBPair 10- 2 3 1      0      0 -1.000 -1.000
 NBPair  4- 1 3 1      0      0 -1.000 -1.000
 NBPair  5- 1 3 1      0      0 -1.000 -1.000
 NBPair  6- 1 3 1      0      0 -1.000 -1.000
 NBPair  4- 3 3 1      0      0 -1.000 -1.000
 NBPair  5- 4 3 1      0      0 -1.000 -1.000
 NBPair  6- 4 3 1      0      0 -1.000 -1.000
 NBPair  5- 3 3 1      0      0 -1.000 -1.000
 NBPair  6- 5 3 1      0      0 -1.000 -1.000
 NBPair  6- 3 3 1      0      0 -1.000 -1.000
 NBPair  7- 1 3 1      0      0 -0.500 -0.167
 NBPair  8- 1 3 1      0      0 -0.500 -0.167
 NBPair  7- 4 3 1      0      0 -0.500 -0.167
 NBPair  8- 4 3 1      0      0 -0.500 -0.167
 NBPair  7- 5 3 1      0      0 -0.500 -0.167
 NBPair  8- 5 3 1      0      0 -0.500 -0.167
 NBPair  7- 3 3 1      0      0 -1.000 -1.000
 NBPair  8- 3 3 1      0      0 -1.000 -1.000
 NBPair  7- 6 3 1      0      0 -1.000 -1.000
 NBPair  8- 7 3 1      0      0 -1.000 -1.000
 NBPair  8- 6 3 1      0      0 -1.000 -1.000
 Energy per function type:
 Direct Coulomb + vdW (small)                           0.003600080
 Direct Coulomb (large)                                -0.130156130
 Direct vdW (large)                                   268.835160806
 Non-direct Coulomb + vdW (small)                      -0.012847879
 Non-direct Coulomb (large)                             0.138033277
 Non-direct vdW (large)                              -268.835160806
 Harmonic stretch I                                     0.000138083
 Harmonic bend I                                        0.010518591
 Amber torsion                                          0.037577838
 Energy per function class:
        Coulomb              -0.003044626
    Vanderwaals               0.001673974
     Stretching               0.000138083
        Bending               0.010518591
        Torsion               0.037577838
 Energy=    4.686386037E-02 NIter=   0.
 Dipole moment=       0.000907      -0.742603       0.243776
 Leave Link  402 at Sun Nov 26 11:20:22 2023, MaxMem=   134217728 cpu:               0.4 elap:               0.4
 (Enter /home/emanuele/chem_software/gaussian//gdv/l716.exe)
 Dipole        = 9.07026561D-04-7.42603196D-01 2.43775530D-01
 -------------------------------------------------------------------
 Center     Atomic                   Forces (Hartrees/Bohr)
 Number     Number              X              Y              Z
 -------------------------------------------------------------------
      1        6          -0.000018723    0.000074049   -0.000071188
      2        8          -0.000023583   -0.000007658    0.000027015
      3        6          -0.000011328   -0.000015347    0.000035416
      4        1          -0.000014868   -0.000026662   -0.000013117
      5        1           0.000016171    0.000035523    0.000024381
      6        7          -0.000058204    0.000019655    0.000061187
      7        1           0.000035320    0.000002344   -0.000021286
      8        1           0.000085000   -0.000006691   -0.000079226
      9        8           0.000030566   -0.000079751    0.000075010
     10        1          -0.000040353    0.000004538   -0.000038193
 -------------------------------------------------------------------
 Cartesian Forces:  Max     0.000085000 RMS     0.000043161
 Z-matrix is all fixed cartesians, so copy forces.
 Leave Link  716 at Sun Nov 26 11:20:22 2023, MaxMem=   134217728 cpu:               0.0 elap:               0.0
 (Enter /home/emanuele/chem_software/gaussian//gdv/l103.exe)

 GradGradGradGradGradGradGradGradGradGradGradGradGradGradGradGradGradGrad
 Berny optimization.
 Search for a local minimum.
 Step number   1 out of a maximum of    2
 All quantities printed in internal units (Hartrees-Bohrs-Radians)
 RMS Force = .43161D-04 SwitMx=.10000D-02 MixMth= 2
 Mixed Optimization -- En-DIIS/RFO-DIIS
 Second derivative matrix not updated -- unit matrix used.
 ITU=  0
 RFO step:  Lambda=-5.58852263D-08 EMin= 1.00000000D+00
 Linear search not attempted -- first point.
 Variable       Old X    -DE/DX   Delta X   Delta X   Delta X     New X
                                 (Linear)    (Quad)   (Total)
    X1       -1.17657  -0.00002   0.00000  -0.00002  -0.00002  -1.17659
    Y1       -0.23286   0.00007   0.00000   0.00007   0.00007  -0.23278
    Z1       -0.69695  -0.00007   0.00000  -0.00007  -0.00007  -0.69702
    X2       -2.25379  -0.00002   0.00000  -0.00002  -0.00002  -2.25381
    Y2        0.23111  -0.00001   0.00000  -0.00001  -0.00001   0.23110
    Z2        1.57023   0.00003   0.00000   0.00003   0.00003   1.57026
    X3        1.34330  -0.00001   0.00000  -0.00001  -0.00001   1.34329
    Y3       -1.55585  -0.00002   0.00000  -0.00002  -0.00002  -1.55586
    Z3       -0.27413   0.00004   0.00000   0.00004   0.00004  -0.27409
    X4        0.84994  -0.00001   0.00000  -0.00001  -0.00001   0.84993
    Y4       -3.19722  -0.00003   0.00000  -0.00003  -0.00003  -3.19724
    Z4        0.89126  -0.00001   0.00000  -0.00001  -0.00001   0.89124
    X5        1.80359   0.00002   0.00000   0.00002   0.00002   1.80360
    Y5       -2.27870   0.00004   0.00000   0.00004   0.00004  -2.27866
    Z5       -2.16082   0.00002   0.00000   0.00002   0.00002  -2.16079
    X6        3.22460  -0.00006   0.00000  -0.00006  -0.00006   3.22454
    Y6        0.14586   0.00002   0.00000   0.00002   0.00002   0.14588
    Z6        0.81536   0.00006   0.00000   0.00006   0.00006   0.81542
    X7        2.77662   0.00004   0.00000   0.00004   0.00004   2.77665
    Y7        1.97443   0.00000   0.00000   0.00000   0.00000   1.97444
    Z7        1.15144  -0.00002   0.00000  -0.00002  -0.00002   1.15141
    X8        5.00722   0.00009   0.00000   0.00009   0.00009   5.00730
    Y8       -0.45634  -0.00001   0.00000  -0.00001  -0.00001  -0.45635
    Z8        1.14794  -0.00008   0.00000  -0.00008  -0.00008   1.14786
    X9       -1.32640   0.00003   0.00000   0.00003   0.00003  -1.32637
    Y9        1.34019  -0.00008   0.00000  -0.00008  -0.00008   1.34011
    Z9       -2.33009   0.00008   0.00000   0.00008   0.00008  -2.33001
   X10       -4.04638  -0.00004   0.00000  -0.00004  -0.00004  -4.04642
   Y10        0.39431   0.00000   0.00000   0.00000   0.00000   0.39432
   Z10        1.25573  -0.00004   0.00000  -0.00004  -0.00004   1.25569
         Item               Value     Threshold  Converged?
 Maximum Force            0.000085     0.000450     YES
 RMS     Force            0.000043     0.000300     YES
 Maximum Displacement     0.000085     0.001800     YES
 RMS     Displacement     0.000043     0.001200     YES
 Predicted change in Energy=-2.794261D-08
 Optimization completed.
    -- Stationary point found.
 Largest change from initial coordinates is atom    8       0.615 Angstoms.
 GradGradGradGradGradGradGradGradGradGradGradGradGradGradGradGradGradGrad

 Leave Link  103 at Sun Nov 26 11:20:22 2023, MaxMem=   134217728 cpu:               0.0 elap:               0.0
 (Enter /home/emanuele/chem_software/gaussian//gdv/l202.exe)
                          Input orientation:                          
 ---------------------------------------------------------------------
 Center     Atomic      Atomic             Coordinates (Angstroms)
 Number     Number       Type             X           Y           Z
 ---------------------------------------------------------------------
      1          6    20001002       -0.622615   -0.123223   -0.368810
      2          8    20001022       -1.192652    0.122299    0.830929
      3          6    20001001        0.710844   -0.823318   -0.145061
      4          1    20001034        0.449771   -1.691894    0.471633
      5          1    20001034        0.954416   -1.205835   -1.143455
      6          7    20001020        1.706386    0.077187    0.431468
      7          1    20001029        1.469324    1.044825    0.609313
      8          1    20001029        2.649706   -0.241485    0.607462
      9          8    20001025       -0.701903    0.709198   -1.233028
     10          1    20001031       -2.141251    0.208661    0.664502
 ---------------------------------------------------------------------
                    Distance matrix (angstroms):
                    1          2          3          4          5
     1  C    0.000000
     2  O    1.350777   0.000000
     3  C    1.522599   2.338813   0.000000
     4  H    2.077759   2.473448   1.096766   0.000000
     5  H    2.063771   3.205002   1.096557   1.760520   0.000000
     6  N    2.470800   2.926777   1.460958   2.170332   2.166100
     7  H    2.587908   2.826001   2.152749   2.923709   2.898758
     8  H    3.416895   3.866005   2.159631   2.638532   2.621009
     9  O    1.202532   2.201183   2.351198   3.161876   2.533529
    10  H    1.866584   0.966952   3.139239   3.219115   3.853916
                    6          7          8          9         10
     6  N    0.000000
     7  H    1.012004   0.000000
     8  H    1.011127   1.745823   0.000000
     9  O    2.994969   2.867245   3.940112   0.000000
    10  H    3.856929   3.706544   4.812396   2.433697   0.000000
 Symmetry turned off by external request.
 Stoichiometry    C2H5NO2
 Framework group  C1[X(C2H5NO2)]
 Deg. of freedom    24
 Full point group                 C1      NOp   1
 Rotational constants (GHZ):           8.5697771           4.2225469           3.5016700
 Leave Link  202 at Sun Nov 26 11:20:22 2023, MaxMem=   134217728 cpu:               0.0 elap:               0.0
 (Enter /home/emanuele/chem_software/gaussian//gdv/l9999.exe)
 Unable to Open any file for archive entry.
 1\1\GINC-EMANUELE-XPS-13-9343\FOpt\AMBER\ZDO\C2H5N1O2\EMANUELE\26-Nov-
 2023\0\\#p Amber=(SoftFirst,Print) geom=nocrowd nosymm opt=(maxcycle=3
 00)\\Title\\0,1\C,-0.6226148411,-0.1232233348,-0.3688103172\O,-1.19265
 2233,0.122298822,0.8309291287\C,0.7108441379,-0.8233177485,-0.14506104
 28\H,0.4497706846,-1.6918940364,0.4716328865\H,0.9544164864,-1.2058352
 13,-1.143455306\N,1.7063855332,0.0771867876,0.4314683286\H,1.469323644
 7,1.0448251586,0.6093131668\H,2.6497057278,-0.2414848777,0.607461666\O
 ,-0.7019029317,0.7091976115,-1.2330281733\H,-2.1412512087,0.2086608307
 ,0.6645016626\\Version=ES64L-GDVRevJ.14\HF=0.0468639\RMSD=0.000e+00\RM
 SF=4.316e-05\Dipole=0.000907,-0.7426032,0.2437755\PG=C01 [X(C2H5N1O2)]
 \\@
 The archive entry for this job was punched.


 MUD THROWN IS GROUND LOST -- FROM A TEA BAG
 Job cpu time:       0 days  0 hours  0 minutes  0.9 seconds.
 Elapsed time:       0 days  0 hours  0 minutes  0.9 seconds.
 File lengths (MBytes):  RWF=      6 Int=      0 D2E=      0 Chk=      1 Scr=      1
 Normal termination of Gaussian DV at Sun Nov 26 11:20:22 2023.
