 Entering Gaussian System, Link 0=/home/emanuele/chem_software/gaussian//g09/g09
 Input=2_zmat_mm_50.gjf
 Output=2_zmat_mm_50.log
 Initial command:
 /home/emanuele/chem_software/gaussian//gdv/l1.exe "/home/emanuele/chem_software/gaussian/scratch/Gau-6295.inp" -scrdir="/home/emanuele/chem_software/gaussian/scratch/"
 Entering Link 1 = /home/emanuele/chem_software/gaussian//gdv/l1.exe PID=      6297.
  
 Copyright (c) 1988-2020, Gaussian, Inc.  All Rights Reserved.
  
 This is the private, development version of
 the Gaussian(R) DV system of programs. It is based on
 the Gaussian(R) 16 system (copyright 2016, Gaussian, Inc.),
 the Gaussian(R) 09 system (copyright 2009, Gaussian, Inc.),
 the Gaussian(R) 03 system (copyright 2003, Gaussian, Inc.),
 the Gaussian(R) 98 system (copyright 1998, Gaussian, Inc.),
 the Gaussian(R) 94 system (copyright 1995, Gaussian, Inc.),
 the Gaussian 92(TM) system (copyright 1992, Gaussian, Inc.),
 the Gaussian 90(TM) system (copyright 1990, Gaussian, Inc.),
 the Gaussian 88(TM) system (copyright 1988, Gaussian, Inc.),
 the Gaussian 86(TM) system (copyright 1986, Carnegie Mellon
 University), and the Gaussian 82(TM) system (copyright 1983,
 Carnegie Mellon University). Gaussian is a federally registered
 trademark of Gaussian, Inc.
  
 This software contains proprietary and confidential information,
 including trade secrets, belonging to Gaussian, Inc.
  
 This software is provided under written license and may be
 used, copied, transmitted, or stored only in accord with that
 written license.
  
 The following legend is applicable only to US Government
 contracts under FAR:
  
                    RESTRICTED RIGHTS LEGEND
  
 Use, reproduction and disclosure by the US Government is
 subject to restrictions as set forth in subparagraphs (a)
 and (c) of the Commercial Computer Software - Restricted
 Rights clause in FAR 52.227-19.
  
 Gaussian, Inc.
 340 Quinnipiac St., Bldg. 40, Wallingford CT 06492
  
  
 ---------------------------------------------------------------
 Warning -- This program may not be used in any manner that
 competes with the business of Gaussian, Inc. or will provide
 assistance to any competitor of Gaussian, Inc.  The licensee
 of this program is prohibited from giving any competitor of
 Gaussian, Inc. access to this program.  By using this program,
 the user acknowledges that Gaussian, Inc. is engaged in the
 business of creating and licensing software in the field of
 computational chemistry and represents and warrants to the
 licensee that it is not a competitor of Gaussian, Inc. and that
 it will not use this program in any manner prohibited above.
 ---------------------------------------------------------------
  

 Cite this work as:
 Gaussian Development Version, Revision J.14,
 M. J. Frisch, G. W. Trucks, H. B. Schlegel, G. E. Scuseria, 
 M. A. Robb, J. R. Cheeseman, G. Scalmani, V. Barone, 
 G. A. Petersson, H. Nakatsuji, X. Li, A. V. Marenich, M. Caricato, 
 J. Bloino, B. G. Janesko, J. Zheng, R. Gomperts, B. Mennucci, 
 H. P. Hratchian, J. V. Ortiz, A. F. Izmaylov, J. L. Sonnenberg, 
 D. Williams-Young, F. Ding, F. Lipparini, F. Egidi, J. Goings, 
 B. Peng, A. Petrone, T. Henderson, D. Ranasinghe, V. G. Zakrzewski, 
 J. Gao, N. Rega, G. Zheng, W. Liang, M. Hada, M. Ehara, K. Toyota, 
 R. Fukuda, J. Hasegawa, M. Ishida, T. Nakajima, Y. Honda, O. Kitao, 
 H. Nakai, T. Vreven, K. Throssell, J. A. Montgomery, Jr., 
 J. E. Peralta, F. Ogliaro, M. J. Bearpark, J. J. Heyd, 
 E. N. Brothers, K. N. Kudin, V. N. Staroverov, T. A. Keith, 
 R. Kobayashi, J. Normand, K. Raghavachari, A. P. Rendell, 
 J. C. Burant, S. S. Iyengar, J. Tomasi, M. Cossi, J. M. Millam, 
 M. Klene, C. Adamo, R. Cammi, J. W. Ochterski, R. L. Martin, 
 K. Morokuma, O. Farkas, J. B. Foresman, and D. J. Fox, 
 Gaussian, Inc., Wallingford CT, 2020.
 
 ******************************************
 Gaussian DV:  ES64L-GDVRevJ.14 29-Dec-2020
                26-Nov-2023 
 ******************************************
 %mem=1GB
 %nprocshared=1
 Will use up to    1 processors via shared memory.
 %chk=2_zmat_mm_50.chk
 -----------------------------------------------------------------
 #p Amber=(SoftFirst,Print) geom=nocrowd nosymm opt=(maxcycle=300)
 -----------------------------------------------------------------
 1/6=300,10=10,18=4000020,19=15,37=210000000,38=1,56=2,64=203/1,3;
 2/9=110,12=1,15=1,40=1/2;
 3/5=30,11=9,25=1,30=1,41=10030000,43=2,71=1/1;
 4/20=11,22=1001,24=3,119=11/2;
 7/30=1,44=-1/16;
 1/6=300,10=10,18=4000020,19=15,64=203/3(2);
 2/9=110,12=1,15=1/2;
 99//99;
 2/9=110,12=1,15=1/2;
 3/5=30,11=9,25=1,30=1,41=10030000,43=2,71=1/1;
 4/16=2,20=11,22=1001,24=3,119=11/2;
 7/30=1,44=-1/16;
 1/6=300,10=10,18=4000020,19=15,64=203/3(-4);
 2/9=110,12=1,15=1/2;
 99/9=10/99;
 Leave Link    1 at Sun Nov 26 11:20:23 2023, MaxMem=   134217728 cpu:               0.0 elap:               0.0
 (Enter /home/emanuele/chem_software/gaussian//gdv/l101.exe)
 -----
 Title
 -----
 Symbolic Z-matrix:
 Charge =  0 Multiplicity = 1
 C-C-+0.299289        -0.63422  -0.3051   -0.2304 
 O-OH--0.289770       -0.70872   0.72212   0.69489 
 C-CT--0.035454        0.8225   -0.66003  -0.46792 
 H-HC-+0.090426        0.92177  -1.75725  -0.25806 
 H-HC-+0.095387        1.05601  -0.53358  -1.55706 
 N-N3--0.336253        1.7695   -0.22525   0.57692 
 H-H-+0.142619         1.83494   0.7911    0.6037 
 H-H-+0.128282         1.44933  -0.52479   1.49803 
 O-O2--0.308037       -1.60003  -0.5193   -0.92135 
 H-HO-+0.213510       -1.62905   1.08848   0.78619 
 
 ITRead=  3  3  3  3  3  3  3  3  3  3
 MicOpt=  0  0  0  0  0  0  0  0  0  0
 NAtoms=     10 NQM=        0 NQMF=       0 NMMI=      0 NMMIF=      0
                NMic=      10 NMicF=      0.
                    Isotopes and Nuclear Properties:
 (Nuclear quadrupole moments (NQMom) in fm**2, nuclear magnetic moments (NMagM)
  in nuclear magnetons)

  Atom         1           2           3           4           5           6           7           8           9          10
 IAtWgt=          12          16          12           1           1          14           1           1          16           1
 AtmWgt=  12.0000000  15.9949146  12.0000000   1.0078250   1.0078250  14.0030740   1.0078250   1.0078250  15.9949146   1.0078250
 NucSpn=           0           0           0           1           1           2           1           1           0           1
 AtZEff=  -0.0000000  -0.0000000  -0.0000000  -0.0000000  -0.0000000  -0.0000000  -0.0000000  -0.0000000  -0.0000000  -0.0000000
 NQMom=    0.0000000   0.0000000   0.0000000   0.0000000   0.0000000   2.0440000   0.0000000   0.0000000   0.0000000   0.0000000
 NMagM=    0.0000000   0.0000000   0.0000000   2.7928460   2.7928460   0.4037610   2.7928460   2.7928460   0.0000000   2.7928460
 AtZNuc=   6.0000000   8.0000000   6.0000000   1.0000000   1.0000000   7.0000000   1.0000000   1.0000000   8.0000000   1.0000000
 Generating MM parameters.
 I=    1 IAn=  6 Valence= 5.
          JB=  1 J=    2 IAn=  8 IBT=12 Dist= 1.38D+00
          JB=  2 J=    3 IAn=  6 IBT= 1 Dist= 1.52D+00
          JB=  3 J=    9 IAn=  8 IBT= 2 Dist= 1.21D+00
 I=    2 IAn=  8 Valence= 3.
          JB=  1 J=    1 IAn=  6 IBT=12 Dist= 1.38D+00
          JB=  2 J=   10 IAn=  1 IBT= 1 Dist= 9.95D-01
 Read MM parameter file:
 Include all MM classes

 MM sanity checks:
 All charges sum to:               -0.00000100
 Charges of atoms sum to:          -0.00000100
 WARNING -- The following centers have non-zero partial charges, but zero Vanderwaals
 parameters.  These centers can collapse onto other centers with non-zero charge.
   Center  Layer   Charge
     10 H    R    0.213510
 MMInit generated parameter data with length LenPar=        2069.
 MM Charge=             -0.0000 electrons
 MM Dipole moment (Debye):
    X=              0.8076    Y=              0.1280    Z=              0.5301  Tot=              0.9745
 MM Quadrupole moment (Debye-Ang):
   XX=             -1.8787   YY=              2.1380   ZZ=              0.9794
   XY=             -1.7571   XZ=             -2.9424   YZ=              0.1500
 MM Traceless Quadrupole moment (Debye-Ang):
   XX=             -2.2916   YY=              1.7251   ZZ=              0.5665
   XY=             -1.7571   XZ=             -2.9424   YZ=              0.1500
 MM Octapole moment (Debye-Ang**2):
  XXX=             -0.2997  YYY=             -1.1440  ZZZ=              1.3633  XYY=              1.2891
  XXY=              5.6876  XXZ=              4.5875  XZZ=              4.0848  YZZ=             -0.1924
  YYZ=              0.7390  XYZ=              0.9438
 MM Hexadecapole moment (Debye-Ang**3):
 XXXX=             -7.1377 YYYY=              5.4232 ZZZZ=              4.7070 XXXY=             -3.9473
 XXXZ=             -9.3219 YYYX=             -3.7684 YYYZ=              1.2698 ZZZX=             -1.4103
 ZZZY=             -0.3638 XXYY=              4.6705 XXZZ=              1.4599 YYZZ=              0.9681
 XXYZ=              1.5040 YYXZ=             -1.5126 ZZXY=             -2.9363
 Leave Link  101 at Sun Nov 26 11:20:23 2023, MaxMem=   134217728 cpu:               0.2 elap:               0.2
 (Enter /home/emanuele/chem_software/gaussian//gdv/l103.exe)

 GradGradGradGradGradGradGradGradGradGradGradGradGradGradGradGradGradGrad
 Berny optimization.
 Initialization pass.
 No Z-matrix variables, so optimization will use Cartesian coordinates.
 Trust Radius=1.00D-01 FncErr=1.00D-07 GrdErr=1.00D-07 EigMax=2.50D+02 EigMin=1.00D-04
 Number of steps in this run=      2 maximum allowed number of steps=      2.
 GradGradGradGradGradGradGradGradGradGradGradGradGradGradGradGradGradGrad

 Leave Link  103 at Sun Nov 26 11:20:23 2023, MaxMem=   134217728 cpu:               0.0 elap:               0.0
 (Enter /home/emanuele/chem_software/gaussian//gdv/l202.exe)
                          Input orientation:                          
 ---------------------------------------------------------------------
 Center     Atomic      Atomic             Coordinates (Angstroms)
 Number     Number       Type             X           Y           Z
 ---------------------------------------------------------------------
      1          6    20001002       -0.634217   -0.305101   -0.230401
      2          8    20001022       -0.708724    0.722117    0.694888
      3          6    20001001        0.822502   -0.660032   -0.467918
      4          1    20001034        0.921772   -1.757249   -0.258056
      5          1    20001034        1.056008   -0.533576   -1.557060
      6          7    20001020        1.769504   -0.225247    0.576923
      7          1    20001029        1.834936    0.791101    0.603703
      8          1    20001029        1.449330   -0.524785    1.498028
      9          8    20001025       -1.600032   -0.519297   -0.921346
     10          1    20001031       -1.629054    1.088483    0.786191
 ---------------------------------------------------------------------
                    Distance matrix (angstroms):
                    1          2          3          4          5
     1  C    0.000000
     2  O    1.384517   0.000000
     3  C    1.518032   2.367933   0.000000
     4  H    2.128521   3.116709   1.121509   0.000000
     5  H    2.160807   3.124470   1.121047   1.789639   0.000000
     6  N    2.536932   2.655754   1.475650   1.939812   2.271129
     7  H    2.827385   2.546229   2.068618   2.840877   2.651489
     8  H    2.716044   2.618587   2.067885   2.209325   3.080315
     9  O    1.206683   2.224354   2.468618   2.886516   2.731096
    10  H    1.991290   0.994770   3.261935   3.961736   3.915541
                    6          7          8          9         10
     6  N    0.000000
     7  H    1.018804   0.000000
     8  H    1.020132   1.637090   0.000000
     9  O    3.699331   3.980191   3.892558   0.000000
    10  H    3.649641   3.481518   3.547646   2.345524   0.000000
 Symmetry turned off by external request.
 Stoichiometry    C2H5NO2
 Framework group  C1[X(C2H5NO2)]
 Deg. of freedom    24
 Full point group                 C1      NOp   1
 Rotational constants (GHZ):          10.1634574           3.9800173           2.9693276
 Leave Link  202 at Sun Nov 26 11:20:23 2023, MaxMem=   134217728 cpu:               0.0 elap:               0.0
 (Enter /home/emanuele/chem_software/gaussian//gdv/l301.exe)
 Standard basis: Dummy (5D, 7F)
    10 basis functions,    10 primitive gaussians,    10 cartesian basis functions
     7 alpha electrons        7 beta electrons
       nuclear repulsion energy        22.6976424103 Hartrees.
 IExCor=       0 DFT=F Ex=HF Corr=None N6=None ScaHFX=  1.000000
 ScaDFX=  1.000000  1.000000  1.000000  1.000000  1.000000  0.000000
 ScaDFX=  0.000000  0.000000  0.000000  0.000000  0.000000  0.000000
 IRadAn=      5 IRanWt=     -1 IRanGd=            0 ICorTp=0 IEmpDi=  4
 NAtoms=   10 NActive=   10 NUniq=   10 SFac= 1.00D+00 NAtFMM=   60 NAOKFM=F Big=F
 Integral buffers will be    131072 words long.
 Raffenetti 1 integral format.
 Two-electron integral symmetry is turned off.
 Leave Link  301 at Sun Nov 26 11:20:23 2023, MaxMem=   134217728 cpu:               0.0 elap:               0.0
 (Enter /home/emanuele/chem_software/gaussian//gdv/l402.exe)
 AMBER calculation of energy and first derivatives.
 NRF= 0 NRA=   0 NVA=  10 HaveQM=F NVQ=       0
 Convergence limit is  0.750E-04 MaxStp= 10000 StMxLn= 3.00D-04 StpMin= 1.00D-06.
 Convergence criteria             0.00011250 0.00007500 0.00045000 0.00030000
  Step  NS  ND Rises OKQ   Scale  Max. Force  RMS Force Max. Disp.  RMS Disp.     Energy   Flag
     1   0   0   F    T  1.00D+00 0.03927315 0.01622327 0.03927315 0.01622327    0.1036401 ----
     2   0   0   F    F  6.26D-01 0.03927315 0.01622327 0.02459259 0.01015891    0.0981625 ----
     3   0   0   F    T  2.30D+00 0.01970935 0.00981138 0.05200353 0.02638218    0.0972058 ----
     4   0   0   F    F  1.11D+00 0.01970935 0.00981138 0.05790717 0.02937719    0.0921100 ----
     5   0   0   F    T  1.91D+00 0.04380746 0.01439454 0.12159590 0.05575937    0.0901405 ----
     6   0   0   F    F -4.65D-01 0.04380746 0.01439454 0.05648184 0.02590048    0.0894339 ----
     7   0   0   F    T  1.86D+00 0.02329626 0.00999659 0.05897641 0.02985889    0.0869439 ----
     8   0   0   F    F  1.16D-01 0.02329626 0.00999659 0.00681511 0.00345039    0.0838384 ----
     9   0   0   F    T  2.57D+00 0.02006718 0.00822343 0.09297796 0.03330928    0.0838043 ----
    10   0   0   F    F  3.57D-01 0.02006718 0.00822343 0.03320304 0.01189497    0.0804683 ----
    11   0   0   F    F -1.59D-02 0.02006718 0.00822343 0.00052904 0.00018953    0.0802170 ---+
    12   0   0   F    T  4.99D+00 0.01482141 0.00626652 0.13191857 0.04501472    0.0802169 ----
    13   0   0   T    F  4.03D-01 0.01482141 0.00626652 0.05316537 0.01814168    0.0818352 ----
    14   0   0   F    T  1.93D+00 0.01670787 0.00589065 0.04029527 0.01814168    0.0790157 ----
    15   0   0   F    F -5.50D-02 0.01670787 0.00589065 0.00221778 0.00099849    0.0780744 ----
    16   0   0   F    T  1.35D+00 0.01831763 0.00645358 0.03542645 0.01714319    0.0780712 ----
    17   0   0   F    F  2.00D-01 0.01831763 0.00645358 0.00709498 0.00343333    0.0770791 ----
    18   0   0   F    T  2.87D+00 0.01391914 0.00439339 0.04316648 0.02057652    0.0770503 ----
    19   0   0   F    F  1.58D-01 0.01391914 0.00439339 0.00683930 0.00326015    0.0761058 ----
    20   0   0   F    T  3.59D+00 0.00870163 0.00383993 0.04694263 0.02383667    0.0760878 ----
    21   0   0   T    F  4.37D-01 0.00870163 0.00383993 0.02050612 0.01041266    0.0763211 ----
    22   0   0   F    T  1.90D+00 0.01030526 0.00316120 0.03027722 0.01041266    0.0757404 ----
    23   0   0   F    F -3.37D-01 0.01030526 0.00316120 0.01021704 0.00351375    0.0756009 ----
    24   0   0   F    T  2.09D+00 0.00544772 0.00213432 0.01586090 0.00689891    0.0755523 ----
    25   0   0   F    F  5.11D-01 0.00544772 0.00213432 0.00810407 0.00352497    0.0753609 ----
    26   0   0   F    T  2.56D+00 0.00626241 0.00217634 0.01918892 0.01042388    0.0753362 ----
    27   0   0   F    F -1.67D-01 0.00626241 0.00217634 0.00319782 0.00173713    0.0751908 ----
    28   0   0   F    T  2.88D+00 0.00583435 0.00170145 0.01924531 0.00868675    0.0751847 ----
    29   0   0   T    F  4.94D-01 0.00583435 0.00170145 0.00951218 0.00429351    0.0751878 ----
    30   0   0   F    T  1.21D+00 0.00576118 0.00172339 0.00885367 0.00429351    0.0751229 ----
    31   0   0   F    F  1.61D+00 0.00576118 0.00172339 0.01429711 0.00693327    0.0750353 ----
    32   0   0   F    T  4.55D+00 0.00245240 0.00133401 0.02697098 0.01122678    0.0749810 ----
    33   0   0   F    F -4.78D-01 0.00245240 0.00133401 0.01289478 0.00536750    0.0749702 ----
    34   0   0   F    T  1.95D+00 0.00376013 0.00138193 0.01651173 0.00585928    0.0749179 ----
    35   0   0   F    F  5.40D-01 0.00376013 0.00138193 0.00892113 0.00316571    0.0748428 ----
    36   0   0   F    T  1.00D+00 0.00640795 0.00244319 0.02871455 0.00976571    0.0748323 ----
    37   0   0   F    F  2.23D+00 0.00640795 0.00244319 0.06392450 0.02174048    0.0746796 ----
    38   0   0   F    F -6.42D-03 0.00640795 0.00244319 0.00041043 0.00013959    0.0745381 --++
    39   0   0   F    T  3.05D+00 0.00455553 0.00243049 0.09345344 0.03136661    0.0745381 ----
    40   0   0   F    F  9.99D-02 0.00455553 0.00243049 0.00933418 0.00313291    0.0742405 ----
    41   0   0   F    T  2.57D+00 0.00817710 0.00287101 0.09918955 0.03449952    0.0742380 ----
    42   0   0   F    F  8.36D-02 0.00817710 0.00287101 0.00829292 0.00288439    0.0738710 ----
    43   0   0   F    T  2.08D+00 0.01075773 0.00351509 0.09821373 0.03738391    0.0738685 ----
    44   0   0   F    F -1.89D-01 0.01075773 0.00351509 0.01855387 0.00706231    0.0735822 ----
    45   0   0   F    T  1.83D+00 0.00870476 0.00344263 0.07003220 0.03032160    0.0735675 ----
    46   0   0   F    F  3.58D-01 0.00870476 0.00344263 0.02510129 0.01086802    0.0731332 ----
    47   0   0   F    F -1.78D-02 0.00870476 0.00344263 0.00044584 0.00019304    0.0730980 --++
    48   0   0   F    T  1.85D+00 0.00984326 0.00396855 0.10087940 0.04099658    0.0730980 ----
    49   0   0   F    F  6.17D-01 0.00984326 0.00396855 0.06227108 0.02530647    0.0725404 ----
    50   0   0   F    F -1.04D-01 0.00984326 0.00396855 0.00648471 0.00263533    0.0724656 ----
    51   0   0   F    T  3.63D+00 0.00838906 0.00384406 0.13706228 0.06366772    0.0724646 ----
    52   0   0   F    F -4.16D-01 0.00838906 0.00384406 0.05696818 0.02646267    0.0722584 ----
    53   0   0   F    T  1.28D+00 0.01451463 0.00504452 0.08169282 0.03720505    0.0719762 ----
    54   0   0   F    F  1.08D+00 0.01451463 0.00504452 0.08789394 0.04002920    0.0712618 ----
    55   0   0   F    F -1.24D-01 0.01451463 0.00504452 0.01089045 0.00495980    0.0710453 ----
    56   0   0   F    T  2.41D+00 0.01138379 0.00538190 0.14373759 0.07227446    0.0710408 ----
    57   0   0   F    F -1.38D-01 0.01138379 0.00538190 0.01982197 0.00996693    0.0701213 ----
    58   0   0   F    F -2.91D-02 0.01138379 0.00538190 0.00057684 0.00029005    0.0700953 ---+
    59   0   0   F    T  2.71D+00 0.00991940 0.00509158 0.14259783 0.06259758    0.0700953 ----
    60   0   0   F    F  5.30D-01 0.00991940 0.00509158 0.07552696 0.03315482    0.0687503 ----
    61   0   0   F    F -1.78D-01 0.00991940 0.00509158 0.01347550 0.00591547    0.0686147 ----
    62   0   0   F    T  1.45D+00 0.02176621 0.00849035 0.21323745 0.08983692    0.0686076 ----
    63   0   0   F    F -3.85D-01 0.02176621 0.00849035 0.08214321 0.03460693    0.0681189 ----
    64   0   0   F    T  3.79D+00 0.01564988 0.00638450 0.15137381 0.05522999    0.0675336 ----
    65   0   0   F    F -2.19D-01 0.01564988 0.00638450 0.03318071 0.01210626    0.0659171 ----
    66   0   0   F    T  2.70D+00 0.01257390 0.00636486 0.11325137 0.04312374    0.0657954 ----
    67   0   0   F    F -1.25D-01 0.01257390 0.00636486 0.01421105 0.00541127    0.0644026 ----
    68   0   0   F    T  1.08D+00 0.02457389 0.00897537 0.09804803 0.03771247    0.0643742 ----
    69   0   0   F    F  4.18D-01 0.02457389 0.00897537 0.04102083 0.01577795    0.0626252 ----
    70   0   0   F    T  2.51D+00 0.01339839 0.00719093 0.15382953 0.05349041    0.0624482 ----
    71   0   0   F    F  2.56D-01 0.01339839 0.00719093 0.03941433 0.01370536    0.0600586 ----
    72   0   0   F    F -1.92D-02 0.01339839 0.00719093 0.00075700 0.00026323    0.0599525 ---+
    73   0   0   F    T  2.00D+00 0.02616628 0.00947316 0.20512084 0.06693255    0.0599524 ----
    74   0   0   F    F -3.91D-01 0.02616628 0.00947316 0.08017539 0.02616186    0.0589906 ----
    75   0   0   F    T  1.76D+00 0.02128552 0.00786019 0.13465666 0.04077069    0.0583104 ----
    76   0   0   F    F -8.33D-03 0.02128552 0.00786019 0.00112188 0.00033968    0.0566983 ----
    77   0   0   F    T  2.51D+00 0.01344095 0.00624977 0.13893006 0.04043101    0.0566982 ----
    78   0   0   F    F  6.32D-01 0.01344095 0.00624977 0.08779789 0.02555068    0.0547207 ----
    79   0   0   F    F -6.01D-02 0.01344095 0.00624977 0.00527514 0.00153516    0.0544072 ----
    80   0   0   F    T  2.99D+00 0.01638366 0.00672705 0.21685961 0.06444653    0.0544060 ----
    81   0   0   F    F -3.19D-01 0.01638366 0.00672705 0.06926209 0.02058337    0.0533207 ----
    82   0   0   F    F -5.36D-03 0.01638366 0.00672705 0.00037119 0.00011031    0.0529638 --++
    83   0   0   F    T  3.79D+00 0.01317436 0.00503035 0.14430726 0.04397347    0.0529638 ----
    84   0   0   T    F  4.34D-01 0.01317436 0.00503035 0.06259440 0.01907384    0.0533536 ----
    85   0   0   F    T  1.35D+00 0.01216262 0.00530426 0.05860367 0.01907384    0.0523456 ----
    86   0   0   F    F  6.89D-01 0.01216262 0.00530426 0.04040428 0.01315045    0.0515608 ----
    87   0   0   F    T  1.65D+00 0.01281643 0.00582883 0.09752085 0.03222429    0.0514100 ----
    88   0   0   F    F  3.10D-01 0.01281643 0.00582883 0.03022419 0.00998713    0.0503473 ----
    89   0   0   F    T  2.69D+00 0.01193380 0.00501943 0.13828773 0.04221141    0.0502822 ----
    90   0   0   F    F -2.28D-01 0.01193380 0.00501943 0.03158869 0.00964224    0.0495612 ----
    91   0   0   F    T  4.86D+00 0.00720012 0.00332682 0.09951984 0.03256917    0.0494894 ----
    92   0   0   F    F -3.21D-01 0.00720012 0.00332682 0.03195498 0.01045769    0.0490641 ----
    93   0   0   F    T  1.70D+00 0.01257246 0.00448689 0.06671592 0.02211149    0.0489447 ----
    94   0   0   F    F -6.93D-03 0.01257246 0.00448689 0.00046224 0.00015320    0.0484308 ---+
    95   0   0   F    T  2.08D+00 0.01013115 0.00390041 0.06344547 0.02195829    0.0484308 ----
    96   0   0   F    F -3.37D-01 0.01013115 0.00390041 0.02139167 0.00740359    0.0481978 ----
    97   0   0   F    T  2.07D+00 0.00857939 0.00304867 0.03813377 0.01455470    0.0481167 ----
    98   0   0   F    F  1.86D-01 0.00857939 0.00304867 0.00709608 0.00270840    0.0477824 ----
    99   0   0   F    T  2.39D+00 0.00849773 0.00296005 0.04414406 0.01726309    0.0477740 ----
   100   0   0   F    F  2.85D-01 0.00849773 0.00296005 0.01258901 0.00492309    0.0473891 ----
   101   0   0   F    T  3.74D+00 0.00903296 0.00258809 0.05017335 0.02218619    0.0473691 ----
   102   0   0   T    F  4.03D-01 0.00903296 0.00258809 0.02020839 0.00893596    0.0475581 ----
   103   0   0   F    T  1.82D+00 0.00625221 0.00223948 0.02256181 0.00893596    0.0472172 ----
   104   0   0   F    F -1.88D-01 0.00625221 0.00223948 0.00424445 0.00168108    0.0471122 ----
   105   0   0   F    T  1.85D+00 0.00542775 0.00188222 0.02059362 0.00725488    0.0471062 ----
   106   0   0   F    F  2.95D-01 0.00542775 0.00188222 0.00606670 0.00213722    0.0469862 ----
   107   0   0   F    T  2.22D+00 0.00515672 0.00184219 0.02719566 0.00939210    0.0469797 ----
   108   0   0   F    F  2.16D-02 0.00515672 0.00184219 0.00058750 0.00020290    0.0468636 ---+
   109   0   0   F    T  3.82D+00 0.00439259 0.00131891 0.02978188 0.00959500    0.0468636 ----
   110   0   0   F    F  1.60D-01 0.00439259 0.00131891 0.00477422 0.00153814    0.0467509 ----
   111   0   0   F    T  2.45D+00 0.00481246 0.00170782 0.03358821 0.01113314    0.0467488 ----
   112   0   0   F    F -4.25D-01 0.00481246 0.00170782 0.01428462 0.00473478    0.0467204 ----
   113   0   0   F    T  2.04D+00 0.00321125 0.00132579 0.01762326 0.00639836    0.0466874 ----
   114   0   0   F    F -2.91D-01 0.00321125 0.00132579 0.00512129 0.00185935    0.0466556 ----
   115   0   0   F    T  1.99D+00 0.00227490 0.00105735 0.01113188 0.00453901    0.0466492 ----
   116   0   0   F    F -4.24D-02 0.00227490 0.00105735 0.00047169 0.00019233    0.0466171 ---+
   117   0   0   F    T  3.66D+00 0.00181768 0.00070112 0.00991650 0.00434668    0.0466170 ----
   118   0   0   F    F -3.25D-01 0.00181768 0.00070112 0.00322536 0.00141377    0.0466031 ----
   119   0   0   F    T  2.82D+00 0.00160954 0.00059616 0.00730382 0.00293291    0.0465989 ----
   120   0   0   F    F -4.19D-01 0.00160954 0.00059616 0.00305836 0.00122811    0.0465947 ----
   121   0   0   F    T  1.37D+00 0.00164371 0.00060891 0.00449822 0.00170480    0.0465901 ----
   122   0   0   F    F  5.92D-01 0.00164371 0.00060891 0.00266380 0.00100957    0.0465797 ----
   123   0   0   F    T  1.54D+00 0.00143499 0.00069263 0.00718939 0.00271437    0.0465780 ----
   124   0   0   F    F  7.40D-02 0.00143499 0.00069263 0.00053222 0.00020094    0.0465661 ---+
   125   0   0   F    T  6.22D+00 0.00079824 0.00031163 0.00665856 0.00291531    0.0465661 ----
   126   0   0   T    F  4.44D-01 0.00079824 0.00031163 0.00295642 0.00129441    0.0465683 ----
   127   0   0   F    T  1.93D+00 0.00082185 0.00034480 0.00290212 0.00129441    0.0465620 ----
   128   0   0   F    F  5.37D-01 0.00082185 0.00034480 0.00155723 0.00069456    0.0465574 ----
   129   0   0   F    T  1.00D+00 0.00146874 0.00060207 0.00500296 0.00213228    0.0465567 ----
   130   0   0   F    F  1.41D+00 0.00146874 0.00060207 0.00706077 0.00300933    0.0465481 ----
   131   0   0   F    T  2.69D+00 0.00177797 0.00055951 0.01300669 0.00514161    0.0465436 ----
   132   0   0   F    F -2.38D-01 0.00177797 0.00055951 0.00309821 0.00122474    0.0465349 ----
   133   0   0   F    T  4.41D+00 0.00113668 0.00036509 0.01191030 0.00391687    0.0465340 ----
   134   0   0   T    F  4.55D-01 0.00113668 0.00036509 0.00542173 0.00178301    0.0465357 ----
   135   0   0   F    T  1.80D+00 0.00083256 0.00037151 0.00526879 0.00178301    0.0465300 ----
   136   0   0   F    F  1.67D-01 0.00083256 0.00037151 0.00088136 0.00029826    0.0465257 ---+
   137   0   0   F    T  1.72D+00 0.00102120 0.00039913 0.00564067 0.00208127    0.0465256 ----
   138   0   0   F    F -3.02D-01 0.00102120 0.00039913 0.00170521 0.00062918    0.0465233 ----
   139   0   0   F    T  3.17D+00 0.00058156 0.00022799 0.00323780 0.00145209    0.0465228 ----
   140   0   0   F    T  3.06D+00 0.00044850 0.00021443 0.00265543 0.00145209    0.0465204 ----
   141   0   0   F    F -2.63D-01 0.00044850 0.00021443 0.00069873 0.00038209    0.0465191 ----
   142   0   0   F    T  2.10D+00 0.00046910 0.00022107 0.00204288 0.00107000    0.0465190 ----
   143   0   0   F    F -2.96D-01 0.00046910 0.00022107 0.00060480 0.00031678    0.0465181 ----
   144   0   0   F    T  1.67D+00 0.00047430 0.00019308 0.00148755 0.00075322    0.0465179 ----
   145   0   0   F    T  2.15D+00 0.00034031 0.00016531 0.00172337 0.00075322    0.0465169 ----
   146   0   0   F    F  3.84D-01 0.00034031 0.00016531 0.00066124 0.00028900    0.0465157 ---+
   147   0   0   F    T  3.08D+00 0.00028160 0.00014368 0.00260657 0.00104222    0.0465156 ----
   148   0   0   F    T  1.82D+00 0.00044332 0.00018717 0.00266887 0.00104222    0.0465146 ----
   149   0   0   F    F  3.75D-01 0.00044332 0.00018717 0.00100209 0.00039133    0.0465133 ----
   150   0   0   F    T  1.09D+00 0.00087907 0.00027528 0.00368042 0.00143355    0.0465132 ----
   151   0   0   F    F  8.04D-01 0.00087907 0.00027528 0.00295988 0.00115289    0.0465114 ----
   152   0   0   F    T  3.78D+00 0.00052887 0.00020674 0.00652001 0.00258644    0.0465110 ----
   153   0   0   T    F  4.90D-01 0.00052887 0.00020674 0.00319265 0.00126650    0.0465111 ----
   154   0   0   F    T  2.93D+00 0.00033463 0.00015807 0.00395191 0.00126650    0.0465098 ----
   155   0   0   F    T  1.23D+00 0.00063438 0.00023898 0.00399743 0.00126650    0.0465088 ----
   156   0   0   F    F  4.21D-01 0.00063438 0.00023898 0.00168102 0.00053259    0.0465075 ----
   157   0   0   F    T  1.72D+00 0.00066411 0.00025051 0.00596213 0.00179910    0.0465074 ----
   158   0   0   F    F  4.74D-01 0.00066411 0.00025051 0.00282744 0.00085319    0.0465052 ----
   159   0   0   F    T  3.22D+00 0.00061905 0.00020891 0.00905979 0.00265229    0.0465050 ----
   160   0   0   F    F -2.53D-01 0.00061905 0.00020891 0.00229532 0.00067196    0.0465036 ----
   161   0   0   F    T  1.62D+00 0.00081871 0.00025171 0.00669368 0.00198033    0.0465034 ----
   162   0   0   F    F  5.51D-01 0.00081871 0.00025171 0.00368657 0.00109067    0.0465013 ----
   163   0   0   F    T  1.48D+00 0.00073932 0.00032470 0.01064992 0.00307100    0.0465010 ----
   164   0   0   F    F -1.62D-01 0.00073932 0.00032470 0.00172725 0.00049807    0.0464991 ----
   165   0   0   F    T  3.85D+00 0.00051001 0.00018249 0.00859393 0.00257293    0.0464990 ----
   166   0   0   F    T  1.85D+00 0.00060319 0.00025961 0.00850873 0.00257293    0.0464972 ----
   167   0   0   F    F  4.27D-01 0.00060319 0.00025961 0.00363407 0.00109889    0.0464948 ----
   168   0   0   F    T  1.52D+00 0.00083173 0.00034756 0.01258031 0.00367182    0.0464946 ----
   169   0   0   F    F -8.57D-02 0.00083173 0.00034756 0.00107819 0.00031469    0.0464921 ----
   170   0   0   F    T  2.27D+00 0.00059229 0.00026401 0.01142066 0.00335713    0.0464921 ----
   171   0   0   F    T  2.81D+00 0.00064295 0.00024070 0.01137712 0.00335713    0.0464897 ----
   172   0   0   F    F  8.59D-01 0.00064295 0.00024070 0.00977607 0.00288470    0.0464860 ----
   173   0   0   F    T  2.01D+00 0.00108931 0.00038162 0.02130031 0.00624183    0.0464851 ----
   174   0   0   F    F -3.20D-01 0.00108931 0.00038162 0.00681313 0.00199652    0.0464827 ----
   175   0   0   F    T  2.29D+00 0.00070155 0.00030014 0.01365335 0.00424532    0.0464821 ----
   176   0   0   F    F -4.36D-01 0.00070155 0.00030014 0.00595786 0.00185251    0.0464814 ----
   177   0   0   F    T  2.68D+00 0.00047071 0.00020451 0.00726549 0.00239280    0.0464803 ----
   178   0   0   F    T  1.90D+00 0.00063795 0.00023906 0.00685183 0.00239280    0.0464787 ----
   179   0   0   F    F  7.12D-01 0.00063795 0.00023906 0.00487716 0.00170321    0.0464764 ----
   180   0   0   F    T  3.04D+00 0.00084066 0.00024904 0.01061865 0.00409601    0.0464759 ----
   181   0   0   T    F  4.31D-01 0.00084066 0.00024904 0.00457218 0.00176366    0.0464768 ----
   182   0   0   F    T  1.55D+00 0.00068669 0.00022570 0.00452801 0.00176366    0.0464747 ----
   183   0   0   F    F  1.93D-01 0.00068669 0.00022570 0.00087330 0.00034015    0.0464733 ----
   184   0   0   F    T  3.30D+00 0.00034757 0.00016539 0.00495254 0.00210381    0.0464733 ----
   185   0   0   F    F  2.07D-01 0.00034757 0.00016539 0.00102378 0.00043490    0.0464717 ----
   186   0   0   F    T  2.46D+00 0.00041970 0.00020879 0.00545643 0.00253871    0.0464716 ----
   187   0   0   F    F -2.00D-01 0.00041970 0.00020879 0.00109117 0.00050769    0.0464704 ----
   188   0   0   F    T  1.55D+00 0.00057441 0.00023437 0.00444441 0.00203102    0.0464703 ----
   189   0   0   F    F  4.26D-01 0.00057441 0.00023437 0.00189201 0.00086462    0.0464687 ----
   190   0   0   F    T  1.37D+00 0.00070246 0.00029623 0.00599420 0.00289564    0.0464685 ----
   191   0   0   F    F  5.93D-01 0.00070246 0.00029623 0.00355342 0.00171656    0.0464661 ----
   192   0   0   F    T  4.05D+00 0.00061565 0.00021145 0.00987357 0.00461220    0.0464657 ----
   193   0   0   F    F -3.18D-01 0.00061565 0.00021145 0.00313918 0.00146639    0.0464642 ----
   194   0   0   F    T  1.89D+00 0.00048437 0.00025360 0.00729327 0.00314581    0.0464638 ----
   195   0   0   F    F  5.48D-01 0.00048437 0.00025360 0.00399444 0.00172292    0.0464613 ----
   196   0   0   F    T  1.82D+00 0.00069956 0.00032236 0.01098778 0.00486873    0.0464610 ----
   197   0   0   F    F -1.96D-01 0.00069956 0.00032236 0.00214868 0.00095209    0.0464588 ----
   198   0   0   F    T  1.89D+00 0.00061616 0.00028363 0.00879500 0.00391664    0.0464587 ----
   199   0   0   F    F -7.88D-02 0.00061616 0.00028363 0.00069335 0.00030877    0.0464566 ----
   200   0   0   F    T  4.83D+00 0.00038604 0.00016394 0.00940205 0.00360788    0.0464566 ----
   201   0   0   F    F -1.71D-01 0.00038604 0.00016394 0.00160549 0.00061608    0.0464551 ----
   202   0   0   F    T  2.38D+00 0.00050662 0.00021052 0.00829032 0.00299180    0.0464550 ----
   203   0   0   F    F -1.80D-01 0.00050662 0.00021052 0.00149585 0.00053982    0.0464538 ----
   204   0   0   F    T  2.33D+00 0.00033615 0.00019198 0.00700357 0.00245198    0.0464537 ----
   205   0   0   F    F -4.17D-01 0.00033615 0.00019198 0.00291879 0.00102188    0.0464533 ----
   206   0   0   F    T  1.81D+00 0.00047833 0.00016457 0.00423073 0.00143009    0.0464530 ----
   207   0   0   F    F  4.95D-01 0.00047833 0.00016457 0.00209364 0.00070770    0.0464520 ----
   208   0   0   F    T  1.66D+00 0.00059154 0.00020848 0.00653882 0.00213780    0.0464519 ----
   209   0   0   F    F  7.49D-01 0.00059154 0.00020848 0.00489471 0.00160027    0.0464503 ----
   210   0   0   F    T  4.86D+00 0.00042257 0.00015469 0.01151635 0.00373807    0.0464500 ----
   211   0   0   T    F  4.55D-01 0.00042257 0.00015469 0.00523976 0.00170076    0.0464503 ----
   212   0   0   F    T  2.73D+00 0.00037266 0.00013861 0.00518716 0.00170076    0.0464492 ----
   213   0   0   F    F -1.71D-01 0.00037266 0.00013861 0.00088505 0.00029019    0.0464485 ---+
   214   0   0   F    T  1.15D+00 0.00057252 0.00019365 0.00423745 0.00141057    0.0464485 ----
   215   0   0   F    F  1.47D+00 0.00057252 0.00019365 0.00622370 0.00207176    0.0464475 ----
   216   0   0   F    T  1.51D+00 0.00049670 0.00026725 0.01025117 0.00348233    0.0464469 ----
   217   0   0   F    F  6.21D-01 0.00049670 0.00026725 0.00636853 0.00216339    0.0464447 ----
   218   0   0   F    T  4.61D+00 0.00049899 0.00019292 0.01571093 0.00564573    0.0464444 ----
   219   0   0   F    F -3.59D-01 0.00049899 0.00019292 0.00563980 0.00202666    0.0464432 ----
   220   0   0   F    T  1.76D+00 0.00059561 0.00024707 0.00978674 0.00361906    0.0464427 ----
   221   0   0   F    F  4.67D-01 0.00059561 0.00024707 0.00457234 0.00169082    0.0464405 ----
   222   0   0   F    T  2.52D+00 0.00056023 0.00026139 0.01357350 0.00530988    0.0464403 ----
   223   0   0   F    F -4.39D-01 0.00056023 0.00026139 0.00596319 0.00233277    0.0464397 ----
   224   0   0   F    T  1.86D+00 0.00054340 0.00022755 0.00722475 0.00297711    0.0464388 ----
   225   0   0   F    F  9.19D-02 0.00054340 0.00022755 0.00066400 0.00027362    0.0464373 ---+
   226   0   0   F    T  2.12D+00 0.00048902 0.00021302 0.00766416 0.00325073    0.0464373 ----
   227   0   0   F    F  7.58D-01 0.00048902 0.00021302 0.00580798 0.00246344    0.0464352 ----
   228   0   0   F    T  2.15D+00 0.00069953 0.00027422 0.01360245 0.00571417    0.0464347 ----
   229   0   0   F    F -8.04D-02 0.00069953 0.00027422 0.00109400 0.00045957    0.0464325 ----
   230   0   0   F    T  6.88D+00 0.00039597 0.00016343 0.01211426 0.00525459    0.0464325 ----
   231   0   0   T    F  1.85D-01 0.00039597 0.00016343 0.00223790 0.00097070    0.0464417 ----
   232   0   0   F    T  2.77D+00 0.00022207 0.00010656 0.00268958 0.00097070    0.0464320 ----
   233   0   0   F    F -2.08D-01 0.00022207 0.00010656 0.00055946 0.00020191    0.0464316 ---+
   234   0   0   F    T  1.33D+00 0.00038387 0.00013487 0.00232386 0.00076878    0.0464316 ----
   235   0   0   F    F  8.93D-01 0.00038387 0.00013487 0.00207593 0.00068676    0.0464311 ----
   236   0   0   F    T  1.74D+00 0.00054918 0.00016082 0.00456951 0.00145555    0.0464309 ----
   237   0   0   F    F  3.71D-01 0.00054918 0.00016082 0.00169685 0.00054051    0.0464301 ----
   238   0   0   F    T  3.54D+00 0.00036847 0.00012907 0.00648062 0.00199606    0.0464300 ----
   239   0   0   F    F -3.98D-01 0.00036847 0.00012907 0.00258140 0.00079508    0.0464297 ----
   240   0   0   F    T  2.95D+00 0.00025835 0.00010869 0.00400889 0.00120097    0.0464295 ----
   241   0   0   F    T  1.61D+00 0.00044398 0.00014390 0.00402000 0.00120097    0.0464290 ----
   242   0   0   F    F  9.06D-02 0.00044398 0.00014390 0.00036437 0.00010885    0.0464285 --++
   243   0   0   F    T  3.11D+00 0.00025611 0.00011526 0.00432783 0.00130983    0.0464284 ----
   244   0   0   T    F  4.38D-01 0.00025611 0.00011526 0.00189558 0.00057370    0.0464286 ----
   245   0   0   F    T  2.05D+00 0.00021626 0.00009011 0.00186251 0.00057370    0.0464282 ----
   246   0   0   F    F  2.77D-01 0.00021626 0.00009011 0.00051565 0.00015883    0.0464279 ---+
   247   0   0   F    T  2.61D+00 0.00014461 0.00008810 0.00227908 0.00073253    0.0464279 ----
   248   0   0   F    F -2.14D-01 0.00014461 0.00008810 0.00048704 0.00015654    0.0464276 ---+
   249   0   0   F    T  2.39D+00 0.00014943 0.00007961 0.00166452 0.00057599    0.0464276 ----
   250   0   0   F    F -3.22D-01 0.00014943 0.00007961 0.00053597 0.00018547    0.0464275 ---+
   251   0   0   F    T  2.18D+00 0.00016745 0.00006617 0.00101058 0.00039052    0.0464275 -+--
   252   0   0   F    T  1.58D+00 0.00016356 0.00007139 0.00093530 0.00039052    0.0464273 -+--
   253   0   0   F    T  3.92D+00 0.00011224 0.00005809 0.00090734 0.00039052    0.0464273 ++--
   254   0   0   T    F  4.45D-01 0.00011224 0.00005809 0.00040351 0.00017367    0.0464273 ++++
   255   0   0   F    T  2.60D+00 0.00009286 0.00004221 0.00050331 0.00017367    0.0464272 ++-+
   256   0   0   F    T  2.65D+00 0.00009436 0.00004094 0.00050645 0.00017367    0.0464271 ++-+
   257   0   0   F    T  1.00D+00 0.00020731 0.00006382 0.00060405 0.00020650    0.0464270 -+-+
   258   0   0   F    T  1.58D+00 0.00025568 0.00007877 0.00044279 0.00020650    0.0464270 --++
   259   0   0   F    T  1.00D+00 0.00031778 0.00009413 0.00047047 0.00022877    0.0464269 ---+
   260   0   0   F    T  2.34D+00 0.00020850 0.00008768 0.00043780 0.00022877    0.0464269 --++
   261   0   0   T    T  1.00D+00 0.00066003 0.00022713 0.00066003 0.00022713    0.0464272 ---+
   262   0   0   T    F  5.00D-01 0.00066003 0.00022713 0.00033001 0.00011357    0.0464288 --++
   263   0   0   T    F  5.00D-01 0.00066003 0.00022713 0.00016501 0.00005678    0.0464275 --++
   264   0   0   T    F  5.00D-01 0.00066003 0.00022713 0.00008250 0.00002839    0.0464271 --++
   265   0   0   T    F  5.00D-01 0.00066003 0.00022713 0.00004125 0.00001420    0.0464270 --++
   266   0   0   T    F  5.00D-01 0.00066003 0.00022713 0.00002063 0.00000710    0.0464269 --++
   267   0   0   T    F  5.00D-01 0.00066003 0.00022713 0.00001031 0.00000355    0.0464269 --++
   268   0   0   T    F  5.00D-01 0.00066003 0.00022713 0.00000516 0.00000177    0.0464269 --++
   269   0   0   T    F  5.00D-01 0.00066003 0.00022713 0.00000258 0.00000089    0.0464269 --++
   270   0   0   T    F  5.00D-01 0.00066003 0.00022713 0.00000129 0.00000044    0.0464269 --++
   271   0   0   T    F  5.00D-01 0.00066003 0.00022713 0.00000064 0.00000022    0.0464269 --++
   272   0   0   T    T  1.00D+00 0.00020954 0.00008799 0.00011411 0.00005355    0.0464269 --++
   273   0   0   F    T  1.00D+00 0.00021141 0.00007653 0.00020925 0.00007628    0.0464268 --++
   274   0   0   F    T  1.19D+00 0.00019262 0.00006499 0.00013911 0.00007628    0.0464268 -+++
   275   0   0   T    F  5.00D-01 0.00019262 0.00006499 0.00006955 0.00003814    0.0464270 -+++
   276   0   0   T    F  5.00D-01 0.00019262 0.00006499 0.00003478 0.00001907    0.0464269 -+++
   277   0   0   T    F  5.00D-01 0.00019262 0.00006499 0.00001739 0.00000953    0.0464268 -+++
   278   0   0   T    F  5.00D-01 0.00019262 0.00006499 0.00000869 0.00000477    0.0464268 -+++
   279   0   0   T    F  5.00D-01 0.00019262 0.00006499 0.00000435 0.00000238    0.0464268 -+++
   280   0   0   T    F  5.00D-01 0.00019262 0.00006499 0.00000217 0.00000119    0.0464268 -+++
   281   0   0   T    F  5.00D-01 0.00019262 0.00006499 0.00000109 0.00000060    0.0464268 -+++
   282   0   0   T    F  5.00D-01 0.00019262 0.00006499 0.00000054 0.00000030    0.0464268 -+++
   283   0   0   T    T  1.00D+00 0.00019366 0.00006534 0.00013847 0.00005722    0.0464268 -+++
   284   0   0   F    T  2.57D+00 0.00006575 0.00002469 0.00014050 0.00005722    0.0464268 ====
 ****************************
 MOLECULAR MECHANICS FUNCTION
 ****************************
 Atomic parameters:
 Center  VDW
      1 1.9080 0.0860000
      2 1.7210 0.2104000
      3 1.9080 0.1094000
      4 1.4870 0.0157000
      5 1.4870 0.0157000
      6 1.8750 0.1700000
      7 0.6000 0.0157000
      8 0.6000 0.0157000
      9 1.6612 0.2100000
     10 0.0000 0.0000000
 Molecular mechanics terms:
 NBDir 3 1      0      0
 HrmStr1  1- 2  431.53 1.3510
 HrmStr1  1- 3  294.15 1.5090
 HrmStr1  1- 9  946.08 1.2030
 HrmStr1  2-10  566.76 0.9680
 HrmStr1  3- 4  358.05 1.0960
 HrmStr1  3- 5  358.05 1.0960
 HrmStr1  3- 6  380.82 1.4520
 HrmStr1  6- 7  506.01 1.0110
 HrmStr1  6- 8  506.01 1.0110
 HrmBnd1  1- 2-10  56.55 107.23
 HrmBnd1  1- 3- 4  46.41 106.89
 HrmBnd1  1- 3- 5  46.41 106.89
 HrmBnd1  1- 3- 6  59.93 110.61
 HrmBnd1  2- 1- 3  67.92 111.72
 HrmBnd1  2- 1- 9  91.40 123.02
 HrmBnd1  3- 1- 9  62.83 125.24
 HrmBnd1  3- 6- 7  52.60 110.71
 HrmBnd1  3- 6- 8  52.60 110.71
 HrmBnd1  4- 3- 5  44.68 106.22
 HrmBnd1  4- 3- 6  52.45 112.94
 HrmBnd1  5- 3- 6  52.45 112.94
 HrmBnd1  7- 6- 8  47.09 108.63
 AmbTrs  3- 1- 2-10   0 180   0   0  0.0000 14.5000  0.0000  0.0000  2.0
 AmbTrs  9- 1- 2-10   0   0   0   0  0.0000 14.5000  0.0000  0.0000  2.0
 AmbTrs  2- 1- 3- 4   0   0   0   0  0.0000 14.5000  0.0000  0.0000  6.0
 AmbTrs  2- 1- 3- 5   0   0   0   0  0.0000 14.5000  0.0000  0.0000  6.0
 AmbTrs  2- 1- 3- 6   0   0   0   0  0.0000 14.5000  0.0000  0.0000  6.0
 AmbTrs  9- 1- 3- 4   0   0   0   0  0.0000 14.5000  0.0000  0.0000  6.0
 AmbTrs  9- 1- 3- 5   0   0   0   0  0.0000 14.5000  0.0000  0.0000  6.0
 AmbTrs  9- 1- 3- 6   0   0   0   0  0.0000 14.5000  0.0000  0.0000  6.0
 AmbTrs  1- 3- 6- 7   0 180   0   0  0.0000 25.6300  0.0000  0.0000  6.0
 AmbTrs  1- 3- 6- 8   0 180   0   0  0.0000 25.6300  0.0000  0.0000  6.0
 AmbTrs  4- 3- 6- 7   0   0   0   0  0.0000 16.9300  0.0000  0.0000  6.0
 AmbTrs  4- 3- 6- 8   0   0   0   0  0.0000 16.9300  0.0000  0.0000  6.0
 AmbTrs  5- 3- 6- 7   0   0   0   0  0.0000 16.9300  0.0000  0.0000  6.0
 AmbTrs  5- 3- 6- 8   0   0   0   0  0.0000 16.9300  0.0000  0.0000  6.0
 NBPair  2- 1 3 1      0      0 -1.000 -1.000
 NBPair  3- 2 3 1      0      0 -1.000 -1.000
 NBPair 10- 3 3 1      0      0 -0.500 -0.167
 NBPair  9- 2 3 1      0      0 -1.000 -1.000
 NBPair 10- 9 3 1      0      0 -0.500 -0.167
 NBPair  3- 1 3 1      0      0 -1.000 -1.000
 NBPair  4- 2 3 1      0      0 -0.500 -0.167
 NBPair  5- 2 3 1      0      0 -0.500 -0.167
 NBPair  6- 2 3 1      0      0 -0.500 -0.167
 NBPair  9- 3 3 1      0      0 -1.000 -1.000
 NBPair  9- 4 3 1      0      0 -0.500 -0.167
 NBPair  9- 5 3 1      0      0 -0.500 -0.167
 NBPair  9- 6 3 1      0      0 -0.500 -0.167
 NBPair  9- 1 3 1      0      0 -1.000 -1.000
 NBPair 10- 1 3 1      0      0 -1.000 -1.000
 NBPair 10- 2 3 1      0      0 -1.000 -1.000
 NBPair  4- 1 3 1      0      0 -1.000 -1.000
 NBPair  5- 1 3 1      0      0 -1.000 -1.000
 NBPair  6- 1 3 1      0      0 -1.000 -1.000
 NBPair  4- 3 3 1      0      0 -1.000 -1.000
 NBPair  5- 4 3 1      0      0 -1.000 -1.000
 NBPair  6- 4 3 1      0      0 -1.000 -1.000
 NBPair  5- 3 3 1      0      0 -1.000 -1.000
 NBPair  6- 5 3 1      0      0 -1.000 -1.000
 NBPair  6- 3 3 1      0      0 -1.000 -1.000
 NBPair  7- 1 3 1      0      0 -0.500 -0.167
 NBPair  8- 1 3 1      0      0 -0.500 -0.167
 NBPair  7- 4 3 1      0      0 -0.500 -0.167
 NBPair  8- 4 3 1      0      0 -0.500 -0.167
 NBPair  7- 5 3 1      0      0 -0.500 -0.167
 NBPair  8- 5 3 1      0      0 -0.500 -0.167
 NBPair  7- 3 3 1      0      0 -1.000 -1.000
 NBPair  8- 3 3 1      0      0 -1.000 -1.000
 NBPair  7- 6 3 1      0      0 -1.000 -1.000
 NBPair  8- 7 3 1      0      0 -1.000 -1.000
 NBPair  8- 6 3 1      0      0 -1.000 -1.000
 Energy per function type:
 Direct Coulomb + vdW (small)                           0.003889418
 Direct Coulomb (large)                                -0.131923584
 Direct vdW (large)                                   268.405007185
 Non-direct Coulomb + vdW (small)                      -0.012115121
 Non-direct Coulomb (large)                             0.138197431
 Non-direct vdW (large)                              -268.405007185
 Harmonic stretch I                                     0.000127954
 Harmonic bend I                                        0.010272985
 Amber torsion                                          0.037977688
 Energy per function class:
        Coulomb              -0.003788247
    Vanderwaals               0.001836391
     Stretching               0.000127954
        Bending               0.010272985
        Torsion               0.037977688
 Energy=    4.642677095E-02 NIter=   0.
 Dipole moment=       0.540464       0.293254       0.236473
 Leave Link  402 at Sun Nov 26 11:20:24 2023, MaxMem=   134217728 cpu:               0.4 elap:               0.4
 (Enter /home/emanuele/chem_software/gaussian//gdv/l716.exe)
 Dipole        = 5.40464284D-01 2.93254368D-01 2.36473045D-01
 -------------------------------------------------------------------
 Center     Atomic                   Forces (Hartrees/Bohr)
 Number     Number              X              Y              Z
 -------------------------------------------------------------------
      1        6          -0.000034346   -0.000065746   -0.000016967
      2        8          -0.000005926    0.000015481   -0.000022619
      3        6           0.000010541   -0.000012302   -0.000010339
      4        1          -0.000000311    0.000006624   -0.000026930
      5        1           0.000016011    0.000015465   -0.000019033
      6        7          -0.000046514   -0.000010392    0.000029424
      7        1           0.000015575   -0.000005543    0.000019062
      8        1           0.000021093    0.000014460   -0.000015884
      9        8           0.000034382    0.000036869    0.000045039
     10        1          -0.000010505    0.000005086    0.000018246
 -------------------------------------------------------------------
 Cartesian Forces:  Max     0.000065746 RMS     0.000024693
 Z-matrix is all fixed cartesians, so copy forces.
 Leave Link  716 at Sun Nov 26 11:20:24 2023, MaxMem=   134217728 cpu:               0.0 elap:               0.0
 (Enter /home/emanuele/chem_software/gaussian//gdv/l103.exe)

 GradGradGradGradGradGradGradGradGradGradGradGradGradGradGradGradGradGrad
 Berny optimization.
 Search for a local minimum.
 Step number   1 out of a maximum of    2
 All quantities printed in internal units (Hartrees-Bohrs-Radians)
 RMS Force = .24693D-04 SwitMx=.10000D-02 MixMth= 2
 Mixed Optimization -- En-DIIS/RFO-DIIS
 Second derivative matrix not updated -- unit matrix used.
 ITU=  0
 RFO step:  Lambda=-1.82921562D-08 EMin= 1.00000000D+00
 Linear search not attempted -- first point.
 Variable       Old X    -DE/DX   Delta X   Delta X   Delta X     New X
                                 (Linear)    (Quad)   (Total)
    X1       -1.26117  -0.00003   0.00000  -0.00003  -0.00003  -1.26121
    Y1       -0.66562  -0.00007   0.00000  -0.00007  -0.00007  -0.66569
    Z1        0.00481  -0.00002   0.00000  -0.00002  -0.00002   0.00480
    X2       -1.88227  -0.00001   0.00000  -0.00001  -0.00001  -1.88227
    Y2        1.80754   0.00002   0.00000   0.00002   0.00002   1.80755
    Z2       -0.10036  -0.00002   0.00000  -0.00002  -0.00002  -0.10039
    X3        1.50163   0.00001   0.00000   0.00001   0.00001   1.50164
    Y3       -0.94784  -0.00001   0.00000  -0.00001  -0.00001  -0.94785
    Z3       -0.74980  -0.00001   0.00000  -0.00001  -0.00001  -0.74981
    X4        1.60277  -0.00000   0.00000  -0.00000  -0.00000   1.60277
    Y4       -2.88719   0.00001   0.00000   0.00001   0.00001  -2.88718
    Z4       -1.47638  -0.00003   0.00000  -0.00003  -0.00003  -1.47641
    X5        1.76761   0.00002   0.00000   0.00002   0.00002   1.76762
    Y5        0.34541   0.00002   0.00000   0.00002   0.00002   0.34542
    Z5       -2.34906  -0.00002   0.00000  -0.00002  -0.00002  -2.34908
    X6        3.13417  -0.00005   0.00000  -0.00005  -0.00005   3.13412
    Y6       -0.54502  -0.00001   0.00000  -0.00001  -0.00001  -0.54503
    Z6        1.43621   0.00003   0.00000   0.00003   0.00003   1.43624
    X7        5.03496   0.00002   0.00000   0.00002   0.00002   5.03497
    Y7       -0.57090  -0.00001   0.00000  -0.00001  -0.00001  -0.57091
    Z7        1.23600   0.00002   0.00000   0.00002   0.00002   1.23602
    X8        2.38447   0.00002   0.00000   0.00002   0.00002   2.38449
    Y8        0.01289   0.00001   0.00000   0.00001   0.00001   0.01290
    Z8        3.10379  -0.00002   0.00000  -0.00002  -0.00002   3.10377
    X9       -2.76150   0.00003   0.00000   0.00003   0.00003  -2.76147
    Y9       -2.19850   0.00004   0.00000   0.00004   0.00004  -2.19846
    Z9       -0.74567   0.00005   0.00000   0.00005   0.00005  -0.74563
   X10       -3.31854  -0.00001   0.00000  -0.00001  -0.00001  -3.31855
   Y10        2.01419   0.00001   0.00000   0.00001   0.00001   2.01419
   Z10        1.01043   0.00002   0.00000   0.00002   0.00002   1.01044
         Item               Value     Threshold  Converged?
 Maximum Force            0.000066     0.000450     YES
 RMS     Force            0.000025     0.000300     YES
 Maximum Displacement     0.000066     0.001800     YES
 RMS     Displacement     0.000025     0.001200     YES
 Predicted change in Energy=-9.146078D-09
 Optimization completed.
    -- Stationary point found.
 Largest change from initial coordinates is atom    7       0.283 Angstoms.
 GradGradGradGradGradGradGradGradGradGradGradGradGradGradGradGradGradGrad

 Leave Link  103 at Sun Nov 26 11:20:24 2023, MaxMem=   134217728 cpu:               0.0 elap:               0.0
 (Enter /home/emanuele/chem_software/gaussian//gdv/l202.exe)
                          Input orientation:                          
 ---------------------------------------------------------------------
 Center     Atomic      Atomic             Coordinates (Angstroms)
 Number     Number       Type             X           Y           Z
 ---------------------------------------------------------------------
      1          6    20001002       -0.667384   -0.352234    0.002548
      2          8    20001022       -0.996053    0.956507   -0.053110
      3          6    20001001        0.794630   -0.501577   -0.396775
      4          1    20001034        0.848152   -1.527834   -0.781267
      5          1    20001034        0.935378    0.182782   -1.243070
      6          7    20001020        1.658530   -0.288410    0.760008
      7          1    20001029        2.664384   -0.302109    0.654064
      8          1    20001029        1.261809    0.006821    1.642454
      9          8    20001025       -1.461323   -1.163395   -0.394594
     10          1    20001031       -1.756098    1.065861    0.534695
 ---------------------------------------------------------------------
                    Distance matrix (angstroms):
                    1          2          3          4          5
     1  C    0.000000
     2  O    1.350527   0.000000
     3  C    1.522908   2.334665   0.000000
     4  H    2.072016   3.178561   1.097225   0.000000
     5  H    2.099202   2.396889   1.097439   1.774000   0.000000
     6  N    2.446976   3.042661   1.459421   2.137385   2.181122
     7  H    3.395241   3.934845   2.154073   2.619404   2.612221
     8  H    2.557342   2.979057   2.152947   2.898396   2.909256
     9  O    1.202516   2.197060   2.351029   2.369811   2.876853
    10  H    1.865334   0.967027   3.135397   3.903988   3.344296
                    6          7          8          9         10
     6  N    0.000000
     7  H    1.011512   0.000000
     8  H    1.011563   1.743437   0.000000
     9  O    3.439794   4.343151   3.596445   0.000000
    10  H    3.680285   4.628850   3.384739   2.433116   0.000000
 Symmetry turned off by external request.
 Stoichiometry    C2H5NO2
 Framework group  C1[X(C2H5NO2)]
 Deg. of freedom    24
 Full point group                 C1      NOp   1
 Rotational constants (GHZ):           9.5071052           3.8959027           3.1077255
 Leave Link  202 at Sun Nov 26 11:20:24 2023, MaxMem=   134217728 cpu:               0.0 elap:               0.0
 (Enter /home/emanuele/chem_software/gaussian//gdv/l9999.exe)
 Unable to Open any file for archive entry.
 1\1\GINC-EMANUELE-XPS-13-9343\FOpt\AMBER\ZDO\C2H5N1O2\EMANUELE\26-Nov-
 2023\0\\#p Amber=(SoftFirst,Print) geom=nocrowd nosymm opt=(maxcycle=3
 00)\\Title\\0,1\C,-0.6673837756,-0.352233571,0.0025475728\O,-0.9960528
 551,0.9565066619,-0.0531095945\C,0.7946304731,-0.5015765201,-0.3967750
 591\H,0.8481515936,-1.5278336668,-0.7812671427\H,0.935377788,0.1827824
 008,-1.243069893\N,1.6585296265,-0.2884097663,0.7600078505\H,2.6643843
 716,-0.3021085606,0.6540635033\H,1.2618087974,0.0068206732,1.642454191
 7\O,-1.4613231308,-1.1633951258,-0.3945939326\H,-1.7560978887,1.065861
 4745,0.5346945037\\Version=ES64L-GDVRevJ.14\HF=0.0464268\RMSD=0.000e+0
 0\RMSF=2.469e-05\Dipole=0.5404643,0.2932544,0.236473\PG=C01 [X(C2H5N1O
 2)]\\@
 The archive entry for this job was punched.


 WE'RE IN THE POSITION OF A VISITOR FROM ANOTHER
 DIMENSION WHO COMES TO EARTH AND SEES A CHESS MATCH.
 ASSUMING HE KNOWS IT'S A GAME, HE'S GOT TWO PROBLEMS:
 FIRST, FIGURE OUT THE RULES, AND SECOND, FIGURE OUT HOW TO WIN.
 NINETY PERCENT OF SCIENCE (INCLUDING VIRTUALLY ALL OF CHEMISRY)
 IS IN THAT SECOND CATEGORY.  THEY'RE TRYING TO APPLY
 THE LAWS THAT ARE ALREADY KNOWN.

                     -- SHELDON GLASHOW, 1979
 Job cpu time:       0 days  0 hours  0 minutes  0.9 seconds.
 Elapsed time:       0 days  0 hours  0 minutes  0.9 seconds.
 File lengths (MBytes):  RWF=      6 Int=      0 D2E=      0 Chk=      1 Scr=      1
 Normal termination of Gaussian DV at Sun Nov 26 11:20:24 2023.
