 Entering Gaussian System, Link 0=/home/emanuele/chem_software/gaussian//g09/g09
 Input=2_zmat_mm_70.gjf
 Output=2_zmat_mm_70.log
 Initial command:
 /home/emanuele/chem_software/gaussian//gdv/l1.exe "/home/emanuele/chem_software/gaussian/scratch/Gau-6301.inp" -scrdir="/home/emanuele/chem_software/gaussian/scratch/"
 Entering Link 1 = /home/emanuele/chem_software/gaussian//gdv/l1.exe PID=      6303.
  
 Copyright (c) 1988-2020, Gaussian, Inc.  All Rights Reserved.
  
 This is the private, development version of
 the Gaussian(R) DV system of programs. It is based on
 the Gaussian(R) 16 system (copyright 2016, Gaussian, Inc.),
 the Gaussian(R) 09 system (copyright 2009, Gaussian, Inc.),
 the Gaussian(R) 03 system (copyright 2003, Gaussian, Inc.),
 the Gaussian(R) 98 system (copyright 1998, Gaussian, Inc.),
 the Gaussian(R) 94 system (copyright 1995, Gaussian, Inc.),
 the Gaussian 92(TM) system (copyright 1992, Gaussian, Inc.),
 the Gaussian 90(TM) system (copyright 1990, Gaussian, Inc.),
 the Gaussian 88(TM) system (copyright 1988, Gaussian, Inc.),
 the Gaussian 86(TM) system (copyright 1986, Carnegie Mellon
 University), and the Gaussian 82(TM) system (copyright 1983,
 Carnegie Mellon University). Gaussian is a federally registered
 trademark of Gaussian, Inc.
  
 This software contains proprietary and confidential information,
 including trade secrets, belonging to Gaussian, Inc.
  
 This software is provided under written license and may be
 used, copied, transmitted, or stored only in accord with that
 written license.
  
 The following legend is applicable only to US Government
 contracts under FAR:
  
                    RESTRICTED RIGHTS LEGEND
  
 Use, reproduction and disclosure by the US Government is
 subject to restrictions as set forth in subparagraphs (a)
 and (c) of the Commercial Computer Software - Restricted
 Rights clause in FAR 52.227-19.
  
 Gaussian, Inc.
 340 Quinnipiac St., Bldg. 40, Wallingford CT 06492
  
  
 ---------------------------------------------------------------
 Warning -- This program may not be used in any manner that
 competes with the business of Gaussian, Inc. or will provide
 assistance to any competitor of Gaussian, Inc.  The licensee
 of this program is prohibited from giving any competitor of
 Gaussian, Inc. access to this program.  By using this program,
 the user acknowledges that Gaussian, Inc. is engaged in the
 business of creating and licensing software in the field of
 computational chemistry and represents and warrants to the
 licensee that it is not a competitor of Gaussian, Inc. and that
 it will not use this program in any manner prohibited above.
 ---------------------------------------------------------------
  

 Cite this work as:
 Gaussian Development Version, Revision J.14,
 M. J. Frisch, G. W. Trucks, H. B. Schlegel, G. E. Scuseria, 
 M. A. Robb, J. R. Cheeseman, G. Scalmani, V. Barone, 
 G. A. Petersson, H. Nakatsuji, X. Li, A. V. Marenich, M. Caricato, 
 J. Bloino, B. G. Janesko, J. Zheng, R. Gomperts, B. Mennucci, 
 H. P. Hratchian, J. V. Ortiz, A. F. Izmaylov, J. L. Sonnenberg, 
 D. Williams-Young, F. Ding, F. Lipparini, F. Egidi, J. Goings, 
 B. Peng, A. Petrone, T. Henderson, D. Ranasinghe, V. G. Zakrzewski, 
 J. Gao, N. Rega, G. Zheng, W. Liang, M. Hada, M. Ehara, K. Toyota, 
 R. Fukuda, J. Hasegawa, M. Ishida, T. Nakajima, Y. Honda, O. Kitao, 
 H. Nakai, T. Vreven, K. Throssell, J. A. Montgomery, Jr., 
 J. E. Peralta, F. Ogliaro, M. J. Bearpark, J. J. Heyd, 
 E. N. Brothers, K. N. Kudin, V. N. Staroverov, T. A. Keith, 
 R. Kobayashi, J. Normand, K. Raghavachari, A. P. Rendell, 
 J. C. Burant, S. S. Iyengar, J. Tomasi, M. Cossi, J. M. Millam, 
 M. Klene, C. Adamo, R. Cammi, J. W. Ochterski, R. L. Martin, 
 K. Morokuma, O. Farkas, J. B. Foresman, and D. J. Fox, 
 Gaussian, Inc., Wallingford CT, 2020.
 
 ******************************************
 Gaussian DV:  ES64L-GDVRevJ.14 29-Dec-2020
                26-Nov-2023 
 ******************************************
 %mem=1GB
 %nprocshared=1
 Will use up to    1 processors via shared memory.
 %chk=2_zmat_mm_70.chk
 -----------------------------------------------------------------
 #p Amber=(SoftFirst,Print) geom=nocrowd nosymm opt=(maxcycle=300)
 -----------------------------------------------------------------
 1/6=300,10=10,18=4000020,19=15,37=210000000,38=1,56=2,64=203/1,3;
 2/9=110,12=1,15=1,40=1/2;
 3/5=30,11=9,25=1,30=1,41=10030000,43=2,71=1/1;
 4/20=11,22=1001,24=3,119=11/2;
 7/30=1,44=-1/16;
 1/6=300,10=10,18=4000020,19=15,64=203/3(2);
 2/9=110,12=1,15=1/2;
 99//99;
 2/9=110,12=1,15=1/2;
 3/5=30,11=9,25=1,30=1,41=10030000,43=2,71=1/1;
 4/16=2,20=11,22=1001,24=3,119=11/2;
 7/30=1,44=-1/16;
 1/6=300,10=10,18=4000020,19=15,64=203/3(-4);
 2/9=110,12=1,15=1/2;
 99/9=10/99;
 Leave Link    1 at Sun Nov 26 11:20:25 2023, MaxMem=   134217728 cpu:               0.0 elap:               0.0
 (Enter /home/emanuele/chem_software/gaussian//gdv/l101.exe)
 -----
 Title
 -----
 Symbolic Z-matrix:
 Charge =  0 Multiplicity = 1
 C-C-+0.299289        -0.59759  -0.25797   0.03671 
 O-OH--0.289770       -0.88136   1.09415  -0.04475 
 C-CT--0.035454        0.82768  -0.48695  -0.44198 
 H-HC-+0.090426        0.92962  -1.58305  -0.64498 
 H-HC-+0.095387        0.98172   0.03712  -1.42003 
 N-N3--0.336253        1.84713  -0.44294   0.62522 
 H-H-+0.142619         1.94106   0.50226   0.99675 
 H-H-+0.128282         1.59905  -1.05671   1.39703 
 O-O2--0.308037       -1.52278  -1.02802   0.10921 
 H-HO-+0.213510       -1.84251   1.29851   0.11177 
 
 ITRead=  3  3  3  3  3  3  3  3  3  3
 MicOpt=  0  0  0  0  0  0  0  0  0  0
 NAtoms=     10 NQM=        0 NQMF=       0 NMMI=      0 NMMIF=      0
                NMic=      10 NMicF=      0.
                    Isotopes and Nuclear Properties:
 (Nuclear quadrupole moments (NQMom) in fm**2, nuclear magnetic moments (NMagM)
  in nuclear magnetons)

  Atom         1           2           3           4           5           6           7           8           9          10
 IAtWgt=          12          16          12           1           1          14           1           1          16           1
 AtmWgt=  12.0000000  15.9949146  12.0000000   1.0078250   1.0078250  14.0030740   1.0078250   1.0078250  15.9949146   1.0078250
 NucSpn=           0           0           0           1           1           2           1           1           0           1
 AtZEff=  -0.0000000  -0.0000000  -0.0000000  -0.0000000  -0.0000000  -0.0000000  -0.0000000  -0.0000000  -0.0000000  -0.0000000
 NQMom=    0.0000000   0.0000000   0.0000000   0.0000000   0.0000000   2.0440000   0.0000000   0.0000000   0.0000000   0.0000000
 NMagM=    0.0000000   0.0000000   0.0000000   2.7928460   2.7928460   0.4037610   2.7928460   2.7928460   0.0000000   2.7928460
 AtZNuc=   6.0000000   8.0000000   6.0000000   1.0000000   1.0000000   7.0000000   1.0000000   1.0000000   8.0000000   1.0000000
 Generating MM parameters.
 I=    1 IAn=  6 Valence= 5.
          JB=  1 J=    2 IAn=  8 IBT=12 Dist= 1.38D+00
          JB=  2 J=    3 IAn=  6 IBT= 1 Dist= 1.52D+00
          JB=  3 J=    9 IAn=  8 IBT= 2 Dist= 1.21D+00
 I=    2 IAn=  8 Valence= 3.
          JB=  1 J=    1 IAn=  6 IBT=12 Dist= 1.38D+00
          JB=  2 J=   10 IAn=  1 IBT= 1 Dist= 9.95D-01
 Read MM parameter file:
 Include all MM classes

 MM sanity checks:
 All charges sum to:               -0.00000100
 Charges of atoms sum to:          -0.00000100
 WARNING -- The following centers have non-zero partial charges, but zero Vanderwaals
 parameters.  These centers can collapse onto other centers with non-zero charge.
   Center  Layer   Charge
     10 H    R    0.213510
 MMInit generated parameter data with length LenPar=        2069.
 MM Charge=             -0.0000 electrons
 MM Dipole moment (Debye):
    X=              0.7754    Y=              0.7797    Z=             -0.2536  Tot=              1.1285
 MM Quadrupole moment (Debye-Ang):
   XX=             -1.1709   YY=              0.1876   ZZ=              2.3174
   XY=             -2.8117   XZ=             -0.0518   YZ=              0.6328
 MM Traceless Quadrupole moment (Debye-Ang):
   XX=             -1.6156   YY=             -0.2571   ZZ=              1.8727
   XY=             -2.8117   XZ=             -0.0518   YZ=              0.6328
 MM Octapole moment (Debye-Ang**2):
  XXX=             -2.5077  YYY=             -0.1983  ZZZ=              0.5496  XYY=              2.4358
  XXY=              8.2837  XXZ=              0.5924  XZZ=              3.1298  YZZ=             -0.8536
  YYZ=              0.3508  XYZ=             -0.1836
 MM Hexadecapole moment (Debye-Ang**3):
 XXXX=             -1.1712 YYYY=              2.7425 ZZZZ=              4.7080 XXXY=             -8.7054
 XXXZ=              1.1510 YYYX=             -7.2837 YYYZ=              0.7684 ZZZX=              1.8901
 ZZZY=             -1.1271 XXYY=              3.2271 XXZZ=              4.5099 YYZZ=              1.8365
 XXYZ=              1.7657 YYXZ=              0.7028 ZZXY=             -1.1261
 Leave Link  101 at Sun Nov 26 11:20:25 2023, MaxMem=   134217728 cpu:               0.3 elap:               0.3
 (Enter /home/emanuele/chem_software/gaussian//gdv/l103.exe)

 GradGradGradGradGradGradGradGradGradGradGradGradGradGradGradGradGradGrad
 Berny optimization.
 Initialization pass.
 No Z-matrix variables, so optimization will use Cartesian coordinates.
 Trust Radius=1.00D-01 FncErr=1.00D-07 GrdErr=1.00D-07 EigMax=2.50D+02 EigMin=1.00D-04
 Number of steps in this run=      2 maximum allowed number of steps=      2.
 GradGradGradGradGradGradGradGradGradGradGradGradGradGradGradGradGradGrad

 Leave Link  103 at Sun Nov 26 11:20:25 2023, MaxMem=   134217728 cpu:               0.0 elap:               0.0
 (Enter /home/emanuele/chem_software/gaussian//gdv/l202.exe)
                          Input orientation:                          
 ---------------------------------------------------------------------
 Center     Atomic      Atomic             Coordinates (Angstroms)
 Number     Number       Type             X           Y           Z
 ---------------------------------------------------------------------
      1          6    20001002       -0.597591   -0.257969    0.036707
      2          8    20001022       -0.881363    1.094153   -0.044746
      3          6    20001001        0.827682   -0.486948   -0.441980
      4          1    20001034        0.929619   -1.583046   -0.644975
      5          1    20001034        0.981717    0.037121   -1.420032
      6          7    20001020        1.847128   -0.442937    0.625224
      7          1    20001029        1.941063    0.502256    0.996745
      8          1    20001029        1.599054   -1.056707    1.397025
      9          8    20001025       -1.522776   -1.028023    0.109210
     10          1    20001031       -1.842508    1.298513    0.111773
 ---------------------------------------------------------------------
                    Distance matrix (angstroms):
                    1          2          3          4          5
     1  C    0.000000
     2  O    1.383978   0.000000
     3  C    1.520847   2.361887   0.000000
     4  H    2.133750   3.287450   1.119388   0.000000
     5  H    2.168728   2.545544   1.120250   1.796766   0.000000
     6  N    2.521352   3.202525   1.476527   1.937802   2.272106
     7  H    2.818578   3.066127   2.070766   2.840202   2.641497
     8  H    2.704385   3.585718   2.074025   2.212451   3.084376
     9  O    1.205905   2.222329   2.474111   2.625088   3.121794
    10  H    1.994515   0.995018   3.259513   4.069489   3.451635
                    6          7          8          9         10
     6  N    0.000000
     7  H    1.019922   0.000000
     8  H    1.016824   1.645466   0.000000
     9  O    3.459024   3.889428   3.377146   0.000000
    10  H    4.112140   3.966435   4.363861   2.348405   0.000000
 Symmetry turned off by external request.
 Stoichiometry    C2H5NO2
 Framework group  C1[X(C2H5NO2)]
 Deg. of freedom    24
 Full point group                 C1      NOp   1
 Rotational constants (GHZ):           9.1233655           3.7310027           3.0189767
 Leave Link  202 at Sun Nov 26 11:20:25 2023, MaxMem=   134217728 cpu:               0.0 elap:               0.0
 (Enter /home/emanuele/chem_software/gaussian//gdv/l301.exe)
 Standard basis: Dummy (5D, 7F)
    10 basis functions,    10 primitive gaussians,    10 cartesian basis functions
     7 alpha electrons        7 beta electrons
       nuclear repulsion energy        22.5170278791 Hartrees.
 IExCor=       0 DFT=F Ex=HF Corr=None N6=None ScaHFX=  1.000000
 ScaDFX=  1.000000  1.000000  1.000000  1.000000  1.000000  0.000000
 ScaDFX=  0.000000  0.000000  0.000000  0.000000  0.000000  0.000000
 IRadAn=      5 IRanWt=     -1 IRanGd=            0 ICorTp=0 IEmpDi=  4
 NAtoms=   10 NActive=   10 NUniq=   10 SFac= 1.00D+00 NAtFMM=   60 NAOKFM=F Big=F
 Integral buffers will be    131072 words long.
 Raffenetti 1 integral format.
 Two-electron integral symmetry is turned off.
 Leave Link  301 at Sun Nov 26 11:20:25 2023, MaxMem=   134217728 cpu:               0.0 elap:               0.0
 (Enter /home/emanuele/chem_software/gaussian//gdv/l402.exe)
 AMBER calculation of energy and first derivatives.
 NRF= 0 NRA=   0 NVA=  10 HaveQM=F NVQ=       0
 Convergence limit is  0.750E-04 MaxStp= 10000 StMxLn= 3.00D-04 StpMin= 1.00D-06.
 Convergence criteria             0.00011250 0.00007500 0.00045000 0.00030000
  Step  NS  ND Rises OKQ   Scale  Max. Force  RMS Force Max. Disp.  RMS Disp.     Energy   Flag
     1   0   0   F    T  1.00D+00 0.03812482 0.01546736 0.03812482 0.01546736    0.0968143 ----
     2   0   0   F    F  6.69D-01 0.03812482 0.01546736 0.02551482 0.01035145    0.0918024 ----
     3   0   0   F    T  2.02D+00 0.01995432 0.01055445 0.05421226 0.02581881    0.0908479 ----
     4   0   0   F    F  1.18D+00 0.01995432 0.01055445 0.06372726 0.03035037    0.0856622 ----
     5   0   0   F    T  3.47D+00 0.02759302 0.01018261 0.12207571 0.05616918    0.0835411 ----
     6   0   0   T    F  4.57D-01 0.02759302 0.01018261 0.05572761 0.02564125    0.0847968 ----
     7   0   0   F    T  1.72D+00 0.02301621 0.00898541 0.06254522 0.02564125    0.0810482 ----
     8   0   0   F    F -8.19D-02 0.02301621 0.00898541 0.00512241 0.00210000    0.0791367 ----
     9   0   0   F    T  1.34D+00 0.01969269 0.00928884 0.05449690 0.02354125    0.0791211 ----
    10   0   0   F    F  8.56D-01 0.01969269 0.00928884 0.04663706 0.02014600    0.0765671 ----
    11   0   0   F    F -1.91D-02 0.01969269 0.00928884 0.00089212 0.00038537    0.0758771 ----
    12   0   0   F    T  4.17D+00 0.01484620 0.00698338 0.09858556 0.04330188    0.0758768 ----
    13   0   0   F    F -4.37D-01 0.01484620 0.00698338 0.04304738 0.01890776    0.0752210 ----
    14   0   0   F    T  2.97D+00 0.01758590 0.00554475 0.06099324 0.02439412    0.0741422 ----
    15   0   0   F    F -4.68D-01 0.01758590 0.00554475 0.02854243 0.01141548    0.0739802 ----
    16   0   0   F    T  1.21D+00 0.01722886 0.00582573 0.03426254 0.01297863    0.0734135 ----
    17   0   0   F    F  7.77D-01 0.01722886 0.00582573 0.02660582 0.01007827    0.0725274 ----
    18   0   0   F    T  2.66D+00 0.01126900 0.00482461 0.04981568 0.02305691    0.0723193 ----
    19   0   0   F    F -1.72D-01 0.01126900 0.00482461 0.00854868 0.00395671    0.0715770 ----
    20   0   0   F    T  2.70D+00 0.01014356 0.00402452 0.04516581 0.01910020    0.0715427 ----
    21   0   0   F    F -1.38D-01 0.01014356 0.00402452 0.00623321 0.00263596    0.0709988 ----
    22   0   0   F    T  2.86D+00 0.00867819 0.00329050 0.04346653 0.01646424    0.0709849 ----
    23   0   0   T    F  3.54D-01 0.00867819 0.00329050 0.01539709 0.00583210    0.0713717 ----
    24   0   0   F    T  1.73D+00 0.00509182 0.00218324 0.01565897 0.00583210    0.0708203 ----
    25   0   0   F    F  1.06D+00 0.00509182 0.00218324 0.01661555 0.00618837    0.0706331 ----
    26   0   0   F    T  3.07D+00 0.00489254 0.00215395 0.03014004 0.01202048    0.0705657 ----
    27   0   0   F    F -2.68D-01 0.00489254 0.00215395 0.00808118 0.00322294    0.0704304 ----
    28   0   0   F    T  2.68D+00 0.00450325 0.00180327 0.01947980 0.00879753    0.0704095 ----
    29   0   0   F    F -4.47D-01 0.00450325 0.00180327 0.00871076 0.00393398    0.0703846 ----
    30   0   0   F    T  1.35D+00 0.00451425 0.00176092 0.01096726 0.00486355    0.0703373 ----
    31   0   0   F    F  6.47D-01 0.00451425 0.00176092 0.00709399 0.00314591    0.0702496 ----
    32   0   0   F    T  3.62D+00 0.00370833 0.00125743 0.01853036 0.00800946    0.0702336 ----
    33   0   0   T    F  4.29D-01 0.00370833 0.00125743 0.00795268 0.00343742    0.0702619 ----
    34   0   0   F    T  3.85D+00 0.00181823 0.00065787 0.00808802 0.00343742    0.0701967 ----
    35   0   0   F    F -2.39D-01 0.00181823 0.00065787 0.00192903 0.00081984    0.0701795 ----
    36   0   0   F    T  1.14D+00 0.00247695 0.00100102 0.00504910 0.00261758    0.0701776 ----
    37   0   0   F    F  4.59D-01 0.00247695 0.00100102 0.00231899 0.00120222    0.0701552 ----
    38   0   0   F    T  2.30D+00 0.00196469 0.00079598 0.00899044 0.00381981    0.0701527 ----
    39   0   0   F    F  6.08D-01 0.00196469 0.00079598 0.00546498 0.00232193    0.0701225 ----
    40   0   0   F    T  4.01D+00 0.00183044 0.00071571 0.01747158 0.00614173    0.0701175 ----
    41   0   0   F    F -4.52D-01 0.00183044 0.00071571 0.00789774 0.00277627    0.0701121 ----
    42   0   0   F    T  1.77D+00 0.00204816 0.00076214 0.01010938 0.00336547    0.0701006 ----
    43   0   0   F    F -3.17D-01 0.00204816 0.00076214 0.00320257 0.00106615    0.0700923 ----
    44   0   0   F    T  2.63D+00 0.00112350 0.00047568 0.00701809 0.00229931    0.0700900 ----
    45   0   0   F    T  2.43D+00 0.00122761 0.00046458 0.00663159 0.00229931    0.0700810 ----
    46   0   0   F    F -9.33D-02 0.00122761 0.00046458 0.00061872 0.00021452    0.0700738 ---+
    47   0   0   F    T  3.59D+00 0.00069745 0.00032143 0.00459818 0.00208479    0.0700737 ----
    48   0   0   T    F  4.28D-01 0.00069745 0.00032143 0.00196813 0.00089234    0.0700756 ----
    49   0   0   F    T  1.22D+00 0.00098543 0.00034052 0.00234371 0.00089234    0.0700713 ----
    50   0   0   F    F  9.68D-01 0.00098543 0.00034052 0.00226764 0.00086338    0.0700682 ----
    51   0   0   F    T  3.11D+00 0.00066434 0.00027946 0.00456313 0.00175572    0.0700671 ----
    52   0   0   F    F -3.67D-01 0.00066434 0.00027946 0.00167441 0.00064425    0.0700656 ----
    53   0   0   F    T  3.80D+00 0.00039923 0.00017885 0.00227543 0.00111147    0.0700648 ----
    54   0   0   F    F -1.46D-01 0.00039923 0.00017885 0.00033174 0.00016204    0.0700633 --++
    55   0   0   F    T  1.55D+00 0.00093949 0.00024785 0.00194407 0.00094943    0.0700633 ----
    56   0   0   F    F -2.78D-01 0.00093949 0.00024785 0.00054116 0.00026429    0.0700624 ---+
    57   0   0   F    T  3.18D+00 0.00032391 0.00013096 0.00143372 0.00068514    0.0700623 ----
    58   0   0   F    T  2.69D+00 0.00029741 0.00012534 0.00157483 0.00068514    0.0700616 ----
    59   0   0   F    F -3.42D-01 0.00029741 0.00012534 0.00053921 0.00023459    0.0700614 ---+
    60   0   0   F    T  2.91D+00 0.00023734 0.00011065 0.00110300 0.00045055    0.0700613 ----
    61   0   0   F    T  1.00D+00 0.00047705 0.00018093 0.00128505 0.00048642    0.0700609 ----
    62   0   0   F    T  2.61D+00 0.00035572 0.00017319 0.00095260 0.00048642    0.0700606 ----
    63   0   0   T    F  4.22D-01 0.00035572 0.00017319 0.00040204 0.00020529    0.0700611 --++
    64   0   0   F    T  1.46D+00 0.00031413 0.00011444 0.00039013 0.00020529    0.0700601 --++
    65   0   0   F    T  1.29D+00 0.00024380 0.00009989 0.00046236 0.00020529    0.0700600 ---+
    66   0   0   T    T  1.00D+00 0.00031528 0.00014796 0.00031528 0.00014796    0.0700600 --++
    67   0   0   F    T  1.24D+00 0.00030134 0.00010972 0.00029253 0.00014796    0.0700599 --++
    68   0   0   T    T  1.00D+00 0.00027897 0.00013206 0.00027897 0.00013206    0.0700600 --++
    69   0   0   F    T  1.60D+00 0.00016054 0.00008281 0.00028273 0.00013206    0.0700599 --++
    70   0   0   T    T  1.00D+00 0.00032536 0.00013421 0.00032536 0.00013421    0.0700599 --++
    71   0   0   T    T  1.00D+00 0.00045123 0.00015837 0.00048349 0.00016937    0.0700600 ---+
    72   0   0   T    F  5.00D-01 0.00045123 0.00015837 0.00024174 0.00008468    0.0700607 --++
    73   0   0   T    F  5.00D-01 0.00045123 0.00015837 0.00012087 0.00004234    0.0700601 --++
    74   0   0   T    F  5.00D-01 0.00045123 0.00015837 0.00006044 0.00002117    0.0700600 --++
    75   0   0   T    F  5.00D-01 0.00045123 0.00015837 0.00003022 0.00001059    0.0700599 --++
    76   0   0   T    F  5.00D-01 0.00045123 0.00015837 0.00001511 0.00000529    0.0700599 --++
    77   0   0   T    F  5.00D-01 0.00045123 0.00015837 0.00000755 0.00000265    0.0700599 --++
    78   0   0   T    F  5.00D-01 0.00045123 0.00015837 0.00000378 0.00000132    0.0700599 --++
    79   0   0   T    F  5.00D-01 0.00045123 0.00015837 0.00000189 0.00000066    0.0700599 --++
    80   0   0   T    F  5.00D-01 0.00045123 0.00015837 0.00000094 0.00000033    0.0700599 --++
    81   0   0   T    T  1.00D+00 0.00016031 0.00008303 0.00017848 0.00007989    0.0700599 --++
    82   0   0   F    T  1.99D+00 0.00008824 0.00004234 0.00016587 0.00007989    0.0700598 ====
 ****************************
 MOLECULAR MECHANICS FUNCTION
 ****************************
 Atomic parameters:
 Center  VDW
      1 1.9080 0.0860000
      2 1.7210 0.2104000
      3 1.9080 0.1094000
      4 1.4870 0.0157000
      5 1.4870 0.0157000
      6 1.8750 0.1700000
      7 0.6000 0.0157000
      8 0.6000 0.0157000
      9 1.6612 0.2100000
     10 0.0000 0.0000000
 Molecular mechanics terms:
 NBDir 3 1      0      0
 HrmStr1  1- 2  431.53 1.3510
 HrmStr1  1- 3  294.15 1.5090
 HrmStr1  1- 9  946.08 1.2030
 HrmStr1  2-10  566.76 0.9680
 HrmStr1  3- 4  358.05 1.0960
 HrmStr1  3- 5  358.05 1.0960
 HrmStr1  3- 6  380.82 1.4520
 HrmStr1  6- 7  506.01 1.0110
 HrmStr1  6- 8  506.01 1.0110
 HrmBnd1  1- 2-10  56.55 107.23
 HrmBnd1  1- 3- 4  46.41 106.89
 HrmBnd1  1- 3- 5  46.41 106.89
 HrmBnd1  1- 3- 6  59.93 110.61
 HrmBnd1  2- 1- 3  67.92 111.72
 HrmBnd1  2- 1- 9  91.40 123.02
 HrmBnd1  3- 1- 9  62.83 125.24
 HrmBnd1  3- 6- 7  52.60 110.71
 HrmBnd1  3- 6- 8  52.60 110.71
 HrmBnd1  4- 3- 5  44.68 106.22
 HrmBnd1  4- 3- 6  52.45 112.94
 HrmBnd1  5- 3- 6  52.45 112.94
 HrmBnd1  7- 6- 8  47.09 108.63
 AmbTrs  3- 1- 2-10   0 180   0   0  0.0000 14.5000  0.0000  0.0000  2.0
 AmbTrs  9- 1- 2-10   0   0   0   0  0.0000 14.5000  0.0000  0.0000  2.0
 AmbTrs  2- 1- 3- 4   0   0   0   0  0.0000 14.5000  0.0000  0.0000  6.0
 AmbTrs  2- 1- 3- 5   0   0   0   0  0.0000 14.5000  0.0000  0.0000  6.0
 AmbTrs  2- 1- 3- 6   0   0   0   0  0.0000 14.5000  0.0000  0.0000  6.0
 AmbTrs  9- 1- 3- 4   0   0   0   0  0.0000 14.5000  0.0000  0.0000  6.0
 AmbTrs  9- 1- 3- 5   0   0   0   0  0.0000 14.5000  0.0000  0.0000  6.0
 AmbTrs  9- 1- 3- 6   0   0   0   0  0.0000 14.5000  0.0000  0.0000  6.0
 AmbTrs  1- 3- 6- 7   0 180   0   0  0.0000 25.6300  0.0000  0.0000  6.0
 AmbTrs  1- 3- 6- 8   0 180   0   0  0.0000 25.6300  0.0000  0.0000  6.0
 AmbTrs  4- 3- 6- 7   0   0   0   0  0.0000 16.9300  0.0000  0.0000  6.0
 AmbTrs  4- 3- 6- 8   0   0   0   0  0.0000 16.9300  0.0000  0.0000  6.0
 AmbTrs  5- 3- 6- 7   0   0   0   0  0.0000 16.9300  0.0000  0.0000  6.0
 AmbTrs  5- 3- 6- 8   0   0   0   0  0.0000 16.9300  0.0000  0.0000  6.0
 NBPair  2- 1 3 1      0      0 -1.000 -1.000
 NBPair  3- 2 3 1      0      0 -1.000 -1.000
 NBPair 10- 3 3 1      0      0 -0.500 -0.167
 NBPair  9- 2 3 1      0      0 -1.000 -1.000
 NBPair 10- 9 3 1      0      0 -0.500 -0.167
 NBPair  3- 1 3 1      0      0 -1.000 -1.000
 NBPair  4- 2 3 1      0      0 -0.500 -0.167
 NBPair  5- 2 3 1      0      0 -0.500 -0.167
 NBPair  6- 2 3 1      0      0 -0.500 -0.167
 NBPair  9- 3 3 1      0      0 -1.000 -1.000
 NBPair  9- 4 3 1      0      0 -0.500 -0.167
 NBPair  9- 5 3 1      0      0 -0.500 -0.167
 NBPair  9- 6 3 1      0      0 -0.500 -0.167
 NBPair  9- 1 3 1      0      0 -1.000 -1.000
 NBPair 10- 1 3 1      0      0 -1.000 -1.000
 NBPair 10- 2 3 1      0      0 -1.000 -1.000
 NBPair  4- 1 3 1      0      0 -1.000 -1.000
 NBPair  5- 1 3 1      0      0 -1.000 -1.000
 NBPair  6- 1 3 1      0      0 -1.000 -1.000
 NBPair  4- 3 3 1      0      0 -1.000 -1.000
 NBPair  5- 4 3 1      0      0 -1.000 -1.000
 NBPair  6- 4 3 1      0      0 -1.000 -1.000
 NBPair  5- 3 3 1      0      0 -1.000 -1.000
 NBPair  6- 5 3 1      0      0 -1.000 -1.000
 NBPair  6- 3 3 1      0      0 -1.000 -1.000
 NBPair  7- 1 3 1      0      0 -0.500 -0.167
 NBPair  8- 1 3 1      0      0 -0.500 -0.167
 NBPair  7- 4 3 1      0      0 -0.500 -0.167
 NBPair  8- 4 3 1      0      0 -0.500 -0.167
 NBPair  7- 5 3 1      0      0 -0.500 -0.167
 NBPair  8- 5 3 1      0      0 -0.500 -0.167
 NBPair  7- 3 3 1      0      0 -1.000 -1.000
 NBPair  8- 3 3 1      0      0 -1.000 -1.000
 NBPair  7- 6 3 1      0      0 -1.000 -1.000
 NBPair  8- 7 3 1      0      0 -1.000 -1.000
 NBPair  8- 6 3 1      0      0 -1.000 -1.000
 Energy per function type:
 Direct Coulomb + vdW (small)                           0.003467511
 Direct Coulomb (large)                                -0.131037751
 Direct vdW (large)                                   269.391708733
 Non-direct Coulomb + vdW (small)                      -0.012778789
 Non-direct Coulomb (large)                             0.137879197
 Non-direct vdW (large)                              -269.391708733
 Harmonic stretch I                                     0.000092811
 Harmonic bend I                                        0.005684688
 Amber torsion                                          0.066752086
 Energy per function class:
        Coulomb              -0.003750973
    Vanderwaals               0.001281140
     Stretching               0.000092811
        Bending               0.005684688
        Torsion               0.066752086
 Energy=    7.005975217E-02 NIter=   0.
 Dipole moment=       0.297656       0.427832       0.182299
 Leave Link  402 at Sun Nov 26 11:20:26 2023, MaxMem=   134217728 cpu:               0.1 elap:               0.2
 (Enter /home/emanuele/chem_software/gaussian//gdv/l716.exe)
 Dipole        = 2.97656436D-01 4.27831518D-01 1.82299361D-01
 -------------------------------------------------------------------
 Center     Atomic                   Forces (Hartrees/Bohr)
 Number     Number              X              Y              Z
 -------------------------------------------------------------------
      1        6          -0.000009541   -0.000029595    0.000009363
      2        8           0.000017140   -0.000036316    0.000054127
      3        6          -0.000050724   -0.000004758    0.000023393
      4        1           0.000011051   -0.000041721   -0.000042747
      5        1          -0.000029382    0.000037602    0.000017368
      6        7           0.000017494   -0.000000934    0.000009545
      7        1           0.000081817   -0.000009913   -0.000060047
      8        1          -0.000088244    0.000080900    0.000049081
      9        8           0.000022525    0.000059971   -0.000057391
     10        1           0.000027866   -0.000055237   -0.000002692
 -------------------------------------------------------------------
 Cartesian Forces:  Max     0.000088244 RMS     0.000042339
 Z-matrix is all fixed cartesians, so copy forces.
 Leave Link  716 at Sun Nov 26 11:20:26 2023, MaxMem=   134217728 cpu:               0.0 elap:               0.0
 (Enter /home/emanuele/chem_software/gaussian//gdv/l103.exe)

 GradGradGradGradGradGradGradGradGradGradGradGradGradGradGradGradGradGrad
 Berny optimization.
 Search for a local minimum.
 Step number   1 out of a maximum of    2
 All quantities printed in internal units (Hartrees-Bohrs-Radians)
 RMS Force = .42339D-04 SwitMx=.10000D-02 MixMth= 2
 Mixed Optimization -- En-DIIS/RFO-DIIS
 Second derivative matrix not updated -- unit matrix used.
 ITU=  0
 RFO step:  Lambda=-5.37779139D-08 EMin= 1.00000000D+00
 Linear search not attempted -- first point.
 Variable       Old X    -DE/DX   Delta X   Delta X   Delta X     New X
                                 (Linear)    (Quad)   (Total)
    X1       -1.10303  -0.00001   0.00000  -0.00001  -0.00001  -1.10304
    Y1       -0.44725  -0.00003   0.00000  -0.00003  -0.00003  -0.44728
    Z1        0.19039   0.00001   0.00000   0.00001   0.00001   0.19040
    X2       -1.71807   0.00002   0.00000   0.00002   0.00002  -1.71805
    Y2        1.91784  -0.00004   0.00000  -0.00004  -0.00004   1.91780
    Z2       -0.53997   0.00005   0.00000   0.00005   0.00005  -0.53991
    X3        1.54467  -0.00005   0.00000  -0.00005  -0.00005   1.54462
    Y3       -1.03818  -0.00000   0.00000  -0.00000  -0.00000  -1.03819
    Z3       -0.75697   0.00002   0.00000   0.00002   0.00002  -0.75695
    X4        1.47236   0.00001   0.00000   0.00001   0.00001   1.47237
    Y4       -2.95228  -0.00004   0.00000  -0.00004  -0.00004  -2.95232
    Z4       -1.55004  -0.00004   0.00000  -0.00004  -0.00004  -1.55008
    X5        1.90150  -0.00003   0.00000  -0.00003  -0.00003   1.90147
    Y5        0.04392   0.00004   0.00000   0.00004   0.00004   0.04396
    Z5       -2.48994   0.00002   0.00000   0.00002   0.00002  -2.48993
    X6        3.48667   0.00002   0.00000   0.00002   0.00002   3.48669
    Y6       -0.77508  -0.00000   0.00000  -0.00000  -0.00000  -0.77508
    Z6        1.18057   0.00001   0.00000   0.00001   0.00001   1.18058
    X7        3.37112   0.00008   0.00000   0.00008   0.00008   3.37120
    Y7        0.99388  -0.00001   0.00000  -0.00001  -0.00001   0.99387
    Z7        1.89647  -0.00006   0.00000  -0.00006  -0.00006   1.89641
    X8        2.93973  -0.00009   0.00000  -0.00009  -0.00009   2.93964
    Y8       -1.78916   0.00008   0.00000   0.00008   0.00008  -1.78908
    Z8        2.70618   0.00005   0.00000   0.00005   0.00005   2.70623
    X9       -2.68463   0.00002   0.00000   0.00002   0.00002  -2.68461
    Y9       -2.07599   0.00006   0.00000   0.00006   0.00006  -2.07593
    Z9        0.11031  -0.00006   0.00000  -0.00006  -0.00006   0.11026
   X10       -3.00819   0.00003   0.00000   0.00003   0.00003  -3.00816
   Y10        2.48725  -0.00006   0.00000  -0.00006  -0.00006   2.48720
   Z10        0.62296  -0.00000   0.00000  -0.00000  -0.00000   0.62296
         Item               Value     Threshold  Converged?
 Maximum Force            0.000088     0.000450     YES
 RMS     Force            0.000042     0.000300     YES
 Maximum Displacement     0.000088     0.001800     YES
 RMS     Displacement     0.000042     0.001200     YES
 Predicted change in Energy=-2.688895D-08
 Optimization completed.
    -- Stationary point found.
 Largest change from initial coordinates is atom   10       0.333 Angstoms.
 GradGradGradGradGradGradGradGradGradGradGradGradGradGradGradGradGradGrad

 Leave Link  103 at Sun Nov 26 11:20:26 2023, MaxMem=   134217728 cpu:               0.0 elap:               0.0
 (Enter /home/emanuele/chem_software/gaussian//gdv/l202.exe)
                          Input orientation:                          
 ---------------------------------------------------------------------
 Center     Atomic      Atomic             Coordinates (Angstroms)
 Number     Number       Type             X           Y           Z
 ---------------------------------------------------------------------
      1          6    20001002       -0.583699   -0.236675    0.100753
      2          8    20001022       -0.909164    1.014877   -0.285738
      3          6    20001001        0.817402   -0.549382   -0.400573
      4          1    20001034        0.779139   -1.562281   -0.820247
      5          1    20001034        1.006232    0.023244   -1.317622
      6          7    20001020        1.845069   -0.410154    0.624729
      7          1    20001029        1.783921    0.525937    1.003570
      8          1    20001029        1.555637   -0.946782    1.432048
      9          8    20001025       -1.420646   -1.098567    0.058376
     10          1    20001031       -1.591866    1.316196    0.329656
 ---------------------------------------------------------------------
                    Distance matrix (angstroms):
                    1          2          3          4          5
     1  C    0.000000
     2  O    1.349698   0.000000
     3  C    1.520591   2.332622   0.000000
     4  H    2.112534   3.126949   1.097066   0.000000
     5  H    2.146445   2.390996   1.097514   1.677153   0.000000
     6  N    2.490695   3.231944   1.458330   2.133438   2.159678
     7  H    2.646182   3.025571   2.015462   2.948991   2.499086
     8  H    2.617892   3.588055   2.015295   2.460613   2.967066
     9  O    1.202138   2.201517   2.349702   2.413724   3.006921
    10  H    1.865531   0.967257   3.133399   3.902508   3.336969
                    6          7          8          9         10
     6  N    0.000000
     7  H    1.011695   0.000000
     8  H    1.011683   1.550681   0.000000
     9  O    3.385198   3.715058   3.281505   0.000000
    10  H    3.857444   3.531941   4.030274   2.435979   0.000000
 Symmetry turned off by external request.
 Stoichiometry    C2H5NO2
 Framework group  C1[X(C2H5NO2)]
 Deg. of freedom    24
 Full point group                 C1      NOp   1
 Rotational constants (GHZ):           9.2703931           3.8879793           3.1257882
 Leave Link  202 at Sun Nov 26 11:20:26 2023, MaxMem=   134217728 cpu:               0.0 elap:               0.0
 (Enter /home/emanuele/chem_software/gaussian//gdv/l9999.exe)
 Unable to Open any file for archive entry.
 1\1\GINC-EMANUELE-XPS-13-9343\FOpt\AMBER\ZDO\C2H5N1O2\EMANUELE\26-Nov-
 2023\0\\#p Amber=(SoftFirst,Print) geom=nocrowd nosymm opt=(maxcycle=3
 00)\\Title\\0,1\C,-0.5836992254,-0.2366750823,0.1007525156\O,-0.909163
 761,1.0148772255,-0.2857380861\C,0.8174023164,-0.5493824798,-0.4005727
 117\H,0.7791393234,-1.5622806088,-0.8202469298\H,1.0062324177,0.023244
 1087,-1.3176220356\N,1.845068706,-0.4101543499,0.6247291721\H,1.783920
 8105,0.5259374901,1.0035699061\H,1.5556365934,-0.9467822155,1.43204761
 71\O,-1.420646275,-1.0985674612,0.0583756547\H,-1.5918659061,1.3161963
 732,0.3296558975\\Version=ES64L-GDVRevJ.14\HF=0.0700598\RMSD=0.000e+00
 \RMSF=4.234e-05\Dipole=0.2976564,0.4278315,0.1822994\PG=C01 [X(C2H5N1O
 2)]\\@
 The archive entry for this job was punched.


 OUR LITTLE SYSTEMS HAVE THEIR DAY,    
   THEY HAVE THEIR DAY AND CEASE TO BE.
   THEY ARE BUT BROKEN LIGHTS OF THEE, 
 AND THOU, OH LORD, ART MORE THAN THEY.
          -------------------          
 LET KNOWLEDGE GROW FROM MORE TO MORE, 
   BUT MORE OF REVERENCE IN US DWELL.  
   THAT MIND AND SOUL, ACCORDING WELL, 
 MAY MAKE ONE MUSIC AS BEFORE.....     
          -------------------          
                    LORD TENNYSON      
 Job cpu time:       0 days  0 hours  0 minutes  0.7 seconds.
 Elapsed time:       0 days  0 hours  0 minutes  0.6 seconds.
 File lengths (MBytes):  RWF=      6 Int=      0 D2E=      0 Chk=      1 Scr=      1
 Normal termination of Gaussian DV at Sun Nov 26 11:20:26 2023.
