 Entering Gaussian System, Link 0=/home/emanuele/chem_software/gaussian//g09/g09
 Input=2_zmat_mm_10.gjf
 Output=2_zmat_mm_10.log
 Initial command:
 /home/emanuele/chem_software/gaussian//gdv/l1.exe "/home/emanuele/chem_software/gaussian/scratch/Gau-6281.inp" -scrdir="/home/emanuele/chem_software/gaussian/scratch/"
 Entering Link 1 = /home/emanuele/chem_software/gaussian//gdv/l1.exe PID=      6283.
  
 Copyright (c) 1988-2020, Gaussian, Inc.  All Rights Reserved.
  
 This is the private, development version of
 the Gaussian(R) DV system of programs. It is based on
 the Gaussian(R) 16 system (copyright 2016, Gaussian, Inc.),
 the Gaussian(R) 09 system (copyright 2009, Gaussian, Inc.),
 the Gaussian(R) 03 system (copyright 2003, Gaussian, Inc.),
 the Gaussian(R) 98 system (copyright 1998, Gaussian, Inc.),
 the Gaussian(R) 94 system (copyright 1995, Gaussian, Inc.),
 the Gaussian 92(TM) system (copyright 1992, Gaussian, Inc.),
 the Gaussian 90(TM) system (copyright 1990, Gaussian, Inc.),
 the Gaussian 88(TM) system (copyright 1988, Gaussian, Inc.),
 the Gaussian 86(TM) system (copyright 1986, Carnegie Mellon
 University), and the Gaussian 82(TM) system (copyright 1983,
 Carnegie Mellon University). Gaussian is a federally registered
 trademark of Gaussian, Inc.
  
 This software contains proprietary and confidential information,
 including trade secrets, belonging to Gaussian, Inc.
  
 This software is provided under written license and may be
 used, copied, transmitted, or stored only in accord with that
 written license.
  
 The following legend is applicable only to US Government
 contracts under FAR:
  
                    RESTRICTED RIGHTS LEGEND
  
 Use, reproduction and disclosure by the US Government is
 subject to restrictions as set forth in subparagraphs (a)
 and (c) of the Commercial Computer Software - Restricted
 Rights clause in FAR 52.227-19.
  
 Gaussian, Inc.
 340 Quinnipiac St., Bldg. 40, Wallingford CT 06492
  
  
 ---------------------------------------------------------------
 Warning -- This program may not be used in any manner that
 competes with the business of Gaussian, Inc. or will provide
 assistance to any competitor of Gaussian, Inc.  The licensee
 of this program is prohibited from giving any competitor of
 Gaussian, Inc. access to this program.  By using this program,
 the user acknowledges that Gaussian, Inc. is engaged in the
 business of creating and licensing software in the field of
 computational chemistry and represents and warrants to the
 licensee that it is not a competitor of Gaussian, Inc. and that
 it will not use this program in any manner prohibited above.
 ---------------------------------------------------------------
  

 Cite this work as:
 Gaussian Development Version, Revision J.14,
 M. J. Frisch, G. W. Trucks, H. B. Schlegel, G. E. Scuseria, 
 M. A. Robb, J. R. Cheeseman, G. Scalmani, V. Barone, 
 G. A. Petersson, H. Nakatsuji, X. Li, A. V. Marenich, M. Caricato, 
 J. Bloino, B. G. Janesko, J. Zheng, R. Gomperts, B. Mennucci, 
 H. P. Hratchian, J. V. Ortiz, A. F. Izmaylov, J. L. Sonnenberg, 
 D. Williams-Young, F. Ding, F. Lipparini, F. Egidi, J. Goings, 
 B. Peng, A. Petrone, T. Henderson, D. Ranasinghe, V. G. Zakrzewski, 
 J. Gao, N. Rega, G. Zheng, W. Liang, M. Hada, M. Ehara, K. Toyota, 
 R. Fukuda, J. Hasegawa, M. Ishida, T. Nakajima, Y. Honda, O. Kitao, 
 H. Nakai, T. Vreven, K. Throssell, J. A. Montgomery, Jr., 
 J. E. Peralta, F. Ogliaro, M. J. Bearpark, J. J. Heyd, 
 E. N. Brothers, K. N. Kudin, V. N. Staroverov, T. A. Keith, 
 R. Kobayashi, J. Normand, K. Raghavachari, A. P. Rendell, 
 J. C. Burant, S. S. Iyengar, J. Tomasi, M. Cossi, J. M. Millam, 
 M. Klene, C. Adamo, R. Cammi, J. W. Ochterski, R. L. Martin, 
 K. Morokuma, O. Farkas, J. B. Foresman, and D. J. Fox, 
 Gaussian, Inc., Wallingford CT, 2020.
 
 ******************************************
 Gaussian DV:  ES64L-GDVRevJ.14 29-Dec-2020
                26-Nov-2023 
 ******************************************
 %mem=1GB
 %nprocshared=1
 Will use up to    1 processors via shared memory.
 %chk=2_zmat_mm_10.chk
 -----------------------------------------------------------------
 #p Amber=(SoftFirst,Print) geom=nocrowd nosymm opt=(maxcycle=300)
 -----------------------------------------------------------------
 1/6=300,10=10,18=4000020,19=15,37=210000000,38=1,56=2,64=203/1,3;
 2/9=110,12=1,15=1,40=1/2;
 3/5=30,11=9,25=1,30=1,41=10030000,43=2,71=1/1;
 4/20=11,22=1001,24=3,119=11/2;
 7/30=1,44=-1/16;
 1/6=300,10=10,18=4000020,19=15,64=203/3(2);
 2/9=110,12=1,15=1/2;
 99//99;
 2/9=110,12=1,15=1/2;
 3/5=30,11=9,25=1,30=1,41=10030000,43=2,71=1/1;
 4/16=2,20=11,22=1001,24=3,119=11/2;
 7/30=1,44=-1/16;
 1/6=300,10=10,18=4000020,19=15,64=203/3(-4);
 2/9=110,12=1,15=1/2;
 99/9=10/99;
 Leave Link    1 at Sun Nov 26 11:20:19 2023, MaxMem=   134217728 cpu:               0.0 elap:               0.0
 (Enter /home/emanuele/chem_software/gaussian//gdv/l101.exe)
 -----
 Title
 -----
 Symbolic Z-matrix:
 Charge =  0 Multiplicity = 1
 C-C-+0.299289        -0.49562   0.09088  -0.23491 
 O-OH--0.289770       -1.47508  -0.54719   0.50051 
 C-CT--0.035454        0.74651  -0.77966  -0.24573 
 H-HC-+0.090426        0.67833  -1.50543   0.60372 
 H-HC-+0.095387        0.75734  -1.40388  -1.17543 
 N-N3--0.336253        1.95179  -0.08164   0.24595 
 H-H-+0.142619         2.20758   0.68507  -0.376 
 H-H-+0.128282         1.79247   0.31746   1.17007 
 O-O2--0.308037       -0.60627   1.27768  -0.42822 
 H-HO-+0.213510       -2.27503   0.02311   0.665 
 
 ITRead=  3  3  3  3  3  3  3  3  3  3
 MicOpt=  0  0  0  0  0  0  0  0  0  0
 NAtoms=     10 NQM=        0 NQMF=       0 NMMI=      0 NMMIF=      0
                NMic=      10 NMicF=      0.
                    Isotopes and Nuclear Properties:
 (Nuclear quadrupole moments (NQMom) in fm**2, nuclear magnetic moments (NMagM)
  in nuclear magnetons)

  Atom         1           2           3           4           5           6           7           8           9          10
 IAtWgt=          12          16          12           1           1          14           1           1          16           1
 AtmWgt=  12.0000000  15.9949146  12.0000000   1.0078250   1.0078250  14.0030740   1.0078250   1.0078250  15.9949146   1.0078250
 NucSpn=           0           0           0           1           1           2           1           1           0           1
 AtZEff=  -0.0000000  -0.0000000  -0.0000000  -0.0000000  -0.0000000  -0.0000000  -0.0000000  -0.0000000  -0.0000000  -0.0000000
 NQMom=    0.0000000   0.0000000   0.0000000   0.0000000   0.0000000   2.0440000   0.0000000   0.0000000   0.0000000   0.0000000
 NMagM=    0.0000000   0.0000000   0.0000000   2.7928460   2.7928460   0.4037610   2.7928460   2.7928460   0.0000000   2.7928460
 AtZNuc=   6.0000000   8.0000000   6.0000000   1.0000000   1.0000000   7.0000000   1.0000000   1.0000000   8.0000000   1.0000000
 Generating MM parameters.
 I=    1 IAn=  6 Valence= 5.
          JB=  1 J=    2 IAn=  8 IBT=12 Dist= 1.38D+00
          JB=  2 J=    3 IAn=  6 IBT= 1 Dist= 1.52D+00
          JB=  3 J=    9 IAn=  8 IBT= 2 Dist= 1.21D+00
 I=    2 IAn=  8 Valence= 3.
          JB=  1 J=    1 IAn=  6 IBT=12 Dist= 1.38D+00
          JB=  2 J=   10 IAn=  1 IBT= 1 Dist= 9.96D-01
 Read MM parameter file:
 Include all MM classes

 MM sanity checks:
 All charges sum to:               -0.00000100
 Charges of atoms sum to:          -0.00000100
 WARNING -- The following centers have non-zero partial charges, but zero Vanderwaals
 parameters.  These centers can collapse onto other centers with non-zero charge.
   Center  Layer   Charge
     10 H    R    0.213510
 MMInit generated parameter data with length LenPar=        2069.
 MM Charge=             -0.0000 electrons
 MM Dipole moment (Debye):
    X=             -0.1166    Y=             -1.3420    Z=              0.1129  Tot=              1.3518
 MM Quadrupole moment (Debye-Ang):
   XX=              1.6220   YY=             -0.6630   ZZ=              1.5366
   XY=              0.7165   XZ=             -0.9911   YZ=              1.5893
 MM Traceless Quadrupole moment (Debye-Ang):
   XX=              0.7901   YY=             -1.4949   ZZ=              0.7048
   XY=              0.7165   XZ=             -0.9911   YZ=              1.5893
 MM Octapole moment (Debye-Ang**2):
  XXX=             -8.2802  YYY=             -5.2849  ZZZ=              0.5052  XYY=              4.1463
  XXY=              3.9390  XXZ=              1.5469  XZZ=              1.7220  YZZ=             -0.9150
  YYZ=              0.3307  XYZ=             -0.7092
 MM Hexadecapole moment (Debye-Ang**3):
 XXXX=             20.1513 YYYY=              0.0370 ZZZZ=              2.1622 XXXY=              4.4094
 XXXZ=             -7.6017 YYYX=              0.1523 YYYZ=              1.9515 ZZZX=              0.6552
 ZZZY=              1.4383 XXYY=              0.8497 XXZZ=              4.7487 YYZZ=              1.1835
 XXYZ=              1.4338 YYXZ=             -0.8424 ZZXY=             -0.2853
 Leave Link  101 at Sun Nov 26 11:20:19 2023, MaxMem=   134217728 cpu:               0.2 elap:               0.2
 (Enter /home/emanuele/chem_software/gaussian//gdv/l103.exe)

 GradGradGradGradGradGradGradGradGradGradGradGradGradGradGradGradGradGrad
 Berny optimization.
 Initialization pass.
 No Z-matrix variables, so optimization will use Cartesian coordinates.
 Trust Radius=1.00D-01 FncErr=1.00D-07 GrdErr=1.00D-07 EigMax=2.50D+02 EigMin=1.00D-04
 Number of steps in this run=      2 maximum allowed number of steps=      2.
 GradGradGradGradGradGradGradGradGradGradGradGradGradGradGradGradGradGrad

 Leave Link  103 at Sun Nov 26 11:20:19 2023, MaxMem=   134217728 cpu:               0.0 elap:               0.0
 (Enter /home/emanuele/chem_software/gaussian//gdv/l202.exe)
                          Input orientation:                          
 ---------------------------------------------------------------------
 Center     Atomic      Atomic             Coordinates (Angstroms)
 Number     Number       Type             X           Y           Z
 ---------------------------------------------------------------------
      1          6    20001002       -0.495618    0.090881   -0.234910
      2          8    20001022       -1.475083   -0.547185    0.500510
      3          6    20001001        0.746510   -0.779658   -0.245728
      4          1    20001034        0.678326   -1.505429    0.603715
      5          1    20001034        0.757339   -1.403881   -1.175431
      6          7    20001020        1.951790   -0.081635    0.245947
      7          1    20001029        2.207584    0.685071   -0.376000
      8          1    20001029        1.792472    0.317459    1.170067
      9          8    20001025       -0.606270    1.277681   -0.428219
     10          1    20001031       -2.275026    0.023109    0.664999
 ---------------------------------------------------------------------
                    Distance matrix (angstroms):
                    1          2          3          4          5
     1  C    0.000000
     2  O    1.381058   0.000000
     3  C    1.516851   2.355078   0.000000
     4  H    2.151660   2.359248   1.119351   0.000000
     5  H    2.165362   2.920002   1.119875   1.783792   0.000000
     6  N    2.500158   3.467708   1.477051   1.943424   2.279334
     7  H    2.771330   3.981050   2.072954   2.845481   2.665712
     8  H    2.694560   3.445698   2.074169   2.210203   3.088021
     9  O    1.207521   2.224300   2.469000   3.234312   3.099763
    10  H    1.995175   0.996093   3.256307   3.326029   3.823444
                    6          7          8          9         10
     6  N    0.000000
     7  H    1.019846   0.000000
     8  H    1.019145   1.642492   0.000000
     9  O    2.974208   2.876054   3.038175   0.000000
    10  H    4.248829   4.649265   4.109291   2.356655   0.000000
 Symmetry turned off by external request.
 Stoichiometry    C2H5NO2
 Framework group  C1[X(C2H5NO2)]
 Deg. of freedom    24
 Full point group                 C1      NOp   1
 Rotational constants (GHZ):           9.1918542           3.9299275           3.0662434
 Leave Link  202 at Sun Nov 26 11:20:19 2023, MaxMem=   134217728 cpu:               0.0 elap:               0.0
 (Enter /home/emanuele/chem_software/gaussian//gdv/l301.exe)
 Standard basis: Dummy (5D, 7F)
    10 basis functions,    10 primitive gaussians,    10 cartesian basis functions
     7 alpha electrons        7 beta electrons
       nuclear repulsion energy        22.6138334806 Hartrees.
 IExCor=       0 DFT=F Ex=HF Corr=None N6=None ScaHFX=  1.000000
 ScaDFX=  1.000000  1.000000  1.000000  1.000000  1.000000  0.000000
 ScaDFX=  0.000000  0.000000  0.000000  0.000000  0.000000  0.000000
 IRadAn=      5 IRanWt=     -1 IRanGd=            0 ICorTp=0 IEmpDi=  4
 NAtoms=   10 NActive=   10 NUniq=   10 SFac= 1.00D+00 NAtFMM=   60 NAOKFM=F Big=F
 Integral buffers will be    131072 words long.
 Raffenetti 1 integral format.
 Two-electron integral symmetry is turned off.
 Leave Link  301 at Sun Nov 26 11:20:19 2023, MaxMem=   134217728 cpu:               0.1 elap:               0.0
 (Enter /home/emanuele/chem_software/gaussian//gdv/l402.exe)
 AMBER calculation of energy and first derivatives.
 NRF= 0 NRA=   0 NVA=  10 HaveQM=F NVQ=       0
 Convergence limit is  0.750E-04 MaxStp= 10000 StMxLn= 3.00D-04 StpMin= 1.00D-06.
 Convergence criteria             0.00011250 0.00007500 0.00045000 0.00030000
  Step  NS  ND Rises OKQ   Scale  Max. Force  RMS Force Max. Disp.  RMS Disp.     Energy   Flag
     1   0   0   F    T  1.00D+00 0.04344354 0.01395645 0.04344354 0.01395645    0.0970944 ----
     2   0   0   F    F  7.30D-01 0.04344354 0.01395645 0.03173196 0.01019405    0.0929513 ----
     3   0   0   F    T  2.23D+00 0.01907684 0.00909145 0.05164097 0.02415050    0.0920581 ----
     4   0   0   F    F  7.17D-01 0.01907684 0.00909145 0.03701288 0.01730951    0.0881477 ----
     5   0   0   F    T  3.00D+00 0.02369028 0.00885569 0.10322748 0.04146001    0.0873243 ----
     6   0   0   F    F -4.24D-01 0.02369028 0.00885569 0.04381221 0.01759662    0.0864471 ----
     7   0   0   F    T  1.66D+00 0.02845430 0.00831564 0.05477361 0.02386339    0.0852671 ----
     8   0   0   F    F -7.40D-02 0.02845430 0.00831564 0.00405120 0.00176500    0.0836776 ----
     9   0   0   F    T  1.33D+00 0.01966395 0.00852143 0.05048573 0.02209839    0.0836673 ----
    10   0   0   F    F  1.51D+00 0.01966395 0.00852143 0.07638500 0.03343490    0.0813626 ----
    11   0   0   F    F -6.68D-02 0.01966395 0.00852143 0.00510298 0.00223365    0.0801395 ----
    12   0   0   F    T  3.09D+00 0.01542425 0.00842193 0.12916969 0.05329964    0.0801330 ----
    13   0   0   F    F -3.60D-01 0.01542425 0.00842193 0.04651964 0.01919552    0.0787316 ----
    14   0   0   F    T  3.86D+00 0.01560254 0.00610662 0.07748341 0.03410412    0.0779263 ----
    15   0   0   F    F -4.52D-01 0.01560254 0.00610662 0.03501673 0.01541252    0.0775110 ----
    16   0   0   F    T  1.43D+00 0.02414916 0.00687408 0.04567178 0.01869159    0.0767593 ----
    17   0   0   F    F  4.43D-02 0.02414916 0.00687408 0.00202292 0.00082790    0.0756866 ----
    18   0   0   F    T  1.97D+00 0.01543550 0.00540848 0.04934890 0.01951949    0.0756847 ----
    19   0   0   F    F -2.37D-02 0.01543550 0.00540848 0.00117203 0.00046359    0.0748309 ----
    20   0   0   F    T  2.83D+00 0.00956811 0.00417561 0.04359189 0.01905591    0.0748304 ----
    21   0   0   F    T  4.18D+00 0.00728707 0.00300992 0.03896309 0.01905591    0.0740934 ----
    22   0   0   T    F  4.31D-01 0.00728707 0.00300992 0.01680290 0.00821789    0.0742708 ----
    23   0   0   F    T  1.56D+00 0.00965963 0.00294020 0.01402787 0.00821789    0.0738487 ----
    24   0   0   F    F -5.74D-02 0.00965963 0.00294020 0.00080454 0.00047132    0.0736588 ----
    25   0   0   F    T  1.78D+00 0.00593900 0.00242748 0.01642217 0.00774657    0.0736581 ----
    26   0   0   F    F  1.42D-01 0.00593900 0.00242748 0.00233556 0.00110172    0.0734802 ----
    27   0   0   F    T  5.84D+00 0.00301213 0.00115954 0.02238984 0.00884829    0.0734774 ----
    28   0   0   T    F  4.54D-01 0.00301213 0.00115954 0.01017558 0.00402131    0.0735008 ----
    29   0   0   F    T  1.91D+00 0.00292496 0.00123103 0.01039728 0.00402131    0.0734239 ----
    30   0   0   F    F  7.32D-01 0.00292496 0.00123103 0.00761217 0.00294413    0.0733620 ----
    31   0   0   F    T  1.47D+00 0.00716551 0.00178025 0.01754444 0.00696544    0.0733485 ----
    32   0   0   F    F -1.63D-01 0.00716551 0.00178025 0.00285776 0.00113458    0.0732923 ----
    33   0   0   F    T  2.83D+00 0.00264195 0.00108798 0.01323929 0.00583086    0.0732901 ----
    34   0   0   F    F -8.55D-02 0.00264195 0.00108798 0.00113138 0.00049828    0.0732447 ----
    35   0   0   F    T  2.48D+00 0.00261022 0.00103803 0.01176661 0.00533258    0.0732443 ----
    36   0   0   F    F  4.97D-01 0.00261022 0.00103803 0.00584843 0.00265048    0.0731908 ----
    37   0   0   F    T  2.94D+00 0.00241685 0.00111378 0.01856301 0.00798306    0.0731842 ----
    38   0   0   F    F  6.45D-02 0.00241685 0.00111378 0.00119715 0.00051484    0.0731261 ----
    39   0   0   F    T  1.35D+00 0.00499090 0.00166218 0.02036985 0.00849789    0.0731259 ----
    40   0   0   F    F  1.78D-01 0.00499090 0.00166218 0.00363223 0.00151529    0.0730611 ----
    41   0   0   F    T  2.15D+00 0.00344497 0.00141675 0.02420794 0.01001319    0.0730595 ----
    42   0   0   F    F  1.11D-01 0.00344497 0.00141675 0.00268327 0.00110989    0.0729884 ----
    43   0   0   F    T  2.07D+00 0.00354413 0.00150044 0.02600293 0.01112308    0.0729876 ----
    44   0   0   F    F  2.85D+00 0.00354413 0.00150044 0.07403870 0.03167097    0.0728660 ----
    45   0   0   F    F -2.11D-02 0.00354413 0.00150044 0.00156192 0.00066813    0.0727201 ----
    46   0   0   F    T  3.16D+00 0.00543350 0.00235365 0.09366461 0.04212591    0.0727200 ----
    47   0   0   F    F -2.02D-01 0.00543350 0.00235365 0.01896020 0.00852740    0.0725222 ----
    48   0   0   F    T  1.80D+00 0.00695914 0.00284839 0.08068492 0.03359851    0.0725083 ----
    49   0   0   F    F  2.43D-02 0.00695914 0.00284839 0.00196382 0.00081777    0.0722730 ----
    50   0   0   F    T  1.21D+00 0.00963527 0.00366488 0.08224439 0.03441628    0.0722728 ----
    51   0   0   F    F  1.72D+00 0.00963527 0.00366488 0.14176746 0.05932451    0.0718696 ----
    52   0   0   F    F -1.40D-01 0.00963527 0.00366488 0.01985716 0.00830950    0.0716280 ----
    53   0   0   F    F -1.71D-02 0.00963527 0.00366488 0.00033987 0.00014222    0.0716206 --++
    54   0   0   F    T  6.09D+00 0.01065980 0.00395222 0.17959751 0.08557351    0.0716206 ----
    55   0   0   T    F  3.16D-01 0.01065980 0.00395222 0.05683300 0.02707944    0.0729939 ----
    56   0   0   F    T  1.23D+00 0.01963551 0.00474526 0.05927374 0.02707944    0.0711792 ----
    57   0   0   F    F  8.69D-01 0.01963551 0.00474526 0.05149143 0.02352406    0.0705728 ----
    58   0   0   F    F -1.54D-02 0.01963551 0.00474526 0.00079476 0.00036309    0.0704091 ----
    59   0   0   F    T  1.33D+00 0.01485195 0.00596050 0.09987681 0.05024040    0.0704091 ----
    60   0   0   F    F  7.72D-01 0.01485195 0.00596050 0.07710088 0.03878357    0.0693086 ----
    61   0   0   F    F -4.30D-02 0.01485195 0.00596050 0.00331482 0.00166743    0.0690228 ----
    62   0   0   F    T  4.56D+00 0.01040352 0.00508289 0.18357889 0.08735654    0.0690221 ----
    63   0   0   T    F  4.41D-01 0.01040352 0.00508289 0.08100883 0.03854828    0.0693469 ----
    64   0   0   F    T  1.38D+00 0.01936770 0.00607749 0.08243581 0.03854828    0.0682653 ----
    65   0   0   F    F  7.81D-02 0.01936770 0.00607749 0.00643737 0.00301021    0.0674493 ----
    66   0   0   F    T  1.83D+00 0.01343884 0.00496596 0.08561828 0.04155850    0.0674450 ----
    67   0   0   F    F  7.07D-01 0.01343884 0.00496596 0.06054975 0.02939041    0.0664892 ----
    68   0   0   F    F -5.68D-02 0.01343884 0.00496596 0.00343789 0.00166873    0.0663008 ----
    69   0   0   F    T  3.32D+00 0.00985006 0.00484919 0.16141343 0.06928018    0.0663001 ----
    70   0   0   F    F -4.44D-01 0.00985006 0.00484919 0.07159428 0.03072895    0.0660461 ----
    71   0   0   F    T  1.24D+00 0.01469188 0.00577010 0.07642058 0.03855123    0.0656587 ----
    72   0   0   F    F  1.55D-01 0.01469188 0.00577010 0.01184126 0.00597346    0.0649202 ----
    73   0   0   F    T  2.71D+00 0.01326038 0.00447770 0.09305901 0.04452469    0.0649055 ----
    74   0   0   F    F -4.14D-02 0.01326038 0.00447770 0.00385643 0.00184513    0.0641110 ----
    75   0   0   F    T  1.94D+00 0.01264759 0.00544265 0.09125513 0.04267956    0.0641094 ----
    76   0   0   F    F  6.99D-01 0.01264759 0.00544265 0.06376536 0.02982274    0.0628977 ----
    77   0   0   F    F -7.26D-02 0.01264759 0.00544265 0.00462767 0.00216434    0.0626673 ----
    78   0   0   F    T  1.00D+00 0.02945055 0.00997006 0.15810545 0.07207539    0.0626658 ----
    79   0   0   F    F  5.61D-02 0.02945055 0.00997006 0.00886629 0.00404187    0.0608567 ----
    80   0   0   F    T  3.30D+00 0.02601986 0.00879650 0.17999910 0.07611725    0.0608502 ----
    81   0   0   T    F  4.72D-01 0.02601986 0.00879650 0.08504957 0.03596540    0.0611082 ----
    82   0   0   F    T  1.77D+00 0.02105488 0.00786010 0.08653143 0.03596540    0.0590757 ----
    83   0   0   F    F -1.99D-01 0.02105488 0.00786010 0.01720419 0.00715064    0.0578653 ----
    84   0   0   F    T  1.36D+00 0.01539446 0.00728361 0.06587708 0.02881475    0.0577904 ----
    85   0   0   F    F  5.55D-01 0.01539446 0.00728361 0.03653067 0.01597858    0.0562656 ----
    86   0   0   F    T  2.48D+00 0.02361239 0.00642041 0.11139206 0.04479334    0.0560301 ----
    87   0   0   F    F -3.51D-01 0.02361239 0.00642041 0.03908974 0.01571889    0.0553290 ----
    88   0   0   F    T  1.49D+00 0.01716340 0.00674201 0.07149016 0.02907444    0.0550371 ----
    89   0   0   F    F -1.84D-01 0.01716340 0.00674201 0.01316468 0.00535396    0.0542588 ----
    90   0   0   F    T  2.12D+00 0.01154007 0.00469357 0.05337326 0.02372048    0.0542182 ----
    91   0   0   F    F  1.47D-01 0.01154007 0.00469357 0.00782996 0.00347984    0.0534141 ----
    92   0   0   F    T  2.55D+00 0.01047559 0.00437700 0.06485406 0.02720032    0.0534003 ----
    93   0   0   T    F  4.94D-01 0.01047559 0.00437700 0.03201308 0.01342655    0.0534273 ----
    94   0   0   F    T  1.34D+00 0.01317085 0.00414648 0.03335690 0.01342655    0.0530371 ----
    95   0   0   F    F  4.95D-01 0.01317085 0.00414648 0.01651473 0.00664737    0.0525854 ----
    96   0   0   F    T  1.67D+00 0.01041571 0.00435338 0.05087113 0.02007392    0.0525313 ----
    97   0   0   F    F  7.15D-01 0.01041571 0.00435338 0.03636632 0.01435027    0.0518546 ----
    98   0   0   F    F -1.46D-02 0.01041571 0.00435338 0.00052925 0.00020884    0.0517117 ---+
    99   0   0   F    T  2.86D+00 0.00855506 0.00403054 0.08417062 0.03421534    0.0517117 ----
   100   0   0   T    F  3.65D-01 0.00855506 0.00403054 0.03072370 0.01248918    0.0522468 ----
   101   0   0   F    T  1.66D+00 0.00841087 0.00314300 0.02906249 0.01248918    0.0514569 ----
   102   0   0   F    F -3.18D-02 0.00841087 0.00314300 0.00092363 0.00039692    0.0512221 ----
   103   0   0   F    T  2.38D+00 0.00518816 0.00238040 0.03045827 0.01209226    0.0512218 ----
   104   0   0   F    F  1.46D-01 0.00518816 0.00238040 0.00444853 0.00176611    0.0509933 ----
   105   0   0   F    T  1.65D+00 0.00739925 0.00293504 0.03215099 0.01385838    0.0509895 ----
   106   0   0   F    F -3.45D-01 0.00739925 0.00293504 0.01108610 0.00477856    0.0508889 ----
   107   0   0   F    T  1.96D+00 0.00444708 0.00208851 0.02244739 0.00907982    0.0508499 ----
   108   0   0   F    F -1.02D-01 0.00444708 0.00208851 0.00229266 0.00092737    0.0507361 ----
   109   0   0   F    T  2.65D+00 0.00461618 0.00159117 0.02141477 0.00815245    0.0507346 ----
   110   0   0   F    F -3.22D-01 0.00461618 0.00159117 0.00690243 0.00262771    0.0506819 ----
   111   0   0   F    T  1.14D+00 0.00488150 0.00191466 0.01469818 0.00552475    0.0506665 ----
   112   0   0   F    F  7.63D-01 0.00488150 0.00191466 0.01121773 0.00421652    0.0505769 ----
   113   0   0   F    T  1.35D+00 0.00587211 0.00226325 0.02546643 0.00974126    0.0505564 ----
   114   0   0   F    F  6.75D-01 0.00587211 0.00226325 0.01719589 0.00657767    0.0504113 ----
   115   0   0   F    T  3.38D+00 0.00307540 0.00172432 0.03908996 0.01631893    0.0503834 ----
   116   0   0   T    F  4.37D-01 0.00307540 0.00172432 0.01706602 0.00712457    0.0504267 ----
   117   0   0   F    T  1.16D+00 0.00531616 0.00188780 0.01592263 0.00712457    0.0503178 ----
   118   0   0   F    F  4.92D-01 0.00531616 0.00188780 0.00783354 0.00350511    0.0502353 ----
   119   0   0   F    T  2.23D+00 0.00354547 0.00160222 0.02377269 0.01062968    0.0502252 ----
   120   0   0   F    F -1.91D-02 0.00354547 0.00160222 0.00045347 0.00020276    0.0501406 ---+
   121   0   0   F    T  1.98D+00 0.00435858 0.00164943 0.02572250 0.01042691    0.0501405 ----
   122   0   0   F    F -3.64D-01 0.00435858 0.00164943 0.00935878 0.00379369    0.0501059 ----
   123   0   0   F    T  1.29D+00 0.00453148 0.00160148 0.01765171 0.00663323    0.0500890 ----
   124   0   0   F    F  1.05D+00 0.00453148 0.00160148 0.01858546 0.00698411    0.0500143 ----
   125   0   0   F    T  1.72D+00 0.00487517 0.00194263 0.03697136 0.01361734    0.0499878 ----
   126   0   0   F    F  8.48D-01 0.00487517 0.00194263 0.03136519 0.01155246    0.0498424 ----
   127   0   0   F    F -1.40D-02 0.00487517 0.00194263 0.00043973 0.00016196    0.0498023 --++
   128   0   0   F    T  1.21D+00 0.01059582 0.00316191 0.06688803 0.02500784    0.0498023 ----
   129   0   0   F    F -8.31D-02 0.01059582 0.00316191 0.00555932 0.00207850    0.0496327 ----
   130   0   0   F    T  3.50D+00 0.00615219 0.00217021 0.05475277 0.02292934    0.0496312 ----
   131   0   0   F    F -4.88D-01 0.00615219 0.00217021 0.02671334 0.01118700    0.0496187 ----
   132   0   0   F    T  1.80D+00 0.00419153 0.00210760 0.03254634 0.01174234    0.0495050 ----
   133   0   0   F    F  4.32D-01 0.00419153 0.00210760 0.01405975 0.00507259    0.0493475 ----
   134   0   0   F    T  1.00D+00 0.00856494 0.00340914 0.04193309 0.01726148    0.0493315 ----
   135   0   0   F    F  1.06D+00 0.00856494 0.00340914 0.04437146 0.01826522    0.0490710 ----
   136   0   0   F    F -4.64D-02 0.00856494 0.00340914 0.00205745 0.00084694    0.0489827 ----
   137   0   0   F    T  4.45D+00 0.00561305 0.00247660 0.07708954 0.03467976    0.0489825 ----
   138   0   0   T    F  3.21D-01 0.00561305 0.00247660 0.02475528 0.01113649    0.0494350 ----
   139   0   0   F    T  2.37D+00 0.00364757 0.00183543 0.03133273 0.01113649    0.0488512 ----
   140   0   0   F    F -3.06D-01 0.00364757 0.00183543 0.00959771 0.00341128    0.0487844 ----
   141   0   0   F    T  1.03D+00 0.00581493 0.00226572 0.01856330 0.00772521    0.0487679 ----
   142   0   0   F    F  1.95D+00 0.00581493 0.00226572 0.03617220 0.01505324    0.0486357 ----
   143   0   0   F    T  3.73D+00 0.00558245 0.00206630 0.04984984 0.02277845    0.0485336 ----
   144   0   0   T    F  4.20D-01 0.00558245 0.00206630 0.02095764 0.00957641    0.0486194 ----
   145   0   0   F    T  1.91D+00 0.00462196 0.00179896 0.02670375 0.00957641    0.0484339 ----
   146   0   0   F    F -3.10D-01 0.00462196 0.00179896 0.00829011 0.00297297    0.0483829 ----
   147   0   0   F    T  1.55D+00 0.00393516 0.00159410 0.01505132 0.00660344    0.0483698 ----
   148   0   0   F    F  5.61D-01 0.00393516 0.00159410 0.00843704 0.00370157    0.0482897 ----
   149   0   0   F    T  2.30D+00 0.00450004 0.00158827 0.02494028 0.01030501    0.0482778 ----
   150   0   0   F    F  8.56D-02 0.00450004 0.00158827 0.00213490 0.00088211    0.0481850 ----
   151   0   0   F    T  1.59D+00 0.00497127 0.00192999 0.02980830 0.01118712    0.0481845 ----
   152   0   0   F    F -6.29D-02 0.00497127 0.00192999 0.00187517 0.00070375    0.0481007 ----
   153   0   0   F    T  1.26D+00 0.00598219 0.00207021 0.02480361 0.01048337    0.0481003 ----
   154   0   0   F    F  1.42D+00 0.00598219 0.00207021 0.03516975 0.01486467    0.0479717 ----
   155   0   0   F    F -1.36D-02 0.00598219 0.00207021 0.00047920 0.00020254    0.0479042 ---+
   156   0   0   F    T  2.93D+00 0.00572238 0.00221123 0.06056221 0.02514550    0.0479042 ----
   157   0   0   T    F  4.45D-01 0.00572238 0.00221123 0.02692702 0.01118013    0.0479514 ----
   158   0   0   F    T  1.92D+00 0.00435311 0.00173657 0.02928892 0.01118013    0.0478097 ----
   159   0   0   F    F -3.25D-01 0.00435311 0.00173657 0.00952376 0.00363540    0.0477645 ----
   160   0   0   F    T  1.73D+00 0.00414116 0.00146551 0.01724490 0.00754473    0.0477507 ----
   161   0   0   F    F  6.51D-01 0.00414116 0.00146551 0.01122382 0.00491048    0.0476730 ----
   162   0   0   F    T  3.33D+00 0.00362681 0.00132375 0.02612106 0.01245521    0.0476587 ----
   163   0   0   T    F  3.57D-01 0.00362681 0.00132375 0.00931518 0.00444172    0.0477287 ----
   164   0   0   F    T  1.46D+00 0.00320268 0.00114486 0.00904338 0.00444172    0.0476275 ----
   165   0   0   F    F  1.85D-01 0.00320268 0.00114486 0.00167434 0.00082237    0.0475944 ----
   166   0   0   F    T  1.79D+00 0.00299513 0.00108341 0.01034906 0.00526409    0.0475936 ----
   167   0   0   F    F  1.21D+00 0.00299513 0.00108341 0.01256542 0.00639145    0.0475449 ----
   168   0   0   F    T  1.95D+00 0.00434182 0.00151765 0.02363346 0.01165554    0.0475241 ----
   169   0   0   F    F -4.57D-01 0.00434182 0.00151765 0.01080273 0.00532768    0.0475135 ----
   170   0   0   F    T  1.94D+00 0.00281447 0.00108725 0.01317904 0.00632785    0.0474876 ----
   171   0   0   F    F -5.23D-02 0.00281447 0.00108725 0.00068931 0.00033097    0.0474549 ----
   172   0   0   F    T  1.93D+00 0.00305832 0.00103672 0.01261789 0.00599689    0.0474548 ----
   173   0   0   F    F  7.53D-01 0.00305832 0.00103672 0.00950140 0.00451572    0.0474103 ----
   174   0   0   F    T  1.69D+00 0.00415339 0.00145786 0.02205675 0.01051260    0.0474003 ----
   175   0   0   F    F -4.01D-01 0.00415339 0.00145786 0.00884839 0.00421729    0.0473823 ----
   176   0   0   F    T  2.52D+00 0.00211410 0.00087406 0.01257477 0.00629532    0.0473681 ----
   177   0   0   F    F -1.71D-01 0.00211410 0.00087406 0.00214858 0.00107565    0.0473451 ----
   178   0   0   F    T  2.03D+00 0.00217553 0.00085876 0.01241066 0.00521967    0.0473441 ----
   179   0   0   F    F  7.11D-01 0.00217553 0.00085876 0.00882807 0.00371291    0.0473123 ----
   180   0   0   F    T  1.06D+00 0.00460251 0.00154852 0.02181550 0.00893258    0.0473057 ----
   181   0   0   F    F  5.94D-01 0.00460251 0.00154852 0.01296876 0.00531019    0.0472541 ----
   182   0   0   F    T  2.39D+00 0.00304531 0.00123542 0.03405337 0.01424276    0.0472460 ----
   183   0   0   F    F -4.21D-01 0.00304531 0.00123542 0.01431964 0.00598917    0.0472312 ----
   184   0   0   F    T  5.62D+00 0.00159348 0.00058509 0.01772551 0.00825360    0.0472142 ----
   185   0   0   T    F  3.45D-01 0.00159348 0.00058509 0.00611564 0.00284765    0.0472401 ----
   186   0   0   F    T  1.00D+00 0.00215732 0.00080420 0.00644858 0.00288604    0.0472042 ----
   187   0   0   F    F  1.40D+00 0.00215732 0.00080420 0.00904755 0.00404920    0.0471889 ----
   188   0   0   F    T  1.59D+00 0.00263819 0.00097276 0.01608398 0.00693524    0.0471810 ----
   189   0   0   F    F  6.05D-01 0.00263819 0.00097276 0.00973824 0.00419902    0.0471500 ----
   190   0   0   F    T  3.34D+00 0.00194526 0.00082248 0.02381016 0.01113426    0.0471449 ----
   191   0   0   T    F  3.82D-01 0.00194526 0.00082248 0.00910365 0.00425711    0.0471659 ----
   192   0   0   F    T  1.91D+00 0.00141578 0.00065710 0.00877384 0.00425711    0.0471319 ----
   193   0   0   F    F -3.53D-01 0.00141578 0.00065710 0.00309719 0.00150277    0.0471263 ----
   194   0   0   F    T  2.12D+00 0.00121216 0.00048530 0.00611873 0.00275434    0.0471239 ----
   195   0   0   F    F  1.56D-01 0.00121216 0.00048530 0.00095271 0.00042886    0.0471154 ----
   196   0   0   F    T  3.29D+00 0.00084513 0.00039950 0.00768141 0.00318320    0.0471152 ----
   197   0   0   T    F  3.79D-01 0.00084513 0.00039950 0.00290852 0.00120530    0.0471203 ----
   198   0   0   F    T  1.41D+00 0.00112389 0.00035804 0.00310031 0.00120530    0.0471123 ----
   199   0   0   F    F  2.96D-01 0.00112389 0.00035804 0.00091796 0.00035687    0.0471089 ----
   200   0   0   F    T  1.61D+00 0.00094081 0.00036792 0.00430170 0.00156217    0.0471087 ----
   201   0   0   F    F  8.58D-01 0.00094081 0.00036792 0.00368920 0.00133974    0.0471040 ----
   202   0   0   F    T  3.64D+00 0.00078741 0.00031724 0.00640337 0.00290191    0.0471027 ----
   203   0   0   T    F  2.66D-01 0.00078741 0.00031724 0.00170079 0.00077077    0.0471124 ----
   204   0   0   F    T  1.66D+00 0.00059915 0.00022661 0.00196598 0.00077077    0.0471012 ----
   205   0   0   F    F  1.54D-01 0.00059915 0.00022661 0.00030349 0.00011899    0.0470998 --++
   206   0   0   F    T  1.82D+00 0.00052212 0.00021966 0.00206293 0.00088976    0.0470998 ----
   207   0   0   F    F  3.53D-01 0.00052212 0.00021966 0.00072735 0.00031371    0.0470981 ----
   208   0   0   F    T  2.66D+00 0.00061307 0.00020062 0.00307891 0.00120347    0.0470980 ----
   209   0   0   T    F  4.72D-01 0.00061307 0.00020062 0.00145325 0.00056804    0.0470982 ----
   210   0   0   F    T  1.06D+00 0.00048280 0.00020896 0.00156613 0.00056804    0.0470972 ----
   211   0   0   F    F  3.49D+00 0.00048280 0.00020896 0.00545867 0.00197987    0.0470960 ----
   212   0   0   F    T  1.68D+00 0.00097097 0.00034823 0.00777772 0.00254791    0.0470941 ----
   213   0   0   F    F  3.15D-01 0.00097097 0.00034823 0.00245114 0.00080297    0.0470903 ----
   214   0   0   F    T  2.51D+00 0.00092410 0.00032065 0.00991086 0.00335088    0.0470901 ----
   215   0   0   T    F  3.97D-01 0.00092410 0.00032065 0.00393868 0.00133168    0.0470921 ----
   216   0   0   F    T  1.87D+00 0.00044377 0.00022641 0.00342304 0.00133168    0.0470886 ----
   217   0   0   F    F  3.99D-01 0.00044377 0.00022641 0.00136667 0.00053168    0.0470867 ----
   218   0   0   F    T  2.05D+00 0.00071928 0.00025172 0.00479605 0.00186336    0.0470865 ----
   219   0   0   F    F  1.50D-01 0.00071928 0.00025172 0.00071922 0.00027943    0.0470844 ---+
   220   0   0   F    T  2.01D+00 0.00081764 0.00026683 0.00587849 0.00214279    0.0470843 ----
   221   0   0   T    F  4.48D-01 0.00081764 0.00026683 0.00263433 0.00096025    0.0470848 ----
   222   0   0   F    T  3.18D+00 0.00025738 0.00013513 0.00207657 0.00096025    0.0470834 ----
   223   0   0   F    F -4.04D-01 0.00025738 0.00013513 0.00083799 0.00038750    0.0470831 ----
   224   0   0   F    T  2.07D+00 0.00030454 0.00012257 0.00127995 0.00057275    0.0470828 ----
   225   0   0   F    F  3.30D-01 0.00030454 0.00012257 0.00042284 0.00018921    0.0470823 --++
   226   0   0   F    T  1.09D+00 0.00059312 0.00019121 0.00158737 0.00076196    0.0470822 ----
   227   0   0   F    F  4.78D-01 0.00059312 0.00019121 0.00075839 0.00036404    0.0470814 ----
   228   0   0   F    T  2.37D+00 0.00041396 0.00015360 0.00219569 0.00112599    0.0470813 ----
   229   0   0   F    F -3.31D-01 0.00041396 0.00015360 0.00072742 0.00037303    0.0470809 ----
   230   0   0   F    T  3.10D+00 0.00023836 0.00010425 0.00163624 0.00075296    0.0470808 ----
   231   0   0   F    T  1.00D+00 0.00068818 0.00020971 0.00235779 0.00102368    0.0470803 ----
   232   0   0   F    F  1.33D+00 0.00068818 0.00020971 0.00312722 0.00135774    0.0470794 ----
   233   0   0   F    T  3.32D+00 0.00075212 0.00021883 0.00568826 0.00238141    0.0470789 ----
   234   0   0   T    F  3.66D-01 0.00075212 0.00021883 0.00208011 0.00087085    0.0470807 ----
   235   0   0   F    T  1.98D+00 0.00042364 0.00016210 0.00207395 0.00087085    0.0470781 ----
   236   0   0   F    F -2.93D-01 0.00042364 0.00016210 0.00060754 0.00025510    0.0470776 ---+
   237   0   0   F    T  1.26D+00 0.00051754 0.00016552 0.00142545 0.00061574    0.0470775 ----
   238   0   0   F    F  1.56D+00 0.00051754 0.00016552 0.00222451 0.00096091    0.0470767 ----
   239   0   0   F    T  2.12D+00 0.00047257 0.00019957 0.00370050 0.00157665    0.0470762 ----
   240   0   0   F    F -1.64D-01 0.00047257 0.00019957 0.00060597 0.00025818    0.0470752 ---+
   241   0   0   F    T  1.35D+00 0.00061918 0.00022582 0.00317053 0.00131847    0.0470751 ----
   242   0   0   F    T  2.21D+00 0.00036016 0.00016375 0.00333239 0.00131847    0.0470742 ----
   243   0   0   F    F  5.50D-01 0.00036016 0.00016375 0.00183239 0.00072499    0.0470730 ----
   244   0   0   F    T  1.53D+00 0.00069831 0.00025291 0.00518242 0.00204345    0.0470729 ----
   245   0   0   F    T  1.41D+00 0.00063395 0.00024648 0.00507916 0.00204345    0.0470715 ----
   246   0   0   F    T  3.67D+00 0.00046643 0.00017296 0.00427255 0.00204345    0.0470703 ----
   247   0   0   F    F -4.52D-01 0.00046643 0.00017296 0.00193291 0.00092446    0.0470700 ----
   248   0   0   F    T  1.06D+00 0.00069500 0.00023204 0.00212180 0.00111899    0.0470694 ----
   249   0   0   F    F  6.93D-01 0.00069500 0.00023204 0.00147023 0.00077537    0.0470682 ----
   250   0   0   F    T  1.77D+00 0.00063025 0.00023395 0.00383700 0.00189436    0.0470679 ----
   251   0   0   F    T  2.89D+00 0.00038635 0.00017087 0.00394230 0.00189436    0.0470665 ----
   252   0   0   T    F  4.39D-01 0.00038635 0.00017087 0.00173136 0.00083195    0.0470669 ----
   253   0   0   F    T  1.45D+00 0.00046326 0.00016554 0.00185771 0.00083195    0.0470660 ----
   254   0   0   F    T  2.51D+00 0.00034677 0.00011900 0.00172962 0.00083195    0.0470654 ----
   255   0   0   F    T  2.10D+00 0.00032641 0.00012806 0.00196254 0.00083195    0.0470648 ----
   256   0   0   F    F -3.72D-01 0.00032641 0.00012806 0.00072955 0.00030927    0.0470645 ----
   257   0   0   F    T  1.14D+00 0.00029087 0.00012452 0.00143987 0.00052268    0.0470644 ----
   258   0   0   F    F  1.43D+00 0.00029087 0.00012452 0.00206438 0.00074939    0.0470640 ----
   259   0   0   F    T  1.72D+00 0.00048582 0.00017278 0.00359452 0.00127207    0.0470638 ----
   260   0   0   F    F  9.64D-02 0.00048582 0.00017278 0.00034665 0.00012268    0.0470629 --++
   261   0   0   F    T  1.30D+00 0.00061530 0.00020606 0.00407455 0.00139475    0.0470629 ----
   262   0   0   F    T  2.02D+00 0.00033794 0.00017037 0.00430820 0.00139475    0.0470620 ----
   263   0   0   F    F  5.43D-01 0.00033794 0.00017037 0.00233945 0.00075738    0.0470608 ----
   264   0   0   F    T  1.43D+00 0.00059782 0.00024124 0.00630798 0.00215213    0.0470606 ----
   265   0   0   F    F  1.34D-01 0.00059782 0.00024124 0.00084318 0.00028767    0.0470592 ---+
   266   0   0   F    T  1.37D+00 0.00065028 0.00026368 0.00675698 0.00243980    0.0470592 ----
   267   0   0   F    T  3.57D+00 0.00053593 0.00017253 0.00653725 0.00243980    0.0470578 ----
   268   0   0   F    F -4.79D-01 0.00053593 0.00017253 0.00313040 0.00116832    0.0470576 ----
   269   0   0   F    T  1.21D+00 0.00073983 0.00021100 0.00328755 0.00127149    0.0470569 ----
   270   0   0   F    F  1.30D-01 0.00073983 0.00021100 0.00042612 0.00016481    0.0470560 --++
   271   0   0   F    T  2.33D+00 0.00044148 0.00015871 0.00314496 0.00143629    0.0470560 ----
   272   0   0   F    F -2.38D-01 0.00044148 0.00015871 0.00074967 0.00034237    0.0470554 ----
   273   0   0   F    T  2.72D+00 0.00028785 0.00012547 0.00263175 0.00109392    0.0470553 ----
   274   0   0   T    F  4.14D-01 0.00028785 0.00012547 0.00108953 0.00045288    0.0470556 ----
   275   0   0   F    T  1.50D+00 0.00025715 0.00010542 0.00118368 0.00045288    0.0470551 ----
   276   0   0   F    T  2.25D+00 0.00022201 0.00008734 0.00123188 0.00045288    0.0470548 ----
   277   0   0   F    F  2.59D-01 0.00022201 0.00008734 0.00031866 0.00011715    0.0470545 --++
   278   0   0   F    T  1.14D+00 0.00038121 0.00013047 0.00162713 0.00057003    0.0470544 ----
   279   0   0   F    T  2.57D+00 0.00024433 0.00010060 0.00176451 0.00057003    0.0470541 ----
   280   0   0   F    F -3.37D-01 0.00024433 0.00010060 0.00059411 0.00019193    0.0470539 ---+
   281   0   0   F    T  1.60D+00 0.00020820 0.00009319 0.00124185 0.00037810    0.0470538 ----
   282   0   0   F    T  1.43D+00 0.00022940 0.00010468 0.00123278 0.00037810    0.0470536 ----
   283   0   0   F    T  2.39D+00 0.00015363 0.00006495 0.00127933 0.00037810    0.0470533 -+--
   284   0   0   F    F  6.48D-01 0.00015363 0.00006495 0.00082866 0.00024491    0.0470531 -+-+
   285   0   0   F    T  1.60D+00 0.00023537 0.00009718 0.00210060 0.00062301    0.0470530 ----
   286   0   0   F    T  1.33D+00 0.00028601 0.00010902 0.00206227 0.00062301    0.0470528 ----
   287   0   0   F    F  2.06D-01 0.00028601 0.00010902 0.00042409 0.00012812    0.0470525 --++
   288   0   0   F    T  3.89D+00 0.00023405 0.00008231 0.00223291 0.00075113    0.0470525 ----
   289   0   0   T    F  4.66D-01 0.00023405 0.00008231 0.00104097 0.00035017    0.0470526 ----
   290   0   0   F    T  1.98D+00 0.00022312 0.00007398 0.00095873 0.00035017    0.0470524 -+--
   291   0   0   F    F -3.21D-01 0.00022312 0.00007398 0.00030766 0.00011237    0.0470523 -+++
   292   0   0   F    T  1.51D+00 0.00014538 0.00006636 0.00061560 0.00023780    0.0470522 -+-+
   293   0   0   F    T  4.78D+00 0.00008178 0.00003729 0.00050521 0.00023780    0.0470521 ++-+
   294   0   0   T    T  1.00D+00 0.00029926 0.00012746 0.00029926 0.00012746    0.0470522 --++
   295   0   0   T    F  5.00D-01 0.00029926 0.00012746 0.00014963 0.00006373    0.0470526 --++
   296   0   0   T    F  5.00D-01 0.00029926 0.00012746 0.00007482 0.00003187    0.0470523 --++
   297   0   0   T    F  5.00D-01 0.00029926 0.00012746 0.00003741 0.00001593    0.0470522 --++
   298   0   0   T    F  5.00D-01 0.00029926 0.00012746 0.00001870 0.00000797    0.0470522 --++
   299   0   0   T    F  5.00D-01 0.00029926 0.00012746 0.00000935 0.00000398    0.0470521 --++
   300   0   0   T    F  5.00D-01 0.00029926 0.00012746 0.00000468 0.00000199    0.0470521 --++
   301   0   0   T    F  5.00D-01 0.00029926 0.00012746 0.00000234 0.00000100    0.0470521 --++
   302   0   0   T    F  5.00D-01 0.00029926 0.00012746 0.00000117 0.00000050    0.0470521 --++
   303   0   0   T    F  5.00D-01 0.00029926 0.00012746 0.00000058 0.00000025    0.0470521 --++
   304   0   0   T    T  1.00D+00 0.00008237 0.00003750 0.00006977 0.00002937    0.0470521 ++++
   305   0   0   F    T  1.00D+00 0.00007087 0.00003417 0.00007153 0.00003452    0.0470521 ====
 ****************************
 MOLECULAR MECHANICS FUNCTION
 ****************************
 Atomic parameters:
 Center  VDW
      1 1.9080 0.0860000
      2 1.7210 0.2104000
      3 1.9080 0.1094000
      4 1.4870 0.0157000
      5 1.4870 0.0157000
      6 1.8750 0.1700000
      7 0.6000 0.0157000
      8 0.6000 0.0157000
      9 1.6612 0.2100000
     10 0.0000 0.0000000
 Molecular mechanics terms:
 NBDir 3 1      0      0
 HrmStr1  1- 2  431.53 1.3510
 HrmStr1  1- 3  294.15 1.5090
 HrmStr1  1- 9  946.08 1.2030
 HrmStr1  2-10  566.76 0.9680
 HrmStr1  3- 4  358.05 1.0960
 HrmStr1  3- 5  358.05 1.0960
 HrmStr1  3- 6  380.82 1.4520
 HrmStr1  6- 7  506.01 1.0110
 HrmStr1  6- 8  506.01 1.0110
 HrmBnd1  1- 2-10  56.55 107.23
 HrmBnd1  1- 3- 4  46.41 106.89
 HrmBnd1  1- 3- 5  46.41 106.89
 HrmBnd1  1- 3- 6  59.93 110.61
 HrmBnd1  2- 1- 3  67.92 111.72
 HrmBnd1  2- 1- 9  91.40 123.02
 HrmBnd1  3- 1- 9  62.83 125.24
 HrmBnd1  3- 6- 7  52.60 110.71
 HrmBnd1  3- 6- 8  52.60 110.71
 HrmBnd1  4- 3- 5  44.68 106.22
 HrmBnd1  4- 3- 6  52.45 112.94
 HrmBnd1  5- 3- 6  52.45 112.94
 HrmBnd1  7- 6- 8  47.09 108.63
 AmbTrs  3- 1- 2-10   0 180   0   0  0.0000 14.5000  0.0000  0.0000  2.0
 AmbTrs  9- 1- 2-10   0   0   0   0  0.0000 14.5000  0.0000  0.0000  2.0
 AmbTrs  2- 1- 3- 4   0   0   0   0  0.0000 14.5000  0.0000  0.0000  6.0
 AmbTrs  2- 1- 3- 5   0   0   0   0  0.0000 14.5000  0.0000  0.0000  6.0
 AmbTrs  2- 1- 3- 6   0   0   0   0  0.0000 14.5000  0.0000  0.0000  6.0
 AmbTrs  9- 1- 3- 4   0   0   0   0  0.0000 14.5000  0.0000  0.0000  6.0
 AmbTrs  9- 1- 3- 5   0   0   0   0  0.0000 14.5000  0.0000  0.0000  6.0
 AmbTrs  9- 1- 3- 6   0   0   0   0  0.0000 14.5000  0.0000  0.0000  6.0
 AmbTrs  1- 3- 6- 7   0 180   0   0  0.0000 25.6300  0.0000  0.0000  6.0
 AmbTrs  1- 3- 6- 8   0 180   0   0  0.0000 25.6300  0.0000  0.0000  6.0
 AmbTrs  4- 3- 6- 7   0   0   0   0  0.0000 16.9300  0.0000  0.0000  6.0
 AmbTrs  4- 3- 6- 8   0   0   0   0  0.0000 16.9300  0.0000  0.0000  6.0
 AmbTrs  5- 3- 6- 7   0   0   0   0  0.0000 16.9300  0.0000  0.0000  6.0
 AmbTrs  5- 3- 6- 8   0   0   0   0  0.0000 16.9300  0.0000  0.0000  6.0
 NBPair  2- 1 3 1      0      0 -1.000 -1.000
 NBPair  3- 2 3 1      0      0 -1.000 -1.000
 NBPair 10- 3 3 1      0      0 -0.500 -0.167
 NBPair  9- 2 3 1      0      0 -1.000 -1.000
 NBPair 10- 9 3 1      0      0 -0.500 -0.167
 NBPair  3- 1 3 1      0      0 -1.000 -1.000
 NBPair  4- 2 3 1      0      0 -0.500 -0.167
 NBPair  5- 2 3 1      0      0 -0.500 -0.167
 NBPair  6- 2 3 1      0      0 -0.500 -0.167
 NBPair  9- 3 3 1      0      0 -1.000 -1.000
 NBPair  9- 4 3 1      0      0 -0.500 -0.167
 NBPair  9- 5 3 1      0      0 -0.500 -0.167
 NBPair  9- 6 3 1      0      0 -0.500 -0.167
 NBPair  9- 1 3 1      0      0 -1.000 -1.000
 NBPair 10- 1 3 1      0      0 -1.000 -1.000
 NBPair 10- 2 3 1      0      0 -1.000 -1.000
 NBPair  4- 1 3 1      0      0 -1.000 -1.000
 NBPair  5- 1 3 1      0      0 -1.000 -1.000
 NBPair  6- 1 3 1      0      0 -1.000 -1.000
 NBPair  4- 3 3 1      0      0 -1.000 -1.000
 NBPair  5- 4 3 1      0      0 -1.000 -1.000
 NBPair  6- 4 3 1      0      0 -1.000 -1.000
 NBPair  5- 3 3 1      0      0 -1.000 -1.000
 NBPair  6- 5 3 1      0      0 -1.000 -1.000
 NBPair  6- 3 3 1      0      0 -1.000 -1.000
 NBPair  7- 1 3 1      0      0 -0.500 -0.167
 NBPair  8- 1 3 1      0      0 -0.500 -0.167
 NBPair  7- 4 3 1      0      0 -0.500 -0.167
 NBPair  8- 4 3 1      0      0 -0.500 -0.167
 NBPair  7- 5 3 1      0      0 -0.500 -0.167
 NBPair  8- 5 3 1      0      0 -0.500 -0.167
 NBPair  7- 3 3 1      0      0 -1.000 -1.000
 NBPair  8- 3 3 1      0      0 -1.000 -1.000
 NBPair  7- 6 3 1      0      0 -1.000 -1.000
 NBPair  8- 7 3 1      0      0 -1.000 -1.000
 NBPair  8- 6 3 1      0      0 -1.000 -1.000
 Energy per function type:
 Direct Coulomb + vdW (small)                           0.003558913
 Direct Coulomb (large)                                -0.129997729
 Direct vdW (large)                                   268.855197478
 Non-direct Coulomb + vdW (small)                      -0.012801567
 Non-direct Coulomb (large)                             0.138029027
 Non-direct vdW (large)                              -268.855197478
 Harmonic stretch I                                     0.000140946
 Harmonic bend I                                        0.010232491
 Amber torsion                                          0.037890033
 Energy per function class:
        Coulomb              -0.002862454
    Vanderwaals               0.001651098
     Stretching               0.000140946
        Bending               0.010232491
        Torsion               0.037890033
 Energy=    4.705211366E-02 NIter=   0.
 Dipole moment=       0.104053      -0.796604       0.030936
 Leave Link  402 at Sun Nov 26 11:20:20 2023, MaxMem=   134217728 cpu:               0.5 elap:               0.5
 (Enter /home/emanuele/chem_software/gaussian//gdv/l716.exe)
 Dipole        = 1.04052552D-01-7.96604490D-01 3.09364200D-02
 -------------------------------------------------------------------
 Center     Atomic                   Forces (Hartrees/Bohr)
 Number     Number              X              Y              Z
 -------------------------------------------------------------------
      1        6           0.000011593    0.000053040   -0.000061164
      2        8           0.000001621    0.000019091    0.000015347
      3        6          -0.000016427    0.000021953    0.000066217
      4        1          -0.000026618   -0.000034708   -0.000009566
      5        1           0.000016655    0.000020946   -0.000009139
      6        7          -0.000045136   -0.000007669    0.000007139
      7        1           0.000025660   -0.000032516   -0.000024833
      8        1           0.000006314    0.000055443   -0.000025925
      9        8           0.000018804   -0.000066450    0.000070873
     10        1           0.000007533   -0.000029130   -0.000028949
 -------------------------------------------------------------------
 Cartesian Forces:  Max     0.000070873 RMS     0.000034173
 Z-matrix is all fixed cartesians, so copy forces.
 Leave Link  716 at Sun Nov 26 11:20:20 2023, MaxMem=   134217728 cpu:               0.0 elap:               0.0
 (Enter /home/emanuele/chem_software/gaussian//gdv/l103.exe)

 GradGradGradGradGradGradGradGradGradGradGradGradGradGradGradGradGradGrad
 Berny optimization.
 Search for a local minimum.
 Step number   1 out of a maximum of    2
 All quantities printed in internal units (Hartrees-Bohrs-Radians)
 RMS Force = .34173D-04 SwitMx=.10000D-02 MixMth= 2
 Mixed Optimization -- En-DIIS/RFO-DIIS
 Second derivative matrix not updated -- unit matrix used.
 ITU=  0
 RFO step:  Lambda=-3.50328139D-08 EMin= 1.00000000D+00
 Linear search not attempted -- first point.
 Variable       Old X    -DE/DX   Delta X   Delta X   Delta X     New X
                                 (Linear)    (Quad)   (Total)
    X1       -1.25042   0.00001   0.00000   0.00001   0.00001  -1.25041
    Y1       -0.19296   0.00005   0.00000   0.00005   0.00005  -0.19290
    Z1       -0.49621  -0.00006   0.00000  -0.00006  -0.00006  -0.49627
    X2       -2.15268   0.00000   0.00000   0.00000   0.00000  -2.15268
    Y2       -0.34922   0.00002   0.00000   0.00002   0.00002  -0.34920
    Z2        1.88652   0.00002   0.00000   0.00002   0.00002   1.88653
    X3        1.37147  -0.00002   0.00000  -0.00002  -0.00002   1.37145
    Y3       -1.37583   0.00002   0.00000   0.00002   0.00002  -1.37581
    Z3       -0.57824   0.00007   0.00000   0.00007   0.00007  -0.57818
    X4        1.08230  -0.00003   0.00000  -0.00003  -0.00003   1.08227
    Y4       -3.27517  -0.00003   0.00000  -0.00003  -0.00003  -3.27521
    Z4        0.19909  -0.00001   0.00000  -0.00001  -0.00001   0.19908
    X5        1.70577   0.00002   0.00000   0.00002   0.00002   1.70579
    Y5       -1.60777   0.00002   0.00000   0.00002   0.00002  -1.60775
    Z5       -2.60996  -0.00001   0.00000  -0.00001  -0.00001  -2.60997
    X6        3.23894  -0.00005   0.00000  -0.00005  -0.00005   3.23890
    Y6        0.17057  -0.00001   0.00000  -0.00001  -0.00001   0.17057
    Z6        0.74264   0.00001   0.00000   0.00001   0.00001   0.74265
    X7        5.08821   0.00003   0.00000   0.00003   0.00003   5.08823
    Y7       -0.31012  -0.00003   0.00000  -0.00003  -0.00003  -0.31015
    Z7        0.71754  -0.00002   0.00000  -0.00002  -0.00002   0.71752
    X8        2.72768   0.00001   0.00000   0.00001   0.00001   2.72768
    Y8        1.86700   0.00006   0.00000   0.00006   0.00006   1.86705
    Z8        1.46166  -0.00003   0.00000  -0.00003  -0.00003   1.46163
    X9       -1.63682   0.00002   0.00000   0.00002   0.00002  -1.63680
    Y9        1.69561  -0.00007   0.00000  -0.00007  -0.00007   1.69555
    Z9       -1.69958   0.00007   0.00000   0.00007   0.00007  -1.69951
   X10       -3.97231   0.00001   0.00000   0.00001   0.00001  -3.97230
   Y10       -0.25718  -0.00003   0.00000  -0.00003  -0.00003  -0.25721
   Z10        1.74650  -0.00003   0.00000  -0.00003  -0.00003   1.74647
         Item               Value     Threshold  Converged?
 Maximum Force            0.000071     0.000450     YES
 RMS     Force            0.000034     0.000300     YES
 Maximum Displacement     0.000071     0.001800     YES
 RMS     Displacement     0.000034     0.001200     YES
 Predicted change in Energy=-1.751641D-08
 Optimization completed.
    -- Stationary point found.
 Largest change from initial coordinates is atom    7       0.350 Angstoms.
 GradGradGradGradGradGradGradGradGradGradGradGradGradGradGradGradGradGrad

 Leave Link  103 at Sun Nov 26 11:20:20 2023, MaxMem=   134217728 cpu:               0.0 elap:               0.0
 (Enter /home/emanuele/chem_software/gaussian//gdv/l202.exe)
                          Input orientation:                          
 ---------------------------------------------------------------------
 Center     Atomic      Atomic             Coordinates (Angstroms)
 Number     Number       Type             X           Y           Z
 ---------------------------------------------------------------------
      1          6    20001002       -0.661695   -0.102108   -0.262582
      2          8    20001022       -1.139151   -0.184798    0.998301
      3          6    20001001        0.725748   -0.728057   -0.305993
      4          1    20001034        0.572727   -1.733146    0.105353
      5          1    20001034        0.902654   -0.850793   -1.381131
      6          7    20001020        1.713975    0.090264    0.392988
      7          1    20001029        2.692564   -0.164107    0.379707
      8          1    20001029        1.443425    0.987972    0.773475
      9          8    20001025       -0.866168    0.897280   -0.899379
     10          1    20001031       -2.102056   -0.136095    0.924210
 ---------------------------------------------------------------------
                    Distance matrix (angstroms):
                    1          2          3          4          5
     1  C    0.000000
     2  O    1.350787   0.000000
     3  C    1.522727   2.339692   0.000000
     4  H    2.078331   2.474927   1.096734   0.000000
     5  H    2.063703   3.205342   1.096486   1.759839   0.000000
     6  N    2.471960   2.929572   1.461101   2.170255   2.165947
     7  H    3.415762   3.881382   2.157912   2.651578   2.603049
     8  H    2.587125   2.845282   2.150597   2.934108   2.883716
     9  O    1.202538   2.201500   2.351175   3.162127   2.533097
    10  H    1.866620   0.966979   3.140111   3.221112   3.854047
                    6          7          8          9         10
     6  N    0.000000
     7  H    1.011196   0.000000
     8  H    1.011854   1.744331   0.000000
     9  O    2.996435   3.927744   2.853223   0.000000
    10  H    3.859473   4.825521   3.722456   2.433261   0.000000
 Symmetry turned off by external request.
 Stoichiometry    C2H5NO2
 Framework group  C1[X(C2H5NO2)]
 Deg. of freedom    24
 Full point group                 C1      NOp   1
 Rotational constants (GHZ):           8.5734145           4.2182569           3.4981992
 Leave Link  202 at Sun Nov 26 11:20:20 2023, MaxMem=   134217728 cpu:               0.0 elap:               0.0
 (Enter /home/emanuele/chem_software/gaussian//gdv/l9999.exe)
 Unable to Open any file for archive entry.
 1\1\GINC-EMANUELE-XPS-13-9343\FOpt\AMBER\ZDO\C2H5N1O2\EMANUELE\26-Nov-
 2023\0\\#p Amber=(SoftFirst,Print) geom=nocrowd nosymm opt=(maxcycle=3
 00)\\Title\\0,1\C,-0.6616950744,-0.1021079235,-0.262581614\O,-1.139150
 5803,-0.1847978919,0.9983011203\C,0.7257484207,-0.7280570048,-0.305992
 6528\H,0.5727266972,-1.7331463941,0.1053533054\H,0.902654468,-0.850793
 4093,-1.3811308794\N,1.7139754405,0.0902642985,0.3929877313\H,2.692563
 9601,-0.1641070233,0.379706557\H,1.4434245448,0.9879724589,0.773475179
 8\O,-0.8661676282,0.8972804309,-0.8993786042\H,-2.1020562484,-0.136094
 5415,0.9242098566\\Version=ES64L-GDVRevJ.14\HF=0.0470521\RMSD=0.000e+0
 0\RMSF=3.417e-05\Dipole=0.1040526,-0.7966045,0.0309364\PG=C01 [X(C2H5N
 1O2)]\\@
 The archive entry for this job was punched.


 I WANT IT ALL - RICH, THIN, AND CHOCOLATE.
 Job cpu time:       0 days  0 hours  0 minutes  0.9 seconds.
 Elapsed time:       0 days  0 hours  0 minutes  0.9 seconds.
 File lengths (MBytes):  RWF=      6 Int=      0 D2E=      0 Chk=      1 Scr=      1
 Normal termination of Gaussian DV at Sun Nov 26 11:20:20 2023.
