 Entering Gaussian System, Link 0=/home/emanuele/chem_software/gaussian//g09/g09
 Input=2_zmat_mm_80.gjf
 Output=2_zmat_mm_80.log
 Initial command:
 /home/emanuele/chem_software/gaussian//gdv/l1.exe "/home/emanuele/chem_software/gaussian/scratch/Gau-6304.inp" -scrdir="/home/emanuele/chem_software/gaussian/scratch/"
 Entering Link 1 = /home/emanuele/chem_software/gaussian//gdv/l1.exe PID=      6306.
  
 Copyright (c) 1988-2020, Gaussian, Inc.  All Rights Reserved.
  
 This is the private, development version of
 the Gaussian(R) DV system of programs. It is based on
 the Gaussian(R) 16 system (copyright 2016, Gaussian, Inc.),
 the Gaussian(R) 09 system (copyright 2009, Gaussian, Inc.),
 the Gaussian(R) 03 system (copyright 2003, Gaussian, Inc.),
 the Gaussian(R) 98 system (copyright 1998, Gaussian, Inc.),
 the Gaussian(R) 94 system (copyright 1995, Gaussian, Inc.),
 the Gaussian 92(TM) system (copyright 1992, Gaussian, Inc.),
 the Gaussian 90(TM) system (copyright 1990, Gaussian, Inc.),
 the Gaussian 88(TM) system (copyright 1988, Gaussian, Inc.),
 the Gaussian 86(TM) system (copyright 1986, Carnegie Mellon
 University), and the Gaussian 82(TM) system (copyright 1983,
 Carnegie Mellon University). Gaussian is a federally registered
 trademark of Gaussian, Inc.
  
 This software contains proprietary and confidential information,
 including trade secrets, belonging to Gaussian, Inc.
  
 This software is provided under written license and may be
 used, copied, transmitted, or stored only in accord with that
 written license.
  
 The following legend is applicable only to US Government
 contracts under FAR:
  
                    RESTRICTED RIGHTS LEGEND
  
 Use, reproduction and disclosure by the US Government is
 subject to restrictions as set forth in subparagraphs (a)
 and (c) of the Commercial Computer Software - Restricted
 Rights clause in FAR 52.227-19.
  
 Gaussian, Inc.
 340 Quinnipiac St., Bldg. 40, Wallingford CT 06492
  
  
 ---------------------------------------------------------------
 Warning -- This program may not be used in any manner that
 competes with the business of Gaussian, Inc. or will provide
 assistance to any competitor of Gaussian, Inc.  The licensee
 of this program is prohibited from giving any competitor of
 Gaussian, Inc. access to this program.  By using this program,
 the user acknowledges that Gaussian, Inc. is engaged in the
 business of creating and licensing software in the field of
 computational chemistry and represents and warrants to the
 licensee that it is not a competitor of Gaussian, Inc. and that
 it will not use this program in any manner prohibited above.
 ---------------------------------------------------------------
  

 Cite this work as:
 Gaussian Development Version, Revision J.14,
 M. J. Frisch, G. W. Trucks, H. B. Schlegel, G. E. Scuseria, 
 M. A. Robb, J. R. Cheeseman, G. Scalmani, V. Barone, 
 G. A. Petersson, H. Nakatsuji, X. Li, A. V. Marenich, M. Caricato, 
 J. Bloino, B. G. Janesko, J. Zheng, R. Gomperts, B. Mennucci, 
 H. P. Hratchian, J. V. Ortiz, A. F. Izmaylov, J. L. Sonnenberg, 
 D. Williams-Young, F. Ding, F. Lipparini, F. Egidi, J. Goings, 
 B. Peng, A. Petrone, T. Henderson, D. Ranasinghe, V. G. Zakrzewski, 
 J. Gao, N. Rega, G. Zheng, W. Liang, M. Hada, M. Ehara, K. Toyota, 
 R. Fukuda, J. Hasegawa, M. Ishida, T. Nakajima, Y. Honda, O. Kitao, 
 H. Nakai, T. Vreven, K. Throssell, J. A. Montgomery, Jr., 
 J. E. Peralta, F. Ogliaro, M. J. Bearpark, J. J. Heyd, 
 E. N. Brothers, K. N. Kudin, V. N. Staroverov, T. A. Keith, 
 R. Kobayashi, J. Normand, K. Raghavachari, A. P. Rendell, 
 J. C. Burant, S. S. Iyengar, J. Tomasi, M. Cossi, J. M. Millam, 
 M. Klene, C. Adamo, R. Cammi, J. W. Ochterski, R. L. Martin, 
 K. Morokuma, O. Farkas, J. B. Foresman, and D. J. Fox, 
 Gaussian, Inc., Wallingford CT, 2020.
 
 ******************************************
 Gaussian DV:  ES64L-GDVRevJ.14 29-Dec-2020
                26-Nov-2023 
 ******************************************
 %mem=1GB
 %nprocshared=1
 Will use up to    1 processors via shared memory.
 %chk=2_zmat_mm_80.chk
 -----------------------------------------------------------------
 #p Amber=(SoftFirst,Print) geom=nocrowd nosymm opt=(maxcycle=300)
 -----------------------------------------------------------------
 1/6=300,10=10,18=4000020,19=15,37=210000000,38=1,56=2,64=203/1,3;
 2/9=110,12=1,15=1,40=1/2;
 3/5=30,11=9,25=1,30=1,41=10030000,43=2,71=1/1;
 4/20=11,22=1001,24=3,119=11/2;
 7/30=1,44=-1/16;
 1/6=300,10=10,18=4000020,19=15,64=203/3(2);
 2/9=110,12=1,15=1/2;
 99//99;
 2/9=110,12=1,15=1/2;
 3/5=30,11=9,25=1,30=1,41=10030000,43=2,71=1/1;
 4/16=2,20=11,22=1001,24=3,119=11/2;
 7/30=1,44=-1/16;
 1/6=300,10=10,18=4000020,19=15,64=203/3(-4);
 2/9=110,12=1,15=1/2;
 99/9=10/99;
 Leave Link    1 at Sun Nov 26 11:20:26 2023, MaxMem=   134217728 cpu:               0.0 elap:               0.0
 (Enter /home/emanuele/chem_software/gaussian//gdv/l101.exe)
 -----
 Title
 -----
 Symbolic Z-matrix:
 Charge =  0 Multiplicity = 1
 C-C-+0.299289        -0.55094  -0.13206   0.13984 
 O-OH--0.289770       -1.05743   1.02319  -0.42517 
 C-CT--0.035454        0.84275  -0.37738  -0.42025 
 H-HC-+0.090426        0.86485  -1.43386  -0.78706 
 H-HC-+0.095387        1.02993   0.28211  -1.30518 
 N-N3--0.336253        1.86469  -0.57537   0.62781 
 H-H-+0.142619         2.04853   0.29024   1.13185 
 H-H-+0.128282         1.57448  -1.28105   1.3006 
 O-O2--0.308037       -1.31607  -0.89387   0.6774 
 H-HO-+0.213510       -2.01875   1.17445  -0.21489 
 
 ITRead=  3  3  3  3  3  3  3  3  3  3
 MicOpt=  0  0  0  0  0  0  0  0  0  0
 NAtoms=     10 NQM=        0 NQMF=       0 NMMI=      0 NMMIF=      0
                NMic=      10 NMicF=      0.
                    Isotopes and Nuclear Properties:
 (Nuclear quadrupole moments (NQMom) in fm**2, nuclear magnetic moments (NMagM)
  in nuclear magnetons)

  Atom         1           2           3           4           5           6           7           8           9          10
 IAtWgt=          12          16          12           1           1          14           1           1          16           1
 AtmWgt=  12.0000000  15.9949146  12.0000000   1.0078250   1.0078250  14.0030740   1.0078250   1.0078250  15.9949146   1.0078250
 NucSpn=           0           0           0           1           1           2           1           1           0           1
 AtZEff=  -0.0000000  -0.0000000  -0.0000000  -0.0000000  -0.0000000  -0.0000000  -0.0000000  -0.0000000  -0.0000000  -0.0000000
 NQMom=    0.0000000   0.0000000   0.0000000   0.0000000   0.0000000   2.0440000   0.0000000   0.0000000   0.0000000   0.0000000
 NMagM=    0.0000000   0.0000000   0.0000000   2.7928460   2.7928460   0.4037610   2.7928460   2.7928460   0.0000000   2.7928460
 AtZNuc=   6.0000000   8.0000000   6.0000000   1.0000000   1.0000000   7.0000000   1.0000000   1.0000000   8.0000000   1.0000000
 Generating MM parameters.
 I=    1 IAn=  6 Valence= 5.
          JB=  1 J=    2 IAn=  8 IBT=12 Dist= 1.38D+00
          JB=  2 J=    3 IAn=  6 IBT= 1 Dist= 1.52D+00
          JB=  3 J=    9 IAn=  8 IBT= 2 Dist= 1.21D+00
 I=    2 IAn=  8 Valence= 3.
          JB=  1 J=    1 IAn=  6 IBT=12 Dist= 1.38D+00
          JB=  2 J=   10 IAn=  1 IBT= 1 Dist= 9.96D-01
 Read MM parameter file:
 Include all MM classes

 MM sanity checks:
 All charges sum to:               -0.00000100
 Charges of atoms sum to:          -0.00000100
 WARNING -- The following centers have non-zero partial charges, but zero Vanderwaals
 parameters.  These centers can collapse onto other centers with non-zero charge.
   Center  Layer   Charge
     10 H    R    0.213510
 MMInit generated parameter data with length LenPar=        2069.
 MM Charge=             -0.0000 electrons
 MM Dipole moment (Debye):
    X=              0.6225    Y=              0.8225    Z=             -0.7354  Tot=              1.2668
 MM Quadrupole moment (Debye-Ang):
   XX=             -0.0269   YY=              0.2397   ZZ=              1.4477
   XY=             -2.0155   XZ=              1.1355   YZ=              1.2923
 MM Traceless Quadrupole moment (Debye-Ang):
   XX=             -0.5804   YY=             -0.3138   ZZ=              0.8942
   XY=             -2.0155   XZ=              1.1355   YZ=              1.2923
 MM Octapole moment (Debye-Ang**2):
  XXX=             -5.1575  YYY=             -1.0081  ZZZ=              0.3723  XYY=              1.7299
  XXY=              7.3749  XXZ=             -1.0359  XZZ=              4.3114  YZZ=             -0.4671
  YYZ=             -0.1772  XYZ=             -1.1223
 MM Hexadecapole moment (Debye-Ang**3):
 XXXX=              7.9823 YYYY=              2.8042 ZZZZ=              3.7730 XXXY=             -6.7779
 XXXZ=              5.7518 YYYX=             -5.6868 YYYZ=              0.5101 ZZZX=              2.7128
 ZZZY=             -0.6988 XXYY=              3.6746 XXZZ=              3.8051 YYZZ=              1.4446
 XXYZ=              1.7624 YYXZ=              1.9408 ZZXY=             -1.6315
 Leave Link  101 at Sun Nov 26 11:20:26 2023, MaxMem=   134217728 cpu:               0.3 elap:               0.2
 (Enter /home/emanuele/chem_software/gaussian//gdv/l103.exe)

 GradGradGradGradGradGradGradGradGradGradGradGradGradGradGradGradGradGrad
 Berny optimization.
 Initialization pass.
 No Z-matrix variables, so optimization will use Cartesian coordinates.
 Trust Radius=1.00D-01 FncErr=1.00D-07 GrdErr=1.00D-07 EigMax=2.50D+02 EigMin=1.00D-04
 Number of steps in this run=      2 maximum allowed number of steps=      2.
 GradGradGradGradGradGradGradGradGradGradGradGradGradGradGradGradGradGrad

 Leave Link  103 at Sun Nov 26 11:20:26 2023, MaxMem=   134217728 cpu:               0.0 elap:               0.0
 (Enter /home/emanuele/chem_software/gaussian//gdv/l202.exe)
                          Input orientation:                          
 ---------------------------------------------------------------------
 Center     Atomic      Atomic             Coordinates (Angstroms)
 Number     Number       Type             X           Y           Z
 ---------------------------------------------------------------------
      1          6    20001002       -0.550943   -0.132055    0.139842
      2          8    20001022       -1.057430    1.023190   -0.425172
      3          6    20001001        0.842749   -0.377375   -0.420247
      4          1    20001034        0.864845   -1.433863   -0.787062
      5          1    20001034        1.029927    0.282110   -1.305175
      6          7    20001020        1.864690   -0.575372    0.627813
      7          1    20001029        2.048528    0.290243    1.131846
      8          1    20001029        1.574482   -1.281047    1.300600
      9          8    20001025       -1.316074   -0.893871    0.677399
     10          1    20001031       -2.018747    1.174452   -0.214894
 ---------------------------------------------------------------------
                    Distance matrix (angstroms):
                    1          2          3          4          5
     1  C    0.000000
     2  O    1.382158   0.000000
     3  C    1.521926   2.360569   0.000000
     4  H    2.135020   3.140576   1.118574   0.000000
     5  H    2.181457   2.383414   1.119399   1.800071   0.000000
     6  N    2.503983   3.493274   1.477158   1.933538   2.273444
     7  H    2.814189   3.550844   2.075719   2.838284   2.641342
     8  H    2.680480   3.900610   2.076866   2.210265   3.087080
     9  O    1.206133   2.226585   2.476310   2.681911   3.288959
    10  H    1.996809   0.995604   3.261671   3.930113   3.358482
                    6          7          8          9         10
     6  N    0.000000
     7  H    1.018398   0.000000
     8  H    1.017271   1.649894   0.000000
     9  O    3.197055   3.595719   2.982214   0.000000
    10  H    4.342018   4.374730   4.608415   2.359639   0.000000
 Symmetry turned off by external request.
 Stoichiometry    C2H5NO2
 Framework group  C1[X(C2H5NO2)]
 Deg. of freedom    24
 Full point group                 C1      NOp   1
 Rotational constants (GHZ):           9.3281105           3.7340709           2.9597589
 Leave Link  202 at Sun Nov 26 11:20:26 2023, MaxMem=   134217728 cpu:               0.0 elap:               0.0
 (Enter /home/emanuele/chem_software/gaussian//gdv/l301.exe)
 Standard basis: Dummy (5D, 7F)
    10 basis functions,    10 primitive gaussians,    10 cartesian basis functions
     7 alpha electrons        7 beta electrons
       nuclear repulsion energy        22.5059835171 Hartrees.
 IExCor=       0 DFT=F Ex=HF Corr=None N6=None ScaHFX=  1.000000
 ScaDFX=  1.000000  1.000000  1.000000  1.000000  1.000000  0.000000
 ScaDFX=  0.000000  0.000000  0.000000  0.000000  0.000000  0.000000
 IRadAn=      5 IRanWt=     -1 IRanGd=            0 ICorTp=0 IEmpDi=  4
 NAtoms=   10 NActive=   10 NUniq=   10 SFac= 1.00D+00 NAtFMM=   60 NAOKFM=F Big=F
 Integral buffers will be    131072 words long.
 Raffenetti 1 integral format.
 Two-electron integral symmetry is turned off.
 Leave Link  301 at Sun Nov 26 11:20:26 2023, MaxMem=   134217728 cpu:               0.0 elap:               0.0
 (Enter /home/emanuele/chem_software/gaussian//gdv/l402.exe)
 AMBER calculation of energy and first derivatives.
 NRF= 0 NRA=   0 NVA=  10 HaveQM=F NVQ=       0
 Convergence limit is  0.750E-04 MaxStp= 10000 StMxLn= 3.00D-04 StpMin= 1.00D-06.
 Convergence criteria             0.00011250 0.00007500 0.00045000 0.00030000
  Step  NS  ND Rises OKQ   Scale  Max. Force  RMS Force Max. Disp.  RMS Disp.     Energy   Flag
     1   0   0   F    T  1.00D+00 0.04409329 0.01792557 0.04409329 0.01792557    0.1031694 ----
     2   0   0   F    F  5.70D-01 0.04409329 0.01792557 0.02513863 0.01021979    0.0966324 ----
     3   0   0   F    T  1.91D+00 0.02437579 0.01219465 0.06137310 0.02814536    0.0956487 ----
     4   0   0   F    F  9.26D-01 0.02437579 0.01219465 0.05681529 0.02605517    0.0893763 ----
     5   0   0   F    T  2.11D+00 0.04687451 0.01441094 0.12015637 0.05420054    0.0875107 ----
     6   0   0   T    F  4.73D-01 0.04687451 0.01441094 0.05680785 0.02562507    0.0883646 ----
     7   0   0   F    T  1.89D+00 0.01832730 0.00916741 0.05671793 0.02562507    0.0843910 ----
     8   0   0   F    F  3.00D-02 0.01832730 0.00916741 0.00170193 0.00076893    0.0819022 ----
     9   0   0   F    T  2.06D+00 0.02045557 0.00811662 0.06121471 0.02639400    0.0819000 ----
    10   0   0   F    F  8.80D-01 0.02045557 0.00811662 0.05386762 0.02322615    0.0788778 ----
    11   0   0   F    F -2.34D-02 0.02045557 0.00811662 0.00126071 0.00054358    0.0780288 ----
    12   0   0   F    T  4.13D+00 0.01468663 0.00759381 0.13618816 0.04907658    0.0780283 ----
    13   0   0   F    F -4.03D-01 0.01468663 0.00759381 0.05491388 0.01978869    0.0769205 ----
    14   0   0   F    T  3.40D+00 0.01464017 0.00593116 0.08737611 0.02928789    0.0758514 ----
    15   0   0   F    F -3.71D-01 0.01464017 0.00593116 0.03243210 0.01087102    0.0751116 ----
    16   0   0   F    T  1.35D+00 0.02194124 0.00694183 0.05124447 0.01841686    0.0747337 ----
    17   0   0   F    F  1.80D-01 0.02194124 0.00694183 0.00923323 0.00331835    0.0736005 ----
    18   0   0   F    T  1.95D+00 0.01576676 0.00572986 0.04825731 0.02173522    0.0735733 ----
    19   0   0   F    F -1.39D-02 0.01576676 0.00572986 0.00067144 0.00030242    0.0726127 ----
    20   0   0   F    T  3.18D+00 0.00949031 0.00415802 0.05216774 0.02143280    0.0726125 ----
    21   0   0   F    F -1.62D-01 0.00949031 0.00415802 0.00843040 0.00346358    0.0719541 ----
    22   0   0   F    T  5.53D+00 0.00549865 0.00236281 0.05785226 0.01796922    0.0719295 ----
    23   0   0   F    F -4.51D-01 0.00549865 0.00236281 0.02610217 0.00810747    0.0718484 ----
    24   0   0   F    T  2.05D+00 0.00465570 0.00262708 0.02847298 0.00986175    0.0716745 ----
    25   0   0   F    F  2.10D-01 0.00465570 0.00262708 0.00599070 0.00207491    0.0714257 ----
    26   0   0   F    T  1.83D+00 0.00731552 0.00290647 0.03212834 0.01193665    0.0714179 ----
    27   0   0   F    F -3.77D-01 0.00731552 0.00290647 0.01211326 0.00450045    0.0713266 ----
    28   0   0   F    T  2.41D+00 0.00499430 0.00178957 0.01809616 0.00743621    0.0712738 ----
    29   0   0   F    T  2.90D+00 0.00421415 0.00147591 0.01701927 0.00743621    0.0711584 ----
    30   0   0   F    F -9.48D-02 0.00421415 0.00147591 0.00161294 0.00070474    0.0710742 ----
    31   0   0   F    T  6.83D+00 0.00159089 0.00075751 0.01527155 0.00673147    0.0710733 ----
    32   0   0   T    F  4.00D-01 0.00159089 0.00075751 0.00610421 0.00269064    0.0711029 ----
    33   0   0   F    T  1.94D+00 0.00225929 0.00080900 0.00534786 0.00269064    0.0710498 ----
    34   0   0   F    F -1.76D-01 0.00225929 0.00080900 0.00094161 0.00047375    0.0710348 ----
    35   0   0   F    T  1.17D+00 0.00229406 0.00088756 0.00554518 0.00221689    0.0710341 ----
    36   0   0   F    F  1.47D+00 0.00229406 0.00088756 0.00814056 0.00325450    0.0710121 ----
    37   0   0   F    T  2.78D+00 0.00206240 0.00085187 0.01617656 0.00547139    0.0710000 ----
    38   0   0   F    F  1.53D-01 0.00206240 0.00085187 0.00246979 0.00083535    0.0709657 ----
    39   0   0   F    T  3.99D+00 0.00149131 0.00071754 0.02126374 0.00630675    0.0709651 ----
    40   0   0   F    F -4.34D-01 0.00149131 0.00071754 0.00923103 0.00273789    0.0709580 ----
    41   0   0   F    T  3.05D+00 0.00160969 0.00057702 0.01301185 0.00356886    0.0709476 ----
    42   0   0   F    F -2.75D-01 0.00160969 0.00057702 0.00357585 0.00098078    0.0709382 ----
    43   0   0   F    T  1.00D+00 0.00220787 0.00083701 0.00960982 0.00259404    0.0709366 ----
    44   0   0   F    F  1.59D+00 0.00220787 0.00083701 0.01526788 0.00412136    0.0709196 ----
    45   0   0   F    T  3.39D+00 0.00144501 0.00070709 0.02413640 0.00671539    0.0709094 ----
    46   0   0   F    F -2.41D-01 0.00144501 0.00070709 0.00580730 0.00161575    0.0708920 ----
    47   0   0   F    T  2.52D+00 0.00147076 0.00069291 0.01707710 0.00509965    0.0708901 ----
    48   0   0   F    F  1.14D+00 0.00147076 0.00069291 0.01938953 0.00579020    0.0708623 ----
    49   0   0   F    T  2.98D+00 0.00235545 0.00091697 0.03568364 0.01088984    0.0708515 ----
    50   0   0   T    F  4.46D-01 0.00235545 0.00091697 0.01590443 0.00485367    0.0708605 ----
    51   0   0   F    T  1.57D+00 0.00208530 0.00082233 0.01566871 0.00485367    0.0708347 ----
    52   0   0   F    F  6.53D-01 0.00208530 0.00082233 0.01022661 0.00316788    0.0708124 ----
    53   0   0   F    T  1.72D+00 0.00228665 0.00099961 0.02550725 0.00802155    0.0708083 ----
    54   0   0   F    F  1.27D+00 0.00228665 0.00099961 0.03239955 0.01018905    0.0707675 ----
    55   0   0   F    T  2.67D+00 0.00270372 0.00124199 0.05585873 0.01821061    0.0707483 ----
    56   0   0   F    F  1.72D+00 0.00270372 0.00124199 0.09600016 0.03129719    0.0706477 ----
    57   0   0   F    F -1.35D-01 0.00270372 0.00124199 0.01297146 0.00422885    0.0705882 ----
    58   0   0   F    T  3.19D+00 0.00510227 0.00196169 0.13665228 0.04527895    0.0705865 ----
    59   0   0   F    F -1.87D-02 0.00510227 0.00196169 0.00255833 0.00084769    0.0703868 ----
    60   0   0   F    T  1.60D+00 0.00927248 0.00303823 0.13044128 0.04443126    0.0703867 ----
    61   0   0   F    F -6.13D-02 0.00927248 0.00303823 0.00799184 0.00272220    0.0701632 ----
    62   0   0   F    T  1.75D+00 0.00699854 0.00347225 0.11519162 0.04170906    0.0701621 ----
    63   0   0   F    F  1.41D+00 0.00699854 0.00347225 0.16297448 0.05901048    0.0696566 ----
    64   0   0   F    F -3.35D-01 0.00699854 0.00347225 0.05451661 0.01973960    0.0695273 ----
    65   0   0   F    F -9.58D-03 0.00699854 0.00347225 0.00052221 0.00018909    0.0694600 ---+
    66   0   0   F    T  4.59D+00 0.01074226 0.00415272 0.20263846 0.08116902    0.0694599 ----
    67   0   0   F    F  5.45D-01 0.01074226 0.00415272 0.11039514 0.04421997    0.0680352 ----
    68   0   0   F    F -4.21D-01 0.01074226 0.00415272 0.04643066 0.01859830    0.0679979 ----
    69   0   0   F    T  2.96D+00 0.01322398 0.00640182 0.27169777 0.10679069    0.0679317 ----
    70   0   0   T    F  5.13D-01 0.01322398 0.00640182 0.13932836 0.05476295    0.0682457 ----
    71   0   0   F    T  1.94D+00 0.01734317 0.00654419 0.14969854 0.05476295    0.0669141 ----
    72   0   0   F    F  2.47D-01 0.01734317 0.00654419 0.03701308 0.01354018    0.0653722 ----
    73   0   0   F    F -6.54D-02 0.01734317 0.00654419 0.00242062 0.00088551    0.0653098 ----
    74   0   0   F    T  1.67D+00 0.02271840 0.00871015 0.18549422 0.06741762    0.0653095 ----
    75   0   0   F    F  4.73D-01 0.02271840 0.00871015 0.08778115 0.03190394    0.0627545 ----
    76   0   0   F    F -1.55D-01 0.02271840 0.00871015 0.01362571 0.00495225    0.0624996 ----
    77   0   0   F    T  3.16D+00 0.02282212 0.00887942 0.24282945 0.09436931    0.0624899 ----
    78   0   0   F    F -2.96D-01 0.02282212 0.00887942 0.07176697 0.02789036    0.0603091 ----
    79   0   0   F    F -2.30D-02 0.02282212 0.00887942 0.00165343 0.00064256    0.0598376 ----
    80   0   0   F    T  1.71D+00 0.02738307 0.01020254 0.19509947 0.06712152    0.0598374 ----
    81   0   0   F    F -1.51D-01 0.02738307 0.01020254 0.02944119 0.01012887    0.0576448 ----
    82   0   0   F    F -2.06D-02 0.02738307 0.01020254 0.00060535 0.00020826    0.0575758 ---+
    83   0   0   F    T  2.51D+00 0.01591448 0.00742659 0.18889707 0.05720091    0.0575757 ----
    84   0   0   F    F  2.29D-01 0.01591448 0.00742659 0.04324409 0.01309497    0.0551839 ----
    85   0   0   F    F -4.37D-02 0.01591448 0.00742659 0.00188783 0.00057166    0.0551058 ----
    86   0   0   F    T  2.42D+00 0.02309760 0.00772872 0.22415707 0.06972421    0.0551057 ----
    87   0   0   T    F  4.91D-01 0.02309760 0.00772872 0.11003964 0.03422791    0.0552225 ----
    88   0   0   F    T  3.03D+00 0.01240648 0.00454336 0.10558516 0.03422791    0.0540367 ----
    89   0   0   F    F -1.43D-01 0.01240648 0.00454336 0.01510750 0.00489745    0.0532444 ----
    90   0   0   F    T  1.72D+00 0.01592293 0.00547251 0.08692796 0.02933046    0.0532209 ----
    91   0   0   F    F  2.08D-01 0.01592293 0.00547251 0.01811832 0.00611332    0.0523459 ----
    92   0   0   F    T  3.11D+00 0.01191486 0.00425613 0.08563781 0.03544378    0.0523208 ----
    93   0   0   T    F  4.81D-01 0.01191486 0.00425613 0.04116067 0.01703558    0.0524187 ----
    94   0   0   F    T  1.50D+00 0.01015477 0.00411164 0.04145736 0.01703558    0.0519090 ----
    95   0   0   F    F  1.17D+00 0.01015477 0.00411164 0.04839035 0.01988447    0.0513287 ----
    96   0   0   F    F -1.49D-02 0.01015477 0.00411164 0.00072340 0.00029726    0.0510970 ---+
    97   0   0   F    T  2.90D+00 0.01144292 0.00439669 0.08802348 0.03662279    0.0510969 ----
    98   0   0   F    F -3.72D-01 0.01144292 0.00439669 0.03272426 0.01361516    0.0507553 ----
    99   0   0   F    T  2.54D+00 0.00903152 0.00361740 0.04960925 0.02300763    0.0505667 ----
   100   0   0   F    F -2.98D-01 0.00903152 0.00361740 0.01478357 0.00685628    0.0502807 ----
   101   0   0   F    T  1.25D+00 0.01267503 0.00416025 0.03571946 0.01615135    0.0502200 ----
   102   0   0   F    F  1.47D+00 0.01267503 0.00416025 0.05237407 0.02368211    0.0496947 ----
   103   0   0   F    F -3.80D-02 0.01267503 0.00416025 0.00199279 0.00090109    0.0494057 ----
   104   0   0   F    T  3.43D+00 0.00873059 0.00377870 0.08546973 0.03893237    0.0494053 ----
   105   0   0   F    F -2.54D-01 0.00873059 0.00377870 0.02175111 0.00990786    0.0489245 ----
   106   0   0   F    T  1.92D+00 0.01175648 0.00432973 0.06355712 0.02902451    0.0488637 ----
   107   0   0   F    F -2.12D-01 0.01175648 0.00432973 0.01346924 0.00615097    0.0484673 ----
   108   0   0   F    T  2.11D+00 0.00734151 0.00350256 0.04851723 0.02287354    0.0484363 ----
   109   0   0   F    F  6.40D-03 0.00734151 0.00350256 0.00031043 0.00014635    0.0480582 --++
   110   0   0   F    T  2.36D+00 0.00726424 0.00308094 0.05039602 0.02301989    0.0480582 ----
   111   0   0   F    F -1.60D-01 0.00726424 0.00308094 0.00806879 0.00368566    0.0477802 ----
   112   0   0   F    T  2.94D+00 0.00535706 0.00244548 0.04166797 0.01933423    0.0477691 ----
   113   0   0   F    F -2.91D-01 0.00535706 0.00244548 0.01211303 0.00562053    0.0476138 ----
   114   0   0   F    T  1.52D+00 0.00706734 0.00280883 0.03021221 0.01371370    0.0475832 ----
   115   0   0   F    F  3.39D-01 0.00706734 0.00280883 0.01023233 0.00464458    0.0473597 ----
   116   0   0   F    T  2.46D+00 0.00629031 0.00240693 0.04511460 0.01835828    0.0473448 ----
   117   0   0   F    F -2.90D-01 0.00629031 0.00240693 0.01309898 0.00533031    0.0472183 ----
   118   0   0   F    T  3.25D+00 0.00350281 0.00166666 0.03267547 0.01302797    0.0471924 ----
   119   0   0   F    F -3.23D-01 0.00350281 0.00166666 0.01056477 0.00421226    0.0471218 ----
   120   0   0   F    T  1.45D+00 0.00453683 0.00199895 0.02233201 0.00881572    0.0471009 ----
   121   0   0   F    F  3.85D-01 0.00453683 0.00199895 0.00859643 0.00339350    0.0469904 ----
   122   0   0   F    T  3.01D+00 0.00410713 0.00154990 0.03138864 0.01220922    0.0469813 ----
   123   0   0   F    F -4.23D-01 0.00410713 0.00154990 0.01327587 0.00516390    0.0469525 ----
   124   0   0   F    T  2.07D+00 0.00296227 0.00135801 0.01648271 0.00704531    0.0469185 ----
   125   0   0   F    F  2.62D-01 0.00296227 0.00135801 0.00432151 0.00184717    0.0468497 ----
   126   0   0   F    T  2.01D+00 0.00400523 0.00150024 0.01831408 0.00889248    0.0468466 ----
   127   0   0   F    F -3.69D-01 0.00400523 0.00150024 0.00676591 0.00328522    0.0468185 ----
   128   0   0   F    T  3.51D+00 0.00171623 0.00082223 0.01250981 0.00560727    0.0468038 ----
   129   0   0   F    F -2.78D-01 0.00171623 0.00082223 0.00348119 0.00156037    0.0467820 ----
   130   0   0   F    T  1.59D+00 0.00230466 0.00099420 0.00956947 0.00404689    0.0467782 ----
   131   0   0   F    F  3.91D-01 0.00230466 0.00099420 0.00374468 0.00158361    0.0467479 ----
   132   0   0   F    T  1.92D+00 0.00248558 0.00103193 0.01365854 0.00563050    0.0467453 ----
   133   0   0   F    F -4.50D-02 0.00248558 0.00103193 0.00061430 0.00025323    0.0467162 ---+
   134   0   0   F    T  2.19D+00 0.00219125 0.00090882 0.01255683 0.00537727    0.0467161 ----
   135   0   0   F    F  6.16D-01 0.00219125 0.00090882 0.00774092 0.00331493    0.0466784 ----
   136   0   0   F    T  1.64D+00 0.00394990 0.00131572 0.02225917 0.00869220    0.0466719 ----
   137   0   0   F    F -5.19D-02 0.00394990 0.00131572 0.00115424 0.00045073    0.0466321 ----
   138   0   0   F    T  3.06D+00 0.00184037 0.00091344 0.02285532 0.00824148    0.0466319 ----
   139   0   0   F    F -2.73D-01 0.00184037 0.00091344 0.00623747 0.00224919    0.0466080 ----
   140   0   0   F    T  1.95D+00 0.00282775 0.00094578 0.01636650 0.00599228    0.0466041 ----
   141   0   0   F    F  1.87D-02 0.00282775 0.00094578 0.00030531 0.00011178    0.0465776 --++
   142   0   0   F    T  2.04D+00 0.00193604 0.00089878 0.01635965 0.00610407    0.0465776 ----
   143   0   0   F    T  2.31D+00 0.00254146 0.00083035 0.01548655 0.00610407    0.0465524 ----
   144   0   0   F    F -2.50D-01 0.00254146 0.00083035 0.00386611 0.00152384    0.0465362 ----
   145   0   0   F    T  2.30D+00 0.00136514 0.00069018 0.00991197 0.00458023    0.0465342 ----
   146   0   0   F    F  7.72D-02 0.00136514 0.00069018 0.00076495 0.00035348    0.0465166 ----
   147   0   0   F    T  2.19D+00 0.00209908 0.00071995 0.00913299 0.00493371    0.0465166 ----
   148   0   0   F    F -3.92D-01 0.00209908 0.00071995 0.00357994 0.00193391    0.0465105 ----
   149   0   0   F    T  2.80D+00 0.00113781 0.00046928 0.00539053 0.00299980    0.0465062 ----
   150   0   0   F    T  1.58D+00 0.00138487 0.00059974 0.00608172 0.00299980    0.0464975 ----
   151   0   0   F    F  1.73D-01 0.00138487 0.00059974 0.00105248 0.00051913    0.0464882 ----
   152   0   0   F    T  2.76D+00 0.00121909 0.00051569 0.00887604 0.00351893    0.0464880 ----
   153   0   0   F    F -2.19D-01 0.00121909 0.00051569 0.00194409 0.00077074    0.0464801 ----
   154   0   0   F    T  1.82D+00 0.00153239 0.00053362 0.00736309 0.00274819    0.0464794 ----
   155   0   0   F    T  2.30D+00 0.00136094 0.00046202 0.00832233 0.00274819    0.0464714 ----
   156   0   0   F    F -7.28D-02 0.00136094 0.00046202 0.00060561 0.00019998    0.0464645 ---+
   157   0   0   F    T  1.87D+00 0.00105388 0.00047122 0.00871142 0.00254821    0.0464644 ----
   158   0   0   F    T  2.70D+00 0.00101566 0.00037565 0.00864677 0.00254821    0.0464584 ----
   159   0   0   F    F -2.22D-01 0.00101566 0.00037565 0.00192064 0.00056601    0.0464544 ----
   160   0   0   F    T  1.68D+00 0.00099671 0.00041101 0.00621997 0.00198219    0.0464540 ----
   161   0   0   F    F  3.54D-01 0.00099671 0.00041101 0.00220276 0.00070198    0.0464486 ----
   162   0   0   F    T  2.12D+00 0.00117460 0.00040961 0.00821500 0.00268418    0.0464482 ----
   163   0   0   F    F -2.64D-01 0.00117460 0.00040961 0.00216812 0.00070841    0.0464448 ----
   164   0   0   F    T  3.44D+00 0.00065670 0.00026208 0.00539410 0.00197576    0.0464443 ----
   165   0   0   F    F -3.69D-01 0.00065670 0.00026208 0.00198874 0.00072844    0.0464428 ----
   166   0   0   F    T  1.31D+00 0.00083655 0.00032650 0.00284283 0.00124732    0.0464420 ----
   167   0   0   F    F  9.21D-01 0.00083655 0.00032650 0.00261935 0.00114927    0.0464389 ----
   168   0   0   F    T  3.14D+00 0.00058077 0.00028132 0.00558911 0.00239659    0.0464380 ----
   169   0   0   F    F -4.69D-01 0.00058077 0.00028132 0.00262206 0.00112433    0.0464376 ----
   170   0   0   F    T  1.70D+00 0.00060975 0.00026921 0.00316590 0.00127226    0.0464360 ----
   171   0   0   F    F  5.08D-01 0.00060975 0.00026921 0.00160813 0.00064625    0.0464336 ----
   172   0   0   F    T  2.21D+00 0.00066768 0.00028265 0.00502065 0.00191851    0.0464332 ----
   173   0   0   F    F -1.30D-01 0.00066768 0.00028265 0.00065404 0.00024992    0.0464310 ---+
   174   0   0   F    T  1.98D+00 0.00053285 0.00027106 0.00435198 0.00166859    0.0464309 ----
   175   0   0   F    T  2.27D+00 0.00055247 0.00025137 0.00474664 0.00166859    0.0464287 ----
   176   0   0   F    F  7.95D-02 0.00055247 0.00025137 0.00037757 0.00013273    0.0464262 --++
   177   0   0   F    T  1.66D+00 0.00088367 0.00028998 0.00481485 0.00180131    0.0464262 ----
   178   0   0   F    F  2.45D-01 0.00088367 0.00028998 0.00117994 0.00044144    0.0464237 ----
   179   0   0   F    T  2.13D+00 0.00067485 0.00028927 0.00628928 0.00224275    0.0464236 ----
   180   0   0   F    F -9.31D-02 0.00067485 0.00028927 0.00058549 0.00020878    0.0464212 ---+
   181   0   0   F    T  3.32D+00 0.00046920 0.00021362 0.00585309 0.00203397    0.0464212 ----
   182   0   0   F    F -4.89D-01 0.00046920 0.00021362 0.00286134 0.00099432    0.0464211 ----
   183   0   0   F    T  1.90D+00 0.00049340 0.00019504 0.00305566 0.00103964    0.0464200 ----
   184   0   0   F    F  2.52D-01 0.00049340 0.00019504 0.00076930 0.00026174    0.0464187 ---+
   185   0   0   F    T  1.75D+00 0.00062579 0.00022248 0.00383106 0.00130139    0.0464187 ----
   186   0   0   F    F -1.05D-01 0.00062579 0.00022248 0.00040396 0.00013722    0.0464175 --++
   187   0   0   F    T  4.78D+00 0.00026664 0.00011886 0.00341994 0.00116416    0.0464175 ----
   188   0   0   F    F -4.83D-01 0.00026664 0.00011886 0.00165084 0.00056195    0.0464174 ----
   189   0   0   F    T  1.30D+00 0.00036574 0.00015893 0.00178274 0.00060221    0.0464170 ----
   190   0   0   F    F  5.83D-01 0.00036574 0.00015893 0.00103985 0.00035126    0.0464163 ----
   191   0   0   F    T  2.87D+00 0.00032854 0.00012924 0.00272016 0.00095347    0.0464162 ----
   192   0   0   F    F -4.50D-01 0.00032854 0.00012924 0.00122326 0.00042878    0.0464161 ----
   193   0   0   F    T  2.32D+00 0.00019867 0.00010091 0.00129136 0.00052469    0.0464158 ----
   194   0   0   F    T  1.85D+00 0.00028171 0.00011228 0.00143031 0.00052469    0.0464154 ----
   195   0   0   F    F  6.88D-01 0.00028171 0.00011228 0.00098403 0.00036098    0.0464149 ----
   196   0   0   F    T  1.37D+00 0.00046271 0.00015739 0.00239462 0.00088567    0.0464148 ----
   197   0   0   F    T  4.42D+00 0.00020468 0.00010244 0.00278823 0.00088567    0.0464142 ----
   198   0   0   F    F -3.46D-01 0.00020468 0.00010244 0.00096508 0.00030655    0.0464139 ----
   199   0   0   F    T  2.00D+00 0.00024203 0.00011581 0.00200330 0.00057912    0.0464138 ----
   200   0   0   F    F  1.76D+00 0.00024203 0.00011581 0.00352445 0.00101885    0.0464131 ----
   201   0   0   F    T  3.22D+00 0.00038039 0.00015155 0.00547201 0.00159797    0.0464127 ----
   202   0   0   T    F  4.90D-01 0.00038039 0.00015155 0.00267983 0.00078258    0.0464127 ----
   203   0   0   F    T  2.38D+00 0.00025653 0.00011908 0.00280261 0.00078258    0.0464121 ----
   204   0   0   F    F -2.13D-01 0.00025653 0.00011908 0.00059662 0.00016660    0.0464117 ---+
   205   0   0   F    T  1.29D+00 0.00038069 0.00014038 0.00210129 0.00061599    0.0464117 ----
   206   0   0   F    F  6.67D-01 0.00038069 0.00014038 0.00140192 0.00041097    0.0464112 ----
   207   0   0   F    T  3.22D+00 0.00028073 0.00011116 0.00357183 0.00102695    0.0464111 ----
   208   0   0   F    F -1.85D-01 0.00028073 0.00011116 0.00066069 0.00018996    0.0464106 ---+
   209   0   0   F    T  3.17D+00 0.00018797 0.00009752 0.00274143 0.00083699    0.0464106 ----
   210   0   0   F    T  2.61D+00 0.00024290 0.00010310 0.00249577 0.00083699    0.0464102 ----
   211   0   0   F    F -1.87D-01 0.00024290 0.00010310 0.00046784 0.00015690    0.0464098 ---+
   212   0   0   F    T  3.48D+00 0.00018882 0.00008099 0.00195315 0.00068010    0.0464098 ----
   213   0   0   F    F -4.75D-01 0.00018882 0.00008099 0.00092830 0.00032324    0.0464098 ----
   214   0   0   F    T  1.23D+00 0.00028645 0.00009543 0.00099089 0.00035686    0.0464096 ----
   215   0   0   F    F  7.31D-01 0.00028645 0.00009543 0.00072470 0.00026099    0.0464094 ---+
   216   0   0   F    T  2.02D+00 0.00024027 0.00009540 0.00163336 0.00061785    0.0464094 ----
   217   0   0   F    F  6.87D-01 0.00024027 0.00009540 0.00112133 0.00042417    0.0464090 ----
   218   0   0   F    T  3.91D+00 0.00021291 0.00008673 0.00275902 0.00104202    0.0464089 ----
   219   0   0   F    F -2.14D-01 0.00021291 0.00008673 0.00058983 0.00022277    0.0464086 ---+
   220   0   0   F    T  2.18D+00 0.00023111 0.00010106 0.00210187 0.00081925    0.0464085 ----
   221   0   0   F    F  2.89D-01 0.00023111 0.00010106 0.00060800 0.00023698    0.0464081 ---+
   222   0   0   F    T  5.42D+00 0.00014386 0.00007037 0.00290819 0.00105624    0.0464081 -+--
   223   0   0   T    F  4.53D-01 0.00014386 0.00007037 0.00131675 0.00047824    0.0464082 -+--
   224   0   0   F    T  3.56D+00 0.00015633 0.00005576 0.00119822 0.00047824    0.0464079 -+--
   225   0   0   F    T  1.63D+00 0.00019852 0.00008088 0.00107740 0.00047824    0.0464078 ----
   226   0   0   F    F  1.15D+00 0.00019852 0.00008088 0.00124008 0.00055045    0.0464075 ----
   227   0   0   F    T  5.51D+00 0.00014359 0.00006132 0.00252295 0.00102868    0.0464074 -+--
   228   0   0   F    F -1.79D-01 0.00014359 0.00006132 0.00045266 0.00018456    0.0464072 -+-+
   229   0   0   F    T  1.39D+00 0.00042212 0.00010970 0.00207116 0.00084412    0.0464072 ----
   230   0   0   F    F  2.37D-01 0.00042212 0.00010970 0.00049173 0.00020041    0.0464069 ---+
   231   0   0   F    T  1.67D+00 0.00028098 0.00011039 0.00246268 0.00104453    0.0464068 ----
   232   0   0   F    F  2.19D-01 0.00028098 0.00011039 0.00054055 0.00022927    0.0464065 ---+
   233   0   0   F    T  3.52D+00 0.00025038 0.00008291 0.00291492 0.00127380    0.0464065 ----
   234   0   0   F    F  2.54D-01 0.00025038 0.00008291 0.00074065 0.00032366    0.0464060 ----
   235   0   0   F    T  1.93D+00 0.00027632 0.00012467 0.00388287 0.00159746    0.0464060 ----
   236   0   0   F    F  4.06D-01 0.00027632 0.00012467 0.00157576 0.00064829    0.0464054 ----
   237   0   0   F    T  6.15D+00 0.00015575 0.00008203 0.00563265 0.00224575    0.0464054 ----
   238   0   0   T    F  4.90D-01 0.00015575 0.00008203 0.00276176 0.00110112    0.0464054 ----
   239   0   0   F    T  2.49D+00 0.00022352 0.00008926 0.00283453 0.00110112    0.0464051 ----
   240   0   0   F    T  4.08D+00 0.00014996 0.00007251 0.00289225 0.00110112    0.0464048 -+--
   241   0   0   F    F -3.83D-01 0.00014996 0.00007251 0.00110777 0.00042175    0.0464046 -+--
   242   0   0   F    T  2.44D+00 0.00014390 0.00006836 0.00182414 0.00067937    0.0464045 -+--
   243   0   0   F    T  1.58D+00 0.00024618 0.00008935 0.00199131 0.00067937    0.0464044 ----
   244   0   0   F    T  2.19D+00 0.00016501 0.00006498 0.00209367 0.00067937    0.0464041 -+--
   245   0   0   F    T  3.08D+00 0.00014481 0.00005801 0.00229103 0.00067937    0.0464040 -+--
   246   0   0   F    F  2.04D-01 0.00014481 0.00005801 0.00046823 0.00013885    0.0464038 -+-+
   247   0   0   F    T  1.62D+00 0.00020257 0.00008472 0.00276000 0.00081822    0.0464038 ----
   248   0   0   F    F  1.85D-01 0.00020257 0.00008472 0.00051044 0.00015132    0.0464036 ---+
   249   0   0   F    T  2.65D+00 0.00017893 0.00007682 0.00338186 0.00096955    0.0464036 ----
   250   0   0   F    F -4.86D-01 0.00017893 0.00007682 0.00164442 0.00047144    0.0464035 ----
   251   0   0   F    T  2.88D+00 0.00010424 0.00005156 0.00168202 0.00049811    0.0464034 ++--
   252   0   0   F    F -2.54D-01 0.00010424 0.00005156 0.00042723 0.00012652    0.0464034 ++++
   253   0   0   F    T  1.87D+00 0.00013253 0.00005417 0.00126561 0.00037159    0.0464034 -+--
   254   0   0   F    F  8.59D-01 0.00013253 0.00005417 0.00108706 0.00031916    0.0464032 -+--
   255   0   0   F    T  1.63D+00 0.00019631 0.00007858 0.00225665 0.00069075    0.0464032 ----
   256   0   0   F    T  3.18D+00 0.00021060 0.00005544 0.00227042 0.00069075    0.0464031 -+--
   257   0   0   T    F  4.59D-01 0.00021060 0.00005544 0.00104190 0.00031699    0.0464031 -+--
   258   0   0   F    T  2.63D+00 0.00008814 0.00003995 0.00100377 0.00031699    0.0464030 ++--
   259   0   0   F    T  1.98D+00 0.00013306 0.00004729 0.00103530 0.00031699    0.0464029 -+--
   260   0   0   F    F  3.34D-01 0.00013306 0.00004729 0.00034564 0.00010583    0.0464028 -+++
   261   0   0   F    T  1.52D+00 0.00012427 0.00005617 0.00133488 0.00042282    0.0464028 -+--
   262   0   0   F    T  2.43D+00 0.00014767 0.00005057 0.00131450 0.00042282    0.0464027 -+--
   263   0   0   F    T  3.49D+00 0.00009166 0.00003911 0.00128579 0.00042282    0.0464026 ++--
   264   0   0   F    F -2.77D-01 0.00009166 0.00003911 0.00035612 0.00011711    0.0464026 ++++
   265   0   0   F    T  2.17D+00 0.00012192 0.00004067 0.00086955 0.00030571    0.0464026 -+--
   266   0   0   F    T  1.37D+00 0.00014148 0.00004798 0.00090227 0.00030571    0.0464025 -+--
   267   0   0   F    T  2.59D+00 0.00011976 0.00004437 0.00086340 0.00030571    0.0464025 -+--
   268   0   0   F    T  1.57D+00 0.00013673 0.00005073 0.00095104 0.00030571    0.0464025 -+--
   269   0   0   F    T  2.07D+00 0.00020200 0.00005620 0.00100446 0.00030571    0.0464024 -+--
   270   0   0   F    F -4.57D-01 0.00020200 0.00005620 0.00045919 0.00013975    0.0464024 -+-+
   271   0   0   F    T  5.00D+00 0.00006845 0.00002633 0.00036548 0.00016596    0.0464024 ====
 ****************************
 MOLECULAR MECHANICS FUNCTION
 ****************************
 Atomic parameters:
 Center  VDW
      1 1.9080 0.0860000
      2 1.7210 0.2104000
      3 1.9080 0.1094000
      4 1.4870 0.0157000
      5 1.4870 0.0157000
      6 1.8750 0.1700000
      7 0.6000 0.0157000
      8 0.6000 0.0157000
      9 1.6612 0.2100000
     10 0.0000 0.0000000
 Molecular mechanics terms:
 NBDir 3 1      0      0
 HrmStr1  1- 2  431.53 1.3510
 HrmStr1  1- 3  294.15 1.5090
 HrmStr1  1- 9  946.08 1.2030
 HrmStr1  2-10  566.76 0.9680
 HrmStr1  3- 4  358.05 1.0960
 HrmStr1  3- 5  358.05 1.0960
 HrmStr1  3- 6  380.82 1.4520
 HrmStr1  6- 7  506.01 1.0110
 HrmStr1  6- 8  506.01 1.0110
 HrmBnd1  1- 2-10  56.55 107.23
 HrmBnd1  1- 3- 4  46.41 106.89
 HrmBnd1  1- 3- 5  46.41 106.89
 HrmBnd1  1- 3- 6  59.93 110.61
 HrmBnd1  2- 1- 3  67.92 111.72
 HrmBnd1  2- 1- 9  91.40 123.02
 HrmBnd1  3- 1- 9  62.83 125.24
 HrmBnd1  3- 6- 7  52.60 110.71
 HrmBnd1  3- 6- 8  52.60 110.71
 HrmBnd1  4- 3- 5  44.68 106.22
 HrmBnd1  4- 3- 6  52.45 112.94
 HrmBnd1  5- 3- 6  52.45 112.94
 HrmBnd1  7- 6- 8  47.09 108.63
 AmbTrs  3- 1- 2-10   0 180   0   0  0.0000 14.5000  0.0000  0.0000  2.0
 AmbTrs  9- 1- 2-10   0   0   0   0  0.0000 14.5000  0.0000  0.0000  2.0
 AmbTrs  2- 1- 3- 4   0   0   0   0  0.0000 14.5000  0.0000  0.0000  6.0
 AmbTrs  2- 1- 3- 5   0   0   0   0  0.0000 14.5000  0.0000  0.0000  6.0
 AmbTrs  2- 1- 3- 6   0   0   0   0  0.0000 14.5000  0.0000  0.0000  6.0
 AmbTrs  9- 1- 3- 4   0   0   0   0  0.0000 14.5000  0.0000  0.0000  6.0
 AmbTrs  9- 1- 3- 5   0   0   0   0  0.0000 14.5000  0.0000  0.0000  6.0
 AmbTrs  9- 1- 3- 6   0   0   0   0  0.0000 14.5000  0.0000  0.0000  6.0
 AmbTrs  1- 3- 6- 7   0 180   0   0  0.0000 25.6300  0.0000  0.0000  6.0
 AmbTrs  1- 3- 6- 8   0 180   0   0  0.0000 25.6300  0.0000  0.0000  6.0
 AmbTrs  4- 3- 6- 7   0   0   0   0  0.0000 16.9300  0.0000  0.0000  6.0
 AmbTrs  4- 3- 6- 8   0   0   0   0  0.0000 16.9300  0.0000  0.0000  6.0
 AmbTrs  5- 3- 6- 7   0   0   0   0  0.0000 16.9300  0.0000  0.0000  6.0
 AmbTrs  5- 3- 6- 8   0   0   0   0  0.0000 16.9300  0.0000  0.0000  6.0
 NBPair  2- 1 3 1      0      0 -1.000 -1.000
 NBPair  3- 2 3 1      0      0 -1.000 -1.000
 NBPair 10- 3 3 1      0      0 -0.500 -0.167
 NBPair  9- 2 3 1      0      0 -1.000 -1.000
 NBPair 10- 9 3 1      0      0 -0.500 -0.167
 NBPair  3- 1 3 1      0      0 -1.000 -1.000
 NBPair  4- 2 3 1      0      0 -0.500 -0.167
 NBPair  5- 2 3 1      0      0 -0.500 -0.167
 NBPair  6- 2 3 1      0      0 -0.500 -0.167
 NBPair  9- 3 3 1      0      0 -1.000 -1.000
 NBPair  9- 4 3 1      0      0 -0.500 -0.167
 NBPair  9- 5 3 1      0      0 -0.500 -0.167
 NBPair  9- 6 3 1      0      0 -0.500 -0.167
 NBPair  9- 1 3 1      0      0 -1.000 -1.000
 NBPair 10- 1 3 1      0      0 -1.000 -1.000
 NBPair 10- 2 3 1      0      0 -1.000 -1.000
 NBPair  4- 1 3 1      0      0 -1.000 -1.000
 NBPair  5- 1 3 1      0      0 -1.000 -1.000
 NBPair  6- 1 3 1      0      0 -1.000 -1.000
 NBPair  4- 3 3 1      0      0 -1.000 -1.000
 NBPair  5- 4 3 1      0      0 -1.000 -1.000
 NBPair  6- 4 3 1      0      0 -1.000 -1.000
 NBPair  5- 3 3 1      0      0 -1.000 -1.000
 NBPair  6- 5 3 1      0      0 -1.000 -1.000
 NBPair  6- 3 3 1      0      0 -1.000 -1.000
 NBPair  7- 1 3 1      0      0 -0.500 -0.167
 NBPair  8- 1 3 1      0      0 -0.500 -0.167
 NBPair  7- 4 3 1      0      0 -0.500 -0.167
 NBPair  8- 4 3 1      0      0 -0.500 -0.167
 NBPair  7- 5 3 1      0      0 -0.500 -0.167
 NBPair  8- 5 3 1      0      0 -0.500 -0.167
 NBPair  7- 3 3 1      0      0 -1.000 -1.000
 NBPair  8- 3 3 1      0      0 -1.000 -1.000
 NBPair  7- 6 3 1      0      0 -1.000 -1.000
 NBPair  8- 7 3 1      0      0 -1.000 -1.000
 NBPair  8- 6 3 1      0      0 -1.000 -1.000
 Energy per function type:
 Direct Coulomb + vdW (small)                           0.003881896
 Direct Coulomb (large)                                -0.131920389
 Direct vdW (large)                                   268.575270246
 Non-direct Coulomb + vdW (small)                      -0.012143214
 Non-direct Coulomb (large)                             0.138205282
 Non-direct vdW (large)                              -268.575270246
 Harmonic stretch I                                     0.000125429
 Harmonic bend I                                        0.010139728
 Amber torsion                                          0.038113655
 Energy per function class:
        Coulomb              -0.003807566
    Vanderwaals               0.001831140
     Stretching               0.000125429
        Bending               0.010139728
        Torsion               0.038113655
 Energy=    4.640238725E-02 NIter=   0.
 Dipole moment=       0.554442       0.264296       0.195035
 Leave Link  402 at Sun Nov 26 11:20:26 2023, MaxMem=   134217728 cpu:               0.4 elap:               0.4
 (Enter /home/emanuele/chem_software/gaussian//gdv/l716.exe)
 Dipole        = 5.54441599D-01 2.64296015D-01 1.95035050D-01
 -------------------------------------------------------------------
 Center     Atomic                   Forces (Hartrees/Bohr)
 Number     Number              X              Y              Z
 -------------------------------------------------------------------
      1        6          -0.000038889    0.000045741    0.000029927
      2        8          -0.000029697    0.000014149    0.000009673
      3        6           0.000008506    0.000028232    0.000020653
      4        1          -0.000010310   -0.000055359    0.000005709
      5        1           0.000033371    0.000016260   -0.000043383
      6        7           0.000068454   -0.000015275   -0.000013553
      7        1           0.000007199   -0.000006657    0.000017069
      8        1          -0.000012412    0.000001048    0.000008843
      9        8          -0.000021103   -0.000021952   -0.000013544
     10        1          -0.000005119   -0.000006188   -0.000021394
 -------------------------------------------------------------------
 Cartesian Forces:  Max     0.000068454 RMS     0.000026326
 Z-matrix is all fixed cartesians, so copy forces.
 Leave Link  716 at Sun Nov 26 11:20:27 2023, MaxMem=   134217728 cpu:               0.0 elap:               0.0
 (Enter /home/emanuele/chem_software/gaussian//gdv/l103.exe)

 GradGradGradGradGradGradGradGradGradGradGradGradGradGradGradGradGradGrad
 Berny optimization.
 Search for a local minimum.
 Step number   1 out of a maximum of    2
 All quantities printed in internal units (Hartrees-Bohrs-Radians)
 RMS Force = .26326D-04 SwitMx=.10000D-02 MixMth= 2
 Mixed Optimization -- En-DIIS/RFO-DIIS
 Second derivative matrix not updated -- unit matrix used.
 ITU=  0
 RFO step:  Lambda=-2.07920710D-08 EMin= 1.00000000D+00
 Linear search not attempted -- first point.
 Variable       Old X    -DE/DX   Delta X   Delta X   Delta X     New X
                                 (Linear)    (Quad)   (Total)
    X1       -1.28846  -0.00004   0.00000  -0.00004  -0.00004  -1.28849
    Y1       -0.36333   0.00005   0.00000   0.00005   0.00005  -0.36328
    Z1        0.05385   0.00003   0.00000   0.00003   0.00003   0.05388
    X2       -1.48215  -0.00003   0.00000  -0.00003  -0.00003  -1.48218
    Y2        2.10156   0.00001   0.00000   0.00001   0.00001   2.10158
    Z2       -0.57875   0.00001   0.00000   0.00001   0.00001  -0.57874
    X3        1.36510   0.00001   0.00000   0.00001   0.00001   1.36511
    Y3       -1.26814   0.00003   0.00000   0.00003   0.00003  -1.26811
    Z3       -0.59458   0.00002   0.00000   0.00002   0.00002  -0.59456
    X4        1.11697  -0.00001   0.00000  -0.00001  -0.00001   1.11696
    Y4       -3.30485  -0.00006   0.00000  -0.00006  -0.00006  -3.30491
    Z4       -0.89253   0.00001   0.00000   0.00001   0.00001  -0.89252
    X5        1.80546   0.00003   0.00000   0.00003   0.00003   1.80549
    Y5       -0.40691   0.00002   0.00000   0.00002   0.00002  -0.40690
    Z5       -2.42896  -0.00004   0.00000  -0.00004  -0.00004  -2.42900
    X6        3.09845   0.00007   0.00000   0.00007   0.00007   3.09852
    Y6       -0.69908  -0.00002   0.00000  -0.00002  -0.00002  -0.69910
    Z6        1.47358  -0.00001   0.00000  -0.00001  -0.00001   1.47356
    X7        2.50257   0.00001   0.00000   0.00001   0.00001   2.50258
    Y7        0.33788  -0.00001   0.00000  -0.00001  -0.00001   0.33788
    Z7        2.96489   0.00002   0.00000   0.00002   0.00002   2.96490
    X8        4.96386  -0.00001   0.00000  -0.00001  -0.00001   4.96385
    Y8       -1.07483   0.00000   0.00000   0.00000   0.00000  -1.07483
    Z8        1.29298   0.00001   0.00000   0.00001   0.00001   1.29299
    X9       -3.04728  -0.00002   0.00000  -0.00002  -0.00002  -3.04730
    Y9       -1.73851  -0.00002   0.00000  -0.00002  -0.00002  -1.73853
    Z9       -0.36880  -0.00001   0.00000  -0.00001  -0.00001  -0.36881
   X10       -2.83239  -0.00001   0.00000  -0.00001  -0.00001  -2.83240
   Y10        2.78116  -0.00001   0.00000  -0.00001  -0.00001   2.78115
   Z10        0.44827  -0.00002   0.00000  -0.00002  -0.00002   0.44824
         Item               Value     Threshold  Converged?
 Maximum Force            0.000068     0.000450     YES
 RMS     Force            0.000026     0.000300     YES
 Maximum Displacement     0.000068     0.001800     YES
 RMS     Displacement     0.000026     0.001200     YES
 Predicted change in Energy=-1.039604D-08
 Optimization completed.
    -- Stationary point found.
 Largest change from initial coordinates is atom    8       0.750 Angstoms.
 GradGradGradGradGradGradGradGradGradGradGradGradGradGradGradGradGradGrad

 Leave Link  103 at Sun Nov 26 11:20:27 2023, MaxMem=   134217728 cpu:               0.0 elap:               0.0
 (Enter /home/emanuele/chem_software/gaussian//gdv/l202.exe)
                          Input orientation:                          
 ---------------------------------------------------------------------
 Center     Atomic      Atomic             Coordinates (Angstroms)
 Number     Number       Type             X           Y           Z
 ---------------------------------------------------------------------
      1          6    20001002       -0.681821   -0.192266    0.028497
      2          8    20001022       -0.784321    1.112099   -0.306261
      3          6    20001001        0.722378   -0.671069   -0.314638
      4          1    20001034        0.591076   -1.748852   -0.472305
      5          1    20001034        0.955407   -0.215329   -1.285348
      6          7    20001020        1.639629   -0.369940    0.779784
      7          1    20001029        1.324303    0.178800    1.568950
      8          1    20001029        2.626764   -0.568778    0.684216
      9          8    20001025       -1.612551   -0.919978   -0.195158
     10          1    20001031       -1.498837    1.471725    0.237212
 ---------------------------------------------------------------------
                    Distance matrix (angstroms):
                    1          2          3          4          5
     1  C    0.000000
     2  O    1.350532   0.000000
     3  C    1.522751   2.334502   0.000000
     4  H    2.072204   3.178731   1.097140   0.000000
     5  H    2.099342   2.397359   1.097397   1.773547   0.000000
     6  N    2.446453   3.041622   1.459379   2.137425   2.181017
     7  H    2.556408   2.972164   2.152323   2.901755   2.904899
     8  H    3.393886   3.929617   2.152872   2.621858   2.607210
     9  O    1.202433   2.197191   2.351197   2.370615   2.877404
    10  H    1.865460   0.967071   3.135267   3.904262   3.344795
                    6          7          8          9         10
     6  N    0.000000
     7  H    1.011597   0.000000
     8  H    1.011487   1.742995   0.000000
     9  O    3.439437   3.597847   4.343781   0.000000
    10  H    3.679141   3.378653   4.624289   2.433129   0.000000
 Symmetry turned off by external request.
 Stoichiometry    C2H5NO2
 Framework group  C1[X(C2H5NO2)]
 Deg. of freedom    24
 Full point group                 C1      NOp   1
 Rotational constants (GHZ):           9.5061012           3.8978555           3.1085022
 Leave Link  202 at Sun Nov 26 11:20:27 2023, MaxMem=   134217728 cpu:               0.0 elap:               0.0
 (Enter /home/emanuele/chem_software/gaussian//gdv/l9999.exe)
 Unable to Open any file for archive entry.
 1\1\GINC-EMANUELE-XPS-13-9343\FOpt\AMBER\ZDO\C2H5N1O2\EMANUELE\26-Nov-
 2023\0\\#p Amber=(SoftFirst,Print) geom=nocrowd nosymm opt=(maxcycle=3
 00)\\Title\\0,1\C,-0.6818213883,-0.1922661385,0.0284970598\O,-0.784320
 704,1.1120991322,-0.3062608345\C,0.7223782426,-0.6710687512,-0.3146379
 874\H,0.5910763898,-1.7488518935,-0.472304637\H,0.9554072517,-0.215328
 9877,-1.2853482163\N,1.639628738,-0.3699397401,0.7797841355\H,1.324302
 7434,0.1787996908,1.5689501669\H,2.6267638569,-0.5687780379,0.68421643
 41\O,-1.6125512956,-0.9199778551,-0.1951580096\H,-1.4988368346,1.47172
 4581,0.2372118885\\Version=ES64L-GDVRevJ.14\HF=0.0464024\RMSD=0.000e+0
 0\RMSF=2.633e-05\Dipole=0.5544416,0.264296,0.1950351\PG=C01 [X(C2H5N1O
 2)]\\@
 The archive entry for this job was punched.


 A leading authority is anyone who has guessed right more than once.
 -- Frank A. Clark
 Job cpu time:       0 days  0 hours  0 minutes  0.9 seconds.
 Elapsed time:       0 days  0 hours  0 minutes  0.9 seconds.
 File lengths (MBytes):  RWF=      6 Int=      0 D2E=      0 Chk=      1 Scr=      1
 Normal termination of Gaussian DV at Sun Nov 26 11:20:27 2023.
