 Entering Gaussian System, Link 0=/home/emanuele/chem_software/gaussian//g09/g09
 Input=2_zmat_mm_90.gjf
 Output=2_zmat_mm_90.log
 Initial command:
 /home/emanuele/chem_software/gaussian//gdv/l1.exe "/home/emanuele/chem_software/gaussian/scratch/Gau-6307.inp" -scrdir="/home/emanuele/chem_software/gaussian/scratch/"
 Entering Link 1 = /home/emanuele/chem_software/gaussian//gdv/l1.exe PID=      6309.
  
 Copyright (c) 1988-2020, Gaussian, Inc.  All Rights Reserved.
  
 This is the private, development version of
 the Gaussian(R) DV system of programs. It is based on
 the Gaussian(R) 16 system (copyright 2016, Gaussian, Inc.),
 the Gaussian(R) 09 system (copyright 2009, Gaussian, Inc.),
 the Gaussian(R) 03 system (copyright 2003, Gaussian, Inc.),
 the Gaussian(R) 98 system (copyright 1998, Gaussian, Inc.),
 the Gaussian(R) 94 system (copyright 1995, Gaussian, Inc.),
 the Gaussian 92(TM) system (copyright 1992, Gaussian, Inc.),
 the Gaussian 90(TM) system (copyright 1990, Gaussian, Inc.),
 the Gaussian 88(TM) system (copyright 1988, Gaussian, Inc.),
 the Gaussian 86(TM) system (copyright 1986, Carnegie Mellon
 University), and the Gaussian 82(TM) system (copyright 1983,
 Carnegie Mellon University). Gaussian is a federally registered
 trademark of Gaussian, Inc.
  
 This software contains proprietary and confidential information,
 including trade secrets, belonging to Gaussian, Inc.
  
 This software is provided under written license and may be
 used, copied, transmitted, or stored only in accord with that
 written license.
  
 The following legend is applicable only to US Government
 contracts under FAR:
  
                    RESTRICTED RIGHTS LEGEND
  
 Use, reproduction and disclosure by the US Government is
 subject to restrictions as set forth in subparagraphs (a)
 and (c) of the Commercial Computer Software - Restricted
 Rights clause in FAR 52.227-19.
  
 Gaussian, Inc.
 340 Quinnipiac St., Bldg. 40, Wallingford CT 06492
  
  
 ---------------------------------------------------------------
 Warning -- This program may not be used in any manner that
 competes with the business of Gaussian, Inc. or will provide
 assistance to any competitor of Gaussian, Inc.  The licensee
 of this program is prohibited from giving any competitor of
 Gaussian, Inc. access to this program.  By using this program,
 the user acknowledges that Gaussian, Inc. is engaged in the
 business of creating and licensing software in the field of
 computational chemistry and represents and warrants to the
 licensee that it is not a competitor of Gaussian, Inc. and that
 it will not use this program in any manner prohibited above.
 ---------------------------------------------------------------
  

 Cite this work as:
 Gaussian Development Version, Revision J.14,
 M. J. Frisch, G. W. Trucks, H. B. Schlegel, G. E. Scuseria, 
 M. A. Robb, J. R. Cheeseman, G. Scalmani, V. Barone, 
 G. A. Petersson, H. Nakatsuji, X. Li, A. V. Marenich, M. Caricato, 
 J. Bloino, B. G. Janesko, J. Zheng, R. Gomperts, B. Mennucci, 
 H. P. Hratchian, J. V. Ortiz, A. F. Izmaylov, J. L. Sonnenberg, 
 D. Williams-Young, F. Ding, F. Lipparini, F. Egidi, J. Goings, 
 B. Peng, A. Petrone, T. Henderson, D. Ranasinghe, V. G. Zakrzewski, 
 J. Gao, N. Rega, G. Zheng, W. Liang, M. Hada, M. Ehara, K. Toyota, 
 R. Fukuda, J. Hasegawa, M. Ishida, T. Nakajima, Y. Honda, O. Kitao, 
 H. Nakai, T. Vreven, K. Throssell, J. A. Montgomery, Jr., 
 J. E. Peralta, F. Ogliaro, M. J. Bearpark, J. J. Heyd, 
 E. N. Brothers, K. N. Kudin, V. N. Staroverov, T. A. Keith, 
 R. Kobayashi, J. Normand, K. Raghavachari, A. P. Rendell, 
 J. C. Burant, S. S. Iyengar, J. Tomasi, M. Cossi, J. M. Millam, 
 M. Klene, C. Adamo, R. Cammi, J. W. Ochterski, R. L. Martin, 
 K. Morokuma, O. Farkas, J. B. Foresman, and D. J. Fox, 
 Gaussian, Inc., Wallingford CT, 2020.
 
 ******************************************
 Gaussian DV:  ES64L-GDVRevJ.14 29-Dec-2020
                26-Nov-2023 
 ******************************************
 %mem=1GB
 %nprocshared=1
 Will use up to    1 processors via shared memory.
 %chk=2_zmat_mm_90.chk
 -----------------------------------------------------------------
 #p Amber=(SoftFirst,Print) geom=nocrowd nosymm opt=(maxcycle=300)
 -----------------------------------------------------------------
 1/6=300,10=10,18=4000020,19=15,37=210000000,38=1,56=2,64=203/1,3;
 2/9=110,12=1,15=1,40=1/2;
 3/5=30,11=9,25=1,30=1,41=10030000,43=2,71=1/1;
 4/20=11,22=1001,24=3,119=11/2;
 7/30=1,44=-1/16;
 1/6=300,10=10,18=4000020,19=15,64=203/3(2);
 2/9=110,12=1,15=1/2;
 99//99;
 2/9=110,12=1,15=1/2;
 3/5=30,11=9,25=1,30=1,41=10030000,43=2,71=1/1;
 4/16=2,20=11,22=1001,24=3,119=11/2;
 7/30=1,44=-1/16;
 1/6=300,10=10,18=4000020,19=15,64=203/3(-4);
 2/9=110,12=1,15=1/2;
 99/9=10/99;
 Leave Link    1 at Sun Nov 26 11:20:27 2023, MaxMem=   134217728 cpu:               0.0 elap:               0.0
 (Enter /home/emanuele/chem_software/gaussian//gdv/l101.exe)
 -----
 Title
 -----
 Symbolic Z-matrix:
 Charge =  0 Multiplicity = 1
 C-C-+0.299289        -0.49451   0.04033   0.20708 
 O-OH--0.289770       -1.22061   0.78856  -0.69855 
 C-CT--0.035454        0.87011  -0.26002  -0.38997 
 H-HC-+0.090426        0.78815  -1.25087  -0.90411 
 H-HC-+0.095387        1.13      0.48723  -1.18224 
 N-N3--0.336253        1.85844  -0.70754   0.6125 
 H-H-+0.142619         2.12815   0.05488   1.23111 
 H-H-+0.128282         1.48254  -1.46039   1.18749 
 O-O2--0.308037       -1.08219  -0.50937   1.10664 
 H-HO-+0.213510       -2.17806   0.89361  -0.445 
 
 ITRead=  3  3  3  3  3  3  3  3  3  3
 MicOpt=  0  0  0  0  0  0  0  0  0  0
 NAtoms=     10 NQM=        0 NQMF=       0 NMMI=      0 NMMIF=      0
                NMic=      10 NMicF=      0.
                    Isotopes and Nuclear Properties:
 (Nuclear quadrupole moments (NQMom) in fm**2, nuclear magnetic moments (NMagM)
  in nuclear magnetons)

  Atom         1           2           3           4           5           6           7           8           9          10
 IAtWgt=          12          16          12           1           1          14           1           1          16           1
 AtmWgt=  12.0000000  15.9949146  12.0000000   1.0078250   1.0078250  14.0030740   1.0078250   1.0078250  15.9949146   1.0078250
 NucSpn=           0           0           0           1           1           2           1           1           0           1
 AtZEff=  -0.0000000  -0.0000000  -0.0000000  -0.0000000  -0.0000000  -0.0000000  -0.0000000  -0.0000000  -0.0000000  -0.0000000
 NQMom=    0.0000000   0.0000000   0.0000000   0.0000000   0.0000000   2.0440000   0.0000000   0.0000000   0.0000000   0.0000000
 NMagM=    0.0000000   0.0000000   0.0000000   2.7928460   2.7928460   0.4037610   2.7928460   2.7928460   0.0000000   2.7928460
 AtZNuc=   6.0000000   8.0000000   6.0000000   1.0000000   1.0000000   7.0000000   1.0000000   1.0000000   8.0000000   1.0000000
 Generating MM parameters.
 I=    1 IAn=  6 Valence= 5.
          JB=  1 J=    2 IAn=  8 IBT=12 Dist= 1.38D+00
          JB=  2 J=    3 IAn=  6 IBT= 1 Dist= 1.52D+00
          JB=  3 J=    9 IAn=  8 IBT= 2 Dist= 1.21D+00
 I=    2 IAn=  8 Valence= 3.
          JB=  1 J=    1 IAn=  6 IBT=12 Dist= 1.38D+00
          JB=  2 J=   10 IAn=  1 IBT= 1 Dist= 9.96D-01
 Read MM parameter file:
 Include all MM classes

 MM sanity checks:
 All charges sum to:               -0.00000100
 Charges of atoms sum to:          -0.00000100
 WARNING -- The following centers have non-zero partial charges, but zero Vanderwaals
 parameters.  These centers can collapse onto other centers with non-zero charge.
   Center  Layer   Charge
     10 H    R    0.213510
 MMInit generated parameter data with length LenPar=        2069.
 MM Charge=             -0.0000 electrons
 MM Dipole moment (Debye):
    X=              0.4372    Y=              0.6352    Z=             -1.1059  Tot=              1.3482
 MM Quadrupole moment (Debye-Ang):
   XX=              1.0147   YY=              0.8564   ZZ=              0.0443
   XY=             -0.7684   XZ=              1.6093   YZ=              1.0926
 MM Traceless Quadrupole moment (Debye-Ang):
   XX=              0.3762   YY=              0.2179   ZZ=             -0.5942
   XY=             -0.7684   XZ=              1.6093   YZ=              1.0926
 MM Octapole moment (Debye-Ang**2):
  XXX=             -7.3586  YYY=             -1.8961  ZZZ=             -0.7375  XYY=              0.7856
  XXY=              5.7294  XXZ=             -1.4353  XZZ=              5.6696  YZZ=             -0.3372
  YYZ=              0.1451  XYZ=             -1.0671
 MM Hexadecapole moment (Debye-Ang**3):
 XXXX=             16.6259 YYYY=              3.5025 ZZZZ=              1.2452 XXXY=             -3.5850
 XXXZ=              8.2196 YYYX=             -3.3618 YYYZ=             -0.8562 ZZZX=              4.2419
 ZZZY=              0.1712 XXYY=              2.8040 XXZZ=              3.3825 YYZZ=              1.5285
 XXYZ=              0.4208 YYXZ=              1.2882 ZZXY=             -1.6964
 Leave Link  101 at Sun Nov 26 11:20:27 2023, MaxMem=   134217728 cpu:               0.2 elap:               0.3
 (Enter /home/emanuele/chem_software/gaussian//gdv/l103.exe)

 GradGradGradGradGradGradGradGradGradGradGradGradGradGradGradGradGradGrad
 Berny optimization.
 Initialization pass.
 No Z-matrix variables, so optimization will use Cartesian coordinates.
 Trust Radius=1.00D-01 FncErr=1.00D-07 GrdErr=1.00D-07 EigMax=2.50D+02 EigMin=1.00D-04
 Number of steps in this run=      2 maximum allowed number of steps=      2.
 GradGradGradGradGradGradGradGradGradGradGradGradGradGradGradGradGradGrad

 Leave Link  103 at Sun Nov 26 11:20:27 2023, MaxMem=   134217728 cpu:               0.0 elap:               0.0
 (Enter /home/emanuele/chem_software/gaussian//gdv/l202.exe)
                          Input orientation:                          
 ---------------------------------------------------------------------
 Center     Atomic      Atomic             Coordinates (Angstroms)
 Number     Number       Type             X           Y           Z
 ---------------------------------------------------------------------
      1          6    20001002       -0.494509    0.040330    0.207083
      2          8    20001022       -1.220606    0.788558   -0.698547
      3          6    20001001        0.870108   -0.260021   -0.389974
      4          1    20001034        0.788150   -1.250870   -0.904110
      5          1    20001034        1.130004    0.487228   -1.182237
      6          7    20001020        1.858436   -0.707536    0.612495
      7          1    20001029        2.128152    0.054880    1.231109
      8          1    20001029        1.482541   -1.460392    1.187487
      9          8    20001025       -1.082194   -0.509371    1.106641
     10          1    20001031       -2.178058    0.893607   -0.444995
 ---------------------------------------------------------------------
                    Distance matrix (angstroms):
                    1          2          3          4          5
     1  C    0.000000
     2  O    1.381024   0.000000
     3  C    1.519496   2.359199   0.000000
     4  H    2.132407   2.869952   1.119301   0.000000
     5  H    2.183797   2.418703   1.119646   1.793099   0.000000
     6  N    2.502002   3.665737   1.477161   1.934119   2.275772
     7  H    2.815527   3.933959   2.075993   2.838970   2.647161
     8  H    2.668724   3.990226   2.074692   2.213788   3.087572
     9  O    1.206959   2.227663   2.472552   2.844491   3.335565
    10  H    1.996904   0.996011   3.259632   3.688897   3.413494
                    6          7          8          9         10
     6  N    0.000000
     7  H    1.018189   0.000000
     8  H    1.019169   1.647655   0.000000
     9  O    2.988437   3.261931   2.736575   0.000000
    10  H    4.469365   4.696406   4.648257   2.361533   0.000000
 Symmetry turned off by external request.
 Stoichiometry    C2H5NO2
 Framework group  C1[X(C2H5NO2)]
 Deg. of freedom    24
 Full point group                 C1      NOp   1
 Rotational constants (GHZ):          10.0209417           3.7796764           2.8727508
 Leave Link  202 at Sun Nov 26 11:20:27 2023, MaxMem=   134217728 cpu:               0.0 elap:               0.0
 (Enter /home/emanuele/chem_software/gaussian//gdv/l301.exe)
 Standard basis: Dummy (5D, 7F)
    10 basis functions,    10 primitive gaussians,    10 cartesian basis functions
     7 alpha electrons        7 beta electrons
       nuclear repulsion energy        22.5376152432 Hartrees.
 IExCor=       0 DFT=F Ex=HF Corr=None N6=None ScaHFX=  1.000000
 ScaDFX=  1.000000  1.000000  1.000000  1.000000  1.000000  0.000000
 ScaDFX=  0.000000  0.000000  0.000000  0.000000  0.000000  0.000000
 IRadAn=      5 IRanWt=     -1 IRanGd=            0 ICorTp=0 IEmpDi=  4
 NAtoms=   10 NActive=   10 NUniq=   10 SFac= 1.00D+00 NAtFMM=   60 NAOKFM=F Big=F
 Integral buffers will be    131072 words long.
 Raffenetti 1 integral format.
 Two-electron integral symmetry is turned off.
 Leave Link  301 at Sun Nov 26 11:20:27 2023, MaxMem=   134217728 cpu:               0.1 elap:               0.0
 (Enter /home/emanuele/chem_software/gaussian//gdv/l402.exe)
 AMBER calculation of energy and first derivatives.
 NRF= 0 NRA=   0 NVA=  10 HaveQM=F NVQ=       0
 Convergence limit is  0.750E-04 MaxStp= 10000 StMxLn= 3.00D-04 StpMin= 1.00D-06.
 Convergence criteria             0.00011250 0.00007500 0.00045000 0.00030000
  Step  NS  ND Rises OKQ   Scale  Max. Force  RMS Force Max. Disp.  RMS Disp.     Energy   Flag
     1   0   0   F    T  1.00D+00 0.05001720 0.01715730 0.05001720 0.01715730    0.1055929 ----
     2   0   0   F    F  5.77D-01 0.05001720 0.01715730 0.02884729 0.00989543    0.0995945 ----
     3   0   0   F    T  1.95D+00 0.02477149 0.01153634 0.06021614 0.02705273    0.0986770 ----
     4   0   0   F    F  1.05D+00 0.02477149 0.01153634 0.06314170 0.02836707    0.0928383 ----
     5   0   0   F    T  2.13D+00 0.03541334 0.01417739 0.11918881 0.05541979    0.0907929 ----
     6   0   0   F    F -4.45D-01 0.03541334 0.01417739 0.05305203 0.02466786    0.0895943 ----
     7   0   0   F    T  1.67D+00 0.02849353 0.01094360 0.06258931 0.03075194    0.0871876 ----
     8   0   0   F    T  1.99D+00 0.02074500 0.00943697 0.08636577 0.03075194    0.0841326 ----
     9   0   0   F    F  6.58D-01 0.02074500 0.00943697 0.05685406 0.02024381    0.0803749 ----
    10   0   0   F    F -2.18D-02 0.02074500 0.00943697 0.00124123 0.00044196    0.0796676 ----
    11   0   0   F    T  4.59D+00 0.01555483 0.00774047 0.15502317 0.05055379    0.0796672 ----
    12   0   0   T    F  4.85D-01 0.01555483 0.00774047 0.07514607 0.02450549    0.0800582 ----
    13   0   0   F    T  2.80D+00 0.01230258 0.00604057 0.06069662 0.02450549    0.0776454 ----
    14   0   0   F    F  1.49D-01 0.01230258 0.00604057 0.00901533 0.00363982    0.0759402 ----
    15   0   0   F    T  1.59D+00 0.02169426 0.00814296 0.06332534 0.02814531    0.0759120 ----
    16   0   0   F    F -1.81D-01 0.02169426 0.00814296 0.01147004 0.00509793    0.0746733 ----
    17   0   0   F    T  2.18D+00 0.01523664 0.00573906 0.05655462 0.02304738    0.0746082 ----
    18   0   0   F    F -2.75D-01 0.01523664 0.00573906 0.01553224 0.00632977    0.0739374 ----
    19   0   0   F    T  3.16D+00 0.00654953 0.00361230 0.03886058 0.01671762    0.0738238 ----
    20   0   0   F    F  2.26D-02 0.00654953 0.00361230 0.00088002 0.00037858    0.0731969 ----
    21   0   0   F    T  4.59D+00 0.00527636 0.00254833 0.04689132 0.01709620    0.0731966 ----
    22   0   0   F    F -4.56D-01 0.00527636 0.00254833 0.02137567 0.00779340    0.0731253 ----
    23   0   0   F    T  2.13D+00 0.00496567 0.00249971 0.01866273 0.00930280    0.0729527 ----
    24   0   0   F    F  6.07D-01 0.00496567 0.00249971 0.01132549 0.00564541    0.0726780 ----
    25   0   0   F    T  3.74D+00 0.00598809 0.00219508 0.03195936 0.01494821    0.0726325 ----
    26   0   0   T    F  3.14D-01 0.00598809 0.00219508 0.01004254 0.00469715    0.0729532 ----
    27   0   0   F    T  1.50D+00 0.00360324 0.00176100 0.00809716 0.00469715    0.0725475 ----
    28   0   0   F    F  1.93D-01 0.00360324 0.00176100 0.00156523 0.00090799    0.0724660 ----
    29   0   0   F    T  2.74D+00 0.00303464 0.00127101 0.01554610 0.00560515    0.0724638 ----
    30   0   0   F    F -2.11D-01 0.00303464 0.00127101 0.00327706 0.00118154    0.0724152 ----
    31   0   0   F    T  6.49D+00 0.00158603 0.00055805 0.01220277 0.00442360    0.0724114 ----
    32   0   0   F    F -4.40D-01 0.00158603 0.00055805 0.00536825 0.00194603    0.0724049 ----
    33   0   0   F    T  1.78D+00 0.00213004 0.00073558 0.00716712 0.00247757    0.0723945 ----
    34   0   0   F    F  1.62D+00 0.00213004 0.00073558 0.01157885 0.00400264    0.0723711 ----
    35   0   0   F    T  3.97D+00 0.00153038 0.00074971 0.01775155 0.00648021    0.0723567 ----
    36   0   0   T    F  3.88D-01 0.00153038 0.00074971 0.00689506 0.00251705    0.0723757 ----
    37   0   0   F    T  1.24D+00 0.00239501 0.00079892 0.00693518 0.00251705    0.0723437 ----
    38   0   0   F    F  7.48D-01 0.00239501 0.00079892 0.00519018 0.00188372    0.0723267 ----
    39   0   0   F    T  2.19D+00 0.00160856 0.00076021 0.01300195 0.00440076    0.0723229 ----
    40   0   0   F    F  2.98D-01 0.00160856 0.00076021 0.00388049 0.00131343    0.0722995 ----
    41   0   0   F    T  4.35D+00 0.00125316 0.00058106 0.01605596 0.00571419    0.0722982 ----
    42   0   0   F    F -1.62D-01 0.00125316 0.00058106 0.00260191 0.00092600    0.0722804 ----
    43   0   0   F    T  1.68D+00 0.00201411 0.00083730 0.01347748 0.00478819    0.0722797 ----
    44   0   0   F    F  4.25D+00 0.00201411 0.00083730 0.05723321 0.02033345    0.0722479 ----
    45   0   0   F    F -9.75D-03 0.00201411 0.00083730 0.00055788 0.00019820    0.0721892 ---+
    46   0   0   F    T  4.40D+00 0.00256057 0.00116926 0.06624709 0.02492344    0.0721892 ----
    47   0   0   F    F -3.10D-01 0.00256057 0.00116926 0.02050551 0.00771457    0.0721393 ----
    48   0   0   F    T  2.55D+00 0.00371277 0.00126557 0.04217352 0.01720887    0.0721264 ----
    49   0   0   F    F  7.22D-02 0.00371277 0.00126557 0.00304395 0.00124208    0.0720607 ----
    50   0   0   F    T  1.82D+00 0.00436339 0.00155472 0.04297566 0.01845095    0.0720604 ----
    51   0   0   F    F -3.19D-01 0.00436339 0.00155472 0.01372577 0.00589295    0.0720254 ----
    52   0   0   F    T  2.26D+00 0.00299380 0.00118011 0.02696129 0.01255800    0.0720152 ----
    53   0   0   F    F  6.15D-01 0.00299380 0.00118011 0.01658447 0.00772469    0.0719502 ----
    54   0   0   F    T  2.23D+00 0.00582912 0.00151272 0.04198075 0.02028269    0.0719393 ----
    55   0   0   F    F  1.65D+00 0.00582912 0.00151272 0.06907596 0.03337354    0.0718156 ----
    56   0   0   F    F -9.45D-02 0.00582912 0.00151272 0.00652915 0.00315451    0.0717434 ----
    57   0   0   F    T  2.58D+00 0.00436139 0.00223222 0.10462881 0.05050172    0.0717426 ----
    58   0   0   F    F  6.70D-01 0.00436139 0.00223222 0.07011944 0.03384491    0.0714500 ----
    59   0   0   F    F -1.81D-01 0.00436139 0.00223222 0.01267188 0.00611640    0.0713984 ----
    60   0   0   F    T  2.10D+00 0.01075921 0.00357087 0.16207344 0.07823022    0.0713953 ----
    61   0   0   F    F -3.59D-01 0.01075921 0.00357087 0.05811350 0.02805045    0.0712300 ----
    62   0   0   F    F -5.67D-03 0.01075921 0.00357087 0.00032949 0.00015904    0.0711094 --++
    63   0   0   F    T  1.73D+00 0.00910726 0.00408975 0.10118505 0.05033882    0.0711094 ----
    64   0   0   F    F  1.34D+00 0.00910726 0.00408975 0.13568113 0.06750036    0.0704391 ----
    65   0   0   F    F -2.84D-01 0.00910726 0.00408975 0.03853869 0.01917271    0.0702382 ----
    66   0   0   F    F -1.39D-02 0.00910726 0.00408975 0.00053431 0.00026582    0.0701899 ---+
    67   0   0   F    T  2.64D+00 0.01168649 0.00574879 0.21411491 0.09893228    0.0701899 ----
    68   0   0   F    F  9.03D-03 0.01168649 0.00574879 0.00193335 0.00089331    0.0686481 ----
    69   0   0   F    T  2.36D+00 0.01789394 0.00752031 0.23276509 0.09982559    0.0686479 ----
    70   0   0   F    F  7.77D-02 0.01789394 0.00752031 0.01807497 0.00775178    0.0665775 ----
    71   0   0   F    F -1.39D-01 0.01789394 0.00752031 0.00250994 0.00107644    0.0665690 ----
    72   0   0   F    T  2.00D+00 0.02256939 0.00926927 0.25339712 0.10650094    0.0665688 ----
    73   0   0   F    F -2.90D-01 0.02256939 0.00926927 0.07341849 0.03085725    0.0650033 ----
    74   0   0   F    F -1.90D-02 0.02256939 0.00926927 0.00139682 0.00058707    0.0646385 ----
    75   0   0   F    T  1.97D+00 0.02208261 0.00852348 0.17760700 0.07623076    0.0646384 ----
    76   0   0   F    F  6.76D-01 0.02208261 0.00852348 0.12007796 0.05153870    0.0618822 ----
    77   0   0   F    F -2.44D-01 0.02208261 0.00852348 0.02930011 0.01257591    0.0615559 ----
    78   0   0   F    F -1.10D-02 0.02208261 0.00852348 0.00032163 0.00013805    0.0615152 --++
    79   0   0   F    T  2.57D+00 0.01970398 0.00924624 0.26789872 0.11533160    0.0615152 ----
    80   0   0   F    F -3.40D-01 0.01970398 0.00924624 0.09115280 0.03924169    0.0599399 ----
    81   0   0   F    F -1.23D-02 0.01970398 0.00924624 0.00111824 0.00048141    0.0592197 ----
    82   0   0   F    T  1.72D+00 0.02610075 0.00958857 0.20741236 0.07657132    0.0592196 ----
    83   0   0   F    F  1.69D-01 0.02610075 0.00958857 0.03514237 0.01297366    0.0565430 ----
    84   0   0   F    F -5.67D-02 0.02610075 0.00958857 0.00199340 0.00073591    0.0564899 ----
    85   0   0   F    T  3.55D+00 0.01952078 0.00794038 0.27518563 0.08880907    0.0564897 ----
    86   0   0   F    F -2.20D-01 0.01952078 0.00794038 0.06052195 0.01953190    0.0540947 ----
    87   0   0   F    F -1.22D-02 0.01952078 0.00794038 0.00073569 0.00023742    0.0538966 ---+
    88   0   0   F    T  2.27D+00 0.02435705 0.00837649 0.21645707 0.06951459    0.0538965 ----
    89   0   0   F    F -4.78D-01 0.02435705 0.00837649 0.10349864 0.03323830    0.0536348 ----
    90   0   0   F    T  2.24D+00 0.01829931 0.00554679 0.11083349 0.03627629    0.0526706 ----
    91   0   0   F    F  2.25D-02 0.01829931 0.00554679 0.00248926 0.00081475    0.0515983 ----
    92   0   0   F    T  3.58D+00 0.00913426 0.00396934 0.10248674 0.03709104    0.0515977 ----
    93   0   0   F    F -3.25D-01 0.00913426 0.00396934 0.03331362 0.01205655    0.0511606 ----
    94   0   0   F    T  1.65D+00 0.01368940 0.00462016 0.06069798 0.02503449    0.0510407 ----
    95   0   0   F    F -8.70D-02 0.01368940 0.00462016 0.00527881 0.00217721    0.0505574 ----
    96   0   0   F    T  2.35D+00 0.00685980 0.00350711 0.05188962 0.02285727    0.0505529 ----
    97   0   0   F    F  4.10D-02 0.00685980 0.00350711 0.00213002 0.00093827    0.0501052 ----
    98   0   0   F    T  2.60D+00 0.00633275 0.00332664 0.05395622 0.02379554    0.0501045 ----
    99   0   0   F    F -1.64D-01 0.00633275 0.00332664 0.00883242 0.00389524    0.0497561 ----
   100   0   0   F    T  2.05D+00 0.00836464 0.00332667 0.04189641 0.01990031    0.0497421 ----
   101   0   0   F    F -1.23D-01 0.00836464 0.00332667 0.00514766 0.00244508    0.0494514 ----
   102   0   0   F    T  1.69D+00 0.00692330 0.00330825 0.03837487 0.01745523    0.0494457 ----
   103   0   0   F    F  3.98D-01 0.00692330 0.00330825 0.01525431 0.00693859    0.0490879 ----
   104   0   0   F    T  1.93D+00 0.00791656 0.00356309 0.05250968 0.02439382    0.0490565 ----
   105   0   0   F    F  4.41D-01 0.00791656 0.00356309 0.02316488 0.01076144    0.0485780 ----
   106   0   0   F    F -4.48D-02 0.00791656 0.00356309 0.00103826 0.00048233    0.0485302 ----
   107   0   0   F    T  2.62D+00 0.00946996 0.00367660 0.07924663 0.03467292    0.0485301 ----
   108   0   0   F    F -1.20D-01 0.00946996 0.00367660 0.00950701 0.00415962    0.0480660 ----
   109   0   0   F    T  1.72D+00 0.01388407 0.00426100 0.07003978 0.03051330    0.0480572 ----
   110   0   0   F    F -1.19D-01 0.01388407 0.00426100 0.00832129 0.00362523    0.0476564 ----
   111   0   0   F    T  3.25D+00 0.00751204 0.00276788 0.05955762 0.02688808    0.0476494 ----
   112   0   0   F    F -3.78D-01 0.00751204 0.00276788 0.02251146 0.01016310    0.0475047 ----
   113   0   0   F    T  2.37D+00 0.00546459 0.00248377 0.03334920 0.01672498    0.0474127 ----
   114   0   0   F    F -1.92D-01 0.00546459 0.00248377 0.00638730 0.00320330    0.0472466 ----
   115   0   0   F    T  2.04D+00 0.00646841 0.00232818 0.03190019 0.01352168    0.0472370 ----
   116   0   0   F    F -2.05D-01 0.00646841 0.00232818 0.00653579 0.00277036    0.0471139 ----
   117   0   0   F    T  2.51D+00 0.00397509 0.00176555 0.02677231 0.01075132    0.0471052 ----
   118   0   0   F    F -1.81D-01 0.00397509 0.00176555 0.00484626 0.00194618    0.0470141 ----
   119   0   0   F    T  2.37D+00 0.00364234 0.00154242 0.02132124 0.00880514    0.0470095 ----
   120   0   0   F    F -1.95D-01 0.00364234 0.00154242 0.00415250 0.00171488    0.0469452 ----
   121   0   0   F    T  1.94D+00 0.00349869 0.00146139 0.01788736 0.00709026    0.0469412 ----
   122   0   0   F    F -1.60D-01 0.00349869 0.00146139 0.00287057 0.00113785    0.0468909 ----
   123   0   0   F    T  2.42D+00 0.00290365 0.00113189 0.01499084 0.00595241    0.0468890 ----
   124   0   0   F    F  3.47D-01 0.00290365 0.00113189 0.00520775 0.00206784    0.0468306 ----
   125   0   0   F    T  1.73D+00 0.00354267 0.00150729 0.02137063 0.00802026    0.0468265 ----
   126   0   0   F    F -7.64D-02 0.00354267 0.00150729 0.00163370 0.00061312    0.0467725 ----
   127   0   0   F    T  2.45D+00 0.00256852 0.00116441 0.01912728 0.00740714    0.0467721 ----
   128   0   0   F    F -9.91D-02 0.00256852 0.00116441 0.00189488 0.00073380    0.0467276 ----
   129   0   0   F    T  2.13D+00 0.00274245 0.00114785 0.01407677 0.00667333    0.0467270 ----
   130   0   0   F    F -2.14D-01 0.00274245 0.00114785 0.00301871 0.00143107    0.0466965 ----
   131   0   0   F    T  2.71D+00 0.00247775 0.00085005 0.01116479 0.00524227    0.0466941 ----
   132   0   0   F    F -2.99D-01 0.00247775 0.00085005 0.00333817 0.00156739    0.0466772 ----
   133   0   0   F    T  1.88D+00 0.00183980 0.00081198 0.00941713 0.00367487    0.0466735 ----
   134   0   0   F    F  7.19D-02 0.00183980 0.00081198 0.00067683 0.00026412    0.0466537 ---+
   135   0   0   F    T  1.75D+00 0.00203065 0.00083852 0.01019921 0.00393900    0.0466536 ----
   136   0   0   F    F  6.66D-01 0.00203065 0.00083852 0.00679221 0.00262319    0.0466278 ----
   137   0   0   F    T  2.37D+00 0.00214954 0.00089848 0.01586305 0.00656219    0.0466229 ----
   138   0   0   F    F -2.79D-01 0.00214954 0.00089848 0.00443369 0.00183412    0.0466053 ----
   139   0   0   F    T  1.91D+00 0.00229313 0.00082308 0.01103035 0.00472807    0.0466022 ----
   140   0   0   F    F -7.89D-02 0.00229313 0.00082308 0.00087032 0.00037306    0.0465844 ----
   141   0   0   F    T  3.03D+00 0.00129668 0.00060118 0.01288669 0.00435501    0.0465843 ----
   142   0   0   F    F -2.55D-01 0.00129668 0.00060118 0.00329230 0.00111262    0.0465735 ----
   143   0   0   F    T  2.11D+00 0.00121213 0.00059722 0.00999562 0.00324239    0.0465721 ----
   144   0   0   F    F -2.34D-01 0.00121213 0.00059722 0.00234216 0.00075975    0.0465642 ----
   145   0   0   F    T  1.71D+00 0.00129228 0.00055665 0.00753695 0.00248264    0.0465634 ----
   146   0   0   F    F  8.52D-01 0.00129228 0.00055665 0.00642217 0.00211543    0.0465518 ----
   147   0   0   F    T  2.05D+00 0.00156663 0.00067556 0.01308065 0.00459807    0.0465487 ----
   148   0   0   F    F  7.08D-02 0.00156663 0.00067556 0.00092555 0.00032535    0.0465337 ----
   149   0   0   F    T  1.84D+00 0.00184540 0.00072497 0.01223807 0.00492342    0.0465336 ----
   150   0   0   F    F  2.76D-02 0.00184540 0.00072497 0.00033754 0.00013579    0.0465188 --++
   151   0   0   F    T  2.52D+00 0.00138709 0.00061136 0.01019672 0.00505921    0.0465188 ----
   152   0   0   F    F -2.77D-01 0.00138709 0.00061136 0.00282106 0.00139970    0.0465101 ----
   153   0   0   F    T  2.27D+00 0.00122285 0.00053004 0.00704299 0.00365951    0.0465086 ----
   154   0   0   F    F -1.99D-01 0.00122285 0.00053004 0.00140097 0.00072794    0.0465014 ----
   155   0   0   F    T  2.99D+00 0.00099629 0.00039555 0.00643726 0.00293157    0.0465009 ----
   156   0   0   F    F -4.26D-01 0.00099629 0.00039555 0.00274380 0.00124954    0.0464991 ----
   157   0   0   F    T  1.62D+00 0.00087209 0.00039144 0.00443872 0.00168203    0.0464969 ----
   158   0   0   F    F  3.78D-01 0.00087209 0.00039144 0.00167980 0.00063655    0.0464921 ----
   159   0   0   F    T  2.90D+00 0.00086980 0.00032830 0.00714971 0.00231858    0.0464917 ----
   160   0   0   F    F -3.26D-01 0.00086980 0.00032830 0.00233061 0.00075579    0.0464893 ----
   161   0   0   F    T  1.84D+00 0.00087141 0.00032527 0.00485514 0.00156279    0.0464886 ----
   162   0   0   F    T  2.08D+00 0.00061485 0.00030203 0.00481054 0.00156279    0.0464855 ----
   163   0   0   F    F  2.85D-01 0.00061485 0.00030203 0.00137229 0.00044581    0.0464818 ----
   164   0   0   F    T  1.67D+00 0.00074654 0.00035829 0.00611458 0.00200860    0.0464816 ----
   165   0   0   F    F  1.73D-01 0.00074654 0.00035829 0.00105682 0.00034716    0.0464779 ----
   166   0   0   F    T  2.49D+00 0.00089224 0.00032063 0.00696350 0.00235576    0.0464779 ----
   167   0   0   F    F -1.62D-01 0.00089224 0.00032063 0.00112505 0.00038061    0.0464748 ----
   168   0   0   F    T  1.77D+00 0.00078121 0.00034006 0.00593189 0.00197515    0.0464746 ----
   169   0   0   F    F  2.52D-01 0.00078121 0.00034006 0.00149269 0.00049702    0.0464709 ----
   170   0   0   F    T  2.67D+00 0.00096860 0.00030202 0.00700630 0.00247218    0.0464708 ----
   171   0   0   F    F -4.07D-01 0.00096860 0.00030202 0.00285127 0.00100607    0.0464696 ----
   172   0   0   F    T  2.14D+00 0.00059566 0.00025026 0.00352859 0.00146610    0.0464686 ----
   173   0   0   F    T  1.82D+00 0.00074896 0.00026344 0.00327669 0.00146610    0.0464666 ----
   174   0   0   F    F  5.19D-01 0.00074896 0.00026344 0.00170217 0.00076161    0.0464641 ----
   175   0   0   F    T  2.12D+00 0.00077199 0.00029603 0.00513681 0.00222771    0.0464638 ----
   176   0   0   F    F -1.12D-01 0.00077199 0.00029603 0.00057789 0.00025062    0.0464613 ---+
   177   0   0   F    T  1.71D+00 0.00076449 0.00030432 0.00483231 0.00197710    0.0464613 ----
   178   0   0   F    F  5.03D-01 0.00076449 0.00030432 0.00243180 0.00099495    0.0464581 ----
   179   0   0   F    T  2.24D+00 0.00067398 0.00032146 0.00773954 0.00297205    0.0464577 ----
   180   0   0   F    F -1.45D-01 0.00067398 0.00032146 0.00112195 0.00043084    0.0464548 ----
   181   0   0   F    T  2.31D+00 0.00078389 0.00028751 0.00651406 0.00254121    0.0464547 ----
   182   0   0   F    F -1.00D-01 0.00078389 0.00028751 0.00065427 0.00025524    0.0464522 ---+
   183   0   0   F    T  1.80D+00 0.00063651 0.00030403 0.00549373 0.00228597    0.0464522 ----
   184   0   0   F    F  2.43D-01 0.00063651 0.00030403 0.00133605 0.00055594    0.0464492 ----
   185   0   0   F    T  2.08D+00 0.00102531 0.00031163 0.00698728 0.00284191    0.0464491 ----
   186   0   0   F    T  2.63D+00 0.00065972 0.00027422 0.00733913 0.00284191    0.0464460 ----
   187   0   0   F    F -3.05D-01 0.00065972 0.00027422 0.00224046 0.00086756    0.0464443 ----
   188   0   0   F    T  2.00D+00 0.00062662 0.00025479 0.00514062 0.00197434    0.0464439 ----
   189   0   0   F    F -9.15D-02 0.00062662 0.00025479 0.00047018 0.00018058    0.0464422 ---+
   190   0   0   F    T  2.57D+00 0.00050971 0.00021026 0.00450551 0.00179376    0.0464421 ----
   191   0   0   F    F -1.68D-01 0.00050971 0.00021026 0.00075600 0.00030098    0.0464408 ----
   192   0   0   F    T  1.99D+00 0.00054464 0.00021348 0.00378883 0.00149278    0.0464407 ----
   193   0   0   F    F  1.06D-01 0.00054464 0.00021348 0.00040300 0.00015878    0.0464392 --++
   194   0   0   F    T  1.94D+00 0.00048985 0.00022331 0.00495529 0.00165156    0.0464392 ----
   195   0   0   F    F  1.95D-01 0.00048985 0.00022331 0.00096748 0.00032245    0.0464375 ----
   196   0   0   F    T  1.67D+00 0.00066540 0.00026009 0.00608181 0.00197401    0.0464375 ----
   197   0   0   F    F  2.63D-01 0.00066540 0.00026009 0.00160104 0.00051966    0.0464354 ----
   198   0   0   F    T  2.96D+00 0.00041090 0.00021555 0.00824328 0.00249367    0.0464353 ----
   199   0   0   F    F -2.09D-01 0.00041090 0.00021555 0.00172432 0.00052162    0.0464338 ----
   200   0   0   F    T  1.68D+00 0.00075802 0.00025112 0.00632471 0.00197205    0.0464337 ----
   201   0   0   F    F  4.78D-02 0.00075802 0.00025112 0.00030234 0.00009427    0.0464320 --++
   202   0   0   F    T  2.37D+00 0.00057414 0.00021332 0.00685367 0.00206632    0.0464320 ----
   203   0   0   F    F  1.61D-01 0.00057414 0.00021332 0.00110248 0.00033239    0.0464302 ----
   204   0   0   F    T  2.13D+00 0.00070814 0.00023986 0.00776801 0.00239871    0.0464302 ----
   205   0   0   F    F -1.42D-01 0.00070814 0.00023986 0.00110139 0.00034010    0.0464286 ----
   206   0   0   F    T  1.89D+00 0.00069702 0.00023379 0.00694467 0.00205861    0.0464286 ----
   207   0   0   F    F  3.75D-01 0.00069702 0.00023379 0.00260222 0.00077137    0.0464266 ----
   208   0   0   F    T  2.02D+00 0.00090420 0.00026272 0.00943031 0.00282998    0.0464265 ----
   209   0   0   F    F -1.57D-01 0.00090420 0.00026272 0.00147822 0.00044361    0.0464248 ----
   210   0   0   F    T  2.59D+00 0.00045333 0.00020918 0.00846331 0.00238637    0.0464247 ----
   211   0   0   F    F  6.12D-02 0.00045333 0.00020918 0.00051794 0.00014604    0.0464229 ---+
   212   0   0   F    T  1.72D+00 0.00081281 0.00026225 0.00900262 0.00253242    0.0464229 ----
   213   0   0   F    F  5.26D-02 0.00081281 0.00026225 0.00047366 0.00013324    0.0464210 ---+
   214   0   0   F    T  2.32D+00 0.00063149 0.00023008 0.00993623 0.00266566    0.0464210 ----
   215   0   0   F    F -7.48D-02 0.00063149 0.00023008 0.00074304 0.00019934    0.0464193 ---+
   216   0   0   F    T  2.28D+00 0.00067562 0.00022089 0.00900196 0.00246631    0.0464193 ----
   217   0   0   F    F  1.46D-01 0.00067562 0.00022089 0.00131628 0.00036063    0.0464174 ----
   218   0   0   F    T  1.61D+00 0.00070995 0.00027886 0.01036332 0.00282694    0.0464174 ----
   219   0   0   F    F  2.32D-01 0.00070995 0.00027886 0.00239985 0.00065464    0.0464152 ----
   220   0   0   F    T  2.69D+00 0.00060155 0.00023888 0.01196942 0.00348158    0.0464151 ----
   221   0   0   F    F -2.81D-01 0.00060155 0.00023888 0.00336935 0.00098005    0.0464137 ----
   222   0   0   F    T  2.03D+00 0.00060750 0.00023153 0.00823799 0.00250153    0.0464134 ----
   223   0   0   F    F  1.46D-01 0.00060750 0.00023153 0.00120536 0.00036602    0.0464116 ----
   224   0   0   F    T  2.76D+00 0.00054217 0.00021017 0.00843458 0.00286755    0.0464116 ----
   225   0   0   T    F  4.77D-01 0.00054217 0.00021017 0.00402357 0.00136792    0.0464118 ----
   226   0   0   F    T  2.76D+00 0.00030791 0.00014195 0.00352939 0.00136792    0.0464107 ----
   227   0   0   F    F -3.01D-01 0.00030791 0.00014195 0.00106251 0.00041181    0.0464102 ----
   228   0   0   F    T  2.28D+00 0.00029232 0.00012756 0.00260312 0.00095611    0.0464101 ----
   229   0   0   F    T  2.23D+00 0.00033757 0.00012831 0.00259676 0.00095611    0.0464095 ----
   230   0   0   F    F -1.53D-01 0.00033757 0.00012831 0.00039834 0.00014667    0.0464091 --++
   231   0   0   F    T  1.48D+00 0.00036094 0.00013810 0.00215620 0.00080944    0.0464091 ----
   232   0   0   F    F  1.14D+00 0.00036094 0.00013810 0.00245047 0.00091991    0.0464084 ----
   233   0   0   F    T  2.15D+00 0.00043492 0.00017058 0.00440947 0.00172936    0.0464082 ----
   234   0   0   F    F -1.38D-01 0.00043492 0.00017058 0.00061043 0.00023941    0.0464074 ---+
   235   0   0   F    T  2.87D+00 0.00027795 0.00013475 0.00348144 0.00148995    0.0464073 ----
   236   0   0   F    F -2.53D-01 0.00027795 0.00013475 0.00087993 0.00037658    0.0464068 ----
   237   0   0   F    T  1.79D+00 0.00039897 0.00014562 0.00255094 0.00111337    0.0464068 ----
   238   0   0   F    F -1.36D-01 0.00039897 0.00014562 0.00034698 0.00015144    0.0464063 --++
   239   0   0   F    T  2.85D+00 0.00023325 0.00010477 0.00222727 0.00096192    0.0464063 ----
   240   0   0   F    T  1.92D+00 0.00026947 0.00012200 0.00211392 0.00096192    0.0464058 ----
   241   0   0   F    T  2.04D+00 0.00031673 0.00012112 0.00217414 0.00096192    0.0464055 ----
   242   0   0   F    T  2.27D+00 0.00024373 0.00011564 0.00238129 0.00096192    0.0464051 ----
   243   0   0   F    F -1.81D-01 0.00024373 0.00011564 0.00042991 0.00017366    0.0464048 --++
   244   0   0   F    T  2.65D+00 0.00025987 0.00009930 0.00193510 0.00078826    0.0464048 ----
   245   0   0   F    T  1.52D+00 0.00035600 0.00012241 0.00191960 0.00078826    0.0464045 ----
   246   0   0   F    T  2.61D+00 0.00023893 0.00010092 0.00207511 0.00078826    0.0464042 ----
   247   0   0   F    T  3.82D+00 0.00022068 0.00008341 0.00203301 0.00078826    0.0464039 ----
   248   0   0   F    T  3.61D+00 0.00022064 0.00008499 0.00205233 0.00078826    0.0464034 ----
   249   0   0   T    F  4.22D-01 0.00022064 0.00008499 0.00086710 0.00033304    0.0464036 ----
   250   0   0   F    T  1.52D+00 0.00018188 0.00007639 0.00089129 0.00033304    0.0464032 ----
   251   0   0   F    T  2.38D+00 0.00014727 0.00006397 0.00087649 0.00033304    0.0464031 -+--
   252   0   0   F    T  1.97D+00 0.00018179 0.00006445 0.00084674 0.00033304    0.0464030 -+--
   253   0   0   F    T  3.02D+00 0.00014448 0.00005804 0.00076985 0.00033304    0.0464028 -+--
   254   0   0   T    T  1.00D+00 0.00044506 0.00016594 0.00044506 0.00016594    0.0464030 --++
   255   0   0   T    F  5.00D-01 0.00044506 0.00016594 0.00022253 0.00008297    0.0464037 --++
   256   0   0   T    F  5.00D-01 0.00044506 0.00016594 0.00011127 0.00004149    0.0464031 --++
   257   0   0   T    F  5.00D-01 0.00044506 0.00016594 0.00005563 0.00002074    0.0464029 --++
   258   0   0   T    F  5.00D-01 0.00044506 0.00016594 0.00002782 0.00001037    0.0464029 --++
   259   0   0   T    F  5.00D-01 0.00044506 0.00016594 0.00001391 0.00000519    0.0464028 --++
   260   0   0   T    F  5.00D-01 0.00044506 0.00016594 0.00000695 0.00000259    0.0464028 --++
   261   0   0   T    F  5.00D-01 0.00044506 0.00016594 0.00000348 0.00000130    0.0464028 --++
   262   0   0   T    F  5.00D-01 0.00044506 0.00016594 0.00000174 0.00000065    0.0464028 --++
   263   0   0   T    F  5.00D-01 0.00044506 0.00016594 0.00000087 0.00000032    0.0464028 --++
   264   0   0   T    T  1.00D+00 0.00014607 0.00005848 0.00009652 0.00003883    0.0464028 -+++
   265   0   0   F    T  1.00D+00 0.00011816 0.00004804 0.00011818 0.00004748    0.0464028 -+++
   266   0   0   F    T  1.00D+00 0.00011927 0.00004198 0.00010297 0.00005017    0.0464028 -+++
   267   0   0   F    T  1.00D+00 0.00013560 0.00005340 0.00014257 0.00006060    0.0464028 -+++
   268   0   0   F    T  1.04D+00 0.00010775 0.00003936 0.00011268 0.00006060    0.0464027 ====
 ****************************
 MOLECULAR MECHANICS FUNCTION
 ****************************
 Atomic parameters:
 Center  VDW
      1 1.9080 0.0860000
      2 1.7210 0.2104000
      3 1.9080 0.1094000
      4 1.4870 0.0157000
      5 1.4870 0.0157000
      6 1.8750 0.1700000
      7 0.6000 0.0157000
      8 0.6000 0.0157000
      9 1.6612 0.2100000
     10 0.0000 0.0000000
 Molecular mechanics terms:
 NBDir 3 1      0      0
 HrmStr1  1- 2  431.53 1.3510
 HrmStr1  1- 3  294.15 1.5090
 HrmStr1  1- 9  946.08 1.2030
 HrmStr1  2-10  566.76 0.9680
 HrmStr1  3- 4  358.05 1.0960
 HrmStr1  3- 5  358.05 1.0960
 HrmStr1  3- 6  380.82 1.4520
 HrmStr1  6- 7  506.01 1.0110
 HrmStr1  6- 8  506.01 1.0110
 HrmBnd1  1- 2-10  56.55 107.23
 HrmBnd1  1- 3- 4  46.41 106.89
 HrmBnd1  1- 3- 5  46.41 106.89
 HrmBnd1  1- 3- 6  59.93 110.61
 HrmBnd1  2- 1- 3  67.92 111.72
 HrmBnd1  2- 1- 9  91.40 123.02
 HrmBnd1  3- 1- 9  62.83 125.24
 HrmBnd1  3- 6- 7  52.60 110.71
 HrmBnd1  3- 6- 8  52.60 110.71
 HrmBnd1  4- 3- 5  44.68 106.22
 HrmBnd1  4- 3- 6  52.45 112.94
 HrmBnd1  5- 3- 6  52.45 112.94
 HrmBnd1  7- 6- 8  47.09 108.63
 AmbTrs  3- 1- 2-10   0 180   0   0  0.0000 14.5000  0.0000  0.0000  2.0
 AmbTrs  9- 1- 2-10   0   0   0   0  0.0000 14.5000  0.0000  0.0000  2.0
 AmbTrs  2- 1- 3- 4   0   0   0   0  0.0000 14.5000  0.0000  0.0000  6.0
 AmbTrs  2- 1- 3- 5   0   0   0   0  0.0000 14.5000  0.0000  0.0000  6.0
 AmbTrs  2- 1- 3- 6   0   0   0   0  0.0000 14.5000  0.0000  0.0000  6.0
 AmbTrs  9- 1- 3- 4   0   0   0   0  0.0000 14.5000  0.0000  0.0000  6.0
 AmbTrs  9- 1- 3- 5   0   0   0   0  0.0000 14.5000  0.0000  0.0000  6.0
 AmbTrs  9- 1- 3- 6   0   0   0   0  0.0000 14.5000  0.0000  0.0000  6.0
 AmbTrs  1- 3- 6- 7   0 180   0   0  0.0000 25.6300  0.0000  0.0000  6.0
 AmbTrs  1- 3- 6- 8   0 180   0   0  0.0000 25.6300  0.0000  0.0000  6.0
 AmbTrs  4- 3- 6- 7   0   0   0   0  0.0000 16.9300  0.0000  0.0000  6.0
 AmbTrs  4- 3- 6- 8   0   0   0   0  0.0000 16.9300  0.0000  0.0000  6.0
 AmbTrs  5- 3- 6- 7   0   0   0   0  0.0000 16.9300  0.0000  0.0000  6.0
 AmbTrs  5- 3- 6- 8   0   0   0   0  0.0000 16.9300  0.0000  0.0000  6.0
 NBPair  2- 1 3 1      0      0 -1.000 -1.000
 NBPair  3- 2 3 1      0      0 -1.000 -1.000
 NBPair 10- 3 3 1      0      0 -0.500 -0.167
 NBPair  9- 2 3 1      0      0 -1.000 -1.000
 NBPair 10- 9 3 1      0      0 -0.500 -0.167
 NBPair  3- 1 3 1      0      0 -1.000 -1.000
 NBPair  4- 2 3 1      0      0 -0.500 -0.167
 NBPair  5- 2 3 1      0      0 -0.500 -0.167
 NBPair  6- 2 3 1      0      0 -0.500 -0.167
 NBPair  9- 3 3 1      0      0 -1.000 -1.000
 NBPair  9- 4 3 1      0      0 -0.500 -0.167
 NBPair  9- 5 3 1      0      0 -0.500 -0.167
 NBPair  9- 6 3 1      0      0 -0.500 -0.167
 NBPair  9- 1 3 1      0      0 -1.000 -1.000
 NBPair 10- 1 3 1      0      0 -1.000 -1.000
 NBPair 10- 2 3 1      0      0 -1.000 -1.000
 NBPair  4- 1 3 1      0      0 -1.000 -1.000
 NBPair  5- 1 3 1      0      0 -1.000 -1.000
 NBPair  6- 1 3 1      0      0 -1.000 -1.000
 NBPair  4- 3 3 1      0      0 -1.000 -1.000
 NBPair  5- 4 3 1      0      0 -1.000 -1.000
 NBPair  6- 4 3 1      0      0 -1.000 -1.000
 NBPair  5- 3 3 1      0      0 -1.000 -1.000
 NBPair  6- 5 3 1      0      0 -1.000 -1.000
 NBPair  6- 3 3 1      0      0 -1.000 -1.000
 NBPair  7- 1 3 1      0      0 -0.500 -0.167
 NBPair  8- 1 3 1      0      0 -0.500 -0.167
 NBPair  7- 4 3 1      0      0 -0.500 -0.167
 NBPair  8- 4 3 1      0      0 -0.500 -0.167
 NBPair  7- 5 3 1      0      0 -0.500 -0.167
 NBPair  8- 5 3 1      0      0 -0.500 -0.167
 NBPair  7- 3 3 1      0      0 -1.000 -1.000
 NBPair  8- 3 3 1      0      0 -1.000 -1.000
 NBPair  7- 6 3 1      0      0 -1.000 -1.000
 NBPair  8- 7 3 1      0      0 -1.000 -1.000
 NBPair  8- 6 3 1      0      0 -1.000 -1.000
 Energy per function type:
 Direct Coulomb + vdW (small)                           0.003870883
 Direct Coulomb (large)                                -0.131920387
 Direct vdW (large)                                   268.374025953
 Non-direct Coulomb + vdW (small)                      -0.012130740
 Non-direct Coulomb (large)                             0.138187030
 Non-direct vdW (large)                              -268.374025953
 Harmonic stretch I                                     0.000129322
 Harmonic bend I                                        0.010132392
 Amber torsion                                          0.038134218
 Energy per function class:
        Coulomb              -0.003818783
    Vanderwaals               0.001825568
     Stretching               0.000129322
        Bending               0.010132392
        Torsion               0.038134218
 Energy=    4.640271678E-02 NIter=   0.
 Dipole moment=       0.555082       0.272023       0.181022
 Leave Link  402 at Sun Nov 26 11:20:27 2023, MaxMem=   134217728 cpu:               0.4 elap:               0.4
 (Enter /home/emanuele/chem_software/gaussian//gdv/l716.exe)
 Dipole        = 5.55081670D-01 2.72023444D-01 1.81021528D-01
 -------------------------------------------------------------------
 Center     Atomic                   Forces (Hartrees/Bohr)
 Number     Number              X              Y              Z
 -------------------------------------------------------------------
      1        6          -0.000099916   -0.000095298   -0.000007392
      2        8          -0.000002915    0.000002117   -0.000024150
      3        6           0.000020911   -0.000000716    0.000000967
      4        1          -0.000010153    0.000015691   -0.000026403
      5        1           0.000016463    0.000000766   -0.000035463
      6        7          -0.000029901    0.000021449   -0.000020840
      7        1          -0.000016613    0.000027993   -0.000005317
      8        1          -0.000015171   -0.000030131    0.000037188
      9        8           0.000107752    0.000048862    0.000046852
     10        1           0.000029544    0.000009267    0.000034558
 -------------------------------------------------------------------
 Cartesian Forces:  Max     0.000107752 RMS     0.000039359
 Z-matrix is all fixed cartesians, so copy forces.
 Leave Link  716 at Sun Nov 26 11:20:27 2023, MaxMem=   134217728 cpu:               0.0 elap:               0.0
 (Enter /home/emanuele/chem_software/gaussian//gdv/l103.exe)

 GradGradGradGradGradGradGradGradGradGradGradGradGradGradGradGradGradGrad
 Berny optimization.
 Search for a local minimum.
 Step number   1 out of a maximum of    2
 All quantities printed in internal units (Hartrees-Bohrs-Radians)
 RMS Force = .39359D-04 SwitMx=.10000D-02 MixMth= 2
 Mixed Optimization -- En-DIIS/RFO-DIIS
 Second derivative matrix not updated -- unit matrix used.
 ITU=  0
 RFO step:  Lambda=-4.64734182D-08 EMin= 1.00000000D+00
 Linear search not attempted -- first point.
 Variable       Old X    -DE/DX   Delta X   Delta X   Delta X     New X
                                 (Linear)    (Quad)   (Total)
    X1       -1.29074  -0.00010   0.00000  -0.00010  -0.00010  -1.29084
    Y1       -0.37631  -0.00010   0.00000  -0.00010  -0.00010  -0.37640
    Z1        0.08334  -0.00001   0.00000  -0.00001  -0.00001   0.08333
    X2       -1.50805  -0.00000   0.00000  -0.00000  -0.00000  -1.50805
    Y2        2.07361   0.00000   0.00000   0.00000   0.00000   2.07361
    Z2       -0.59786  -0.00002   0.00000  -0.00002  -0.00002  -0.59789
    X3        1.35907   0.00002   0.00000   0.00002   0.00002   1.35909
    Y3       -1.27969  -0.00000   0.00000  -0.00000  -0.00000  -1.27970
    Z3       -0.58401   0.00000   0.00000   0.00000   0.00000  -0.58401
    X4        1.11906  -0.00001   0.00000  -0.00001  -0.00001   1.11905
    Y4       -3.32409   0.00002   0.00000   0.00002   0.00002  -3.32407
    Z4       -0.83353  -0.00003   0.00000  -0.00003  -0.00003  -0.83356
    X5        1.76710   0.00002   0.00000   0.00002   0.00002   1.76712
    Y5       -0.45623   0.00000   0.00000   0.00000   0.00000  -0.45623
    Z5       -2.44309  -0.00004   0.00000  -0.00004  -0.00004  -2.44313
    X6        3.12181  -0.00003   0.00000  -0.00003  -0.00003   3.12178
    Y6       -0.65732   0.00002   0.00000   0.00002   0.00002  -0.65729
    Z6        1.44380  -0.00002   0.00000  -0.00002  -0.00002   1.44378
    X7        2.54445  -0.00002   0.00000  -0.00002  -0.00002   2.54444
    Y7        0.41049   0.00003   0.00000   0.00003   0.00003   0.41052
    Z7        2.92054  -0.00001   0.00000  -0.00001  -0.00001   2.92053
    X8        4.98690  -0.00002   0.00000  -0.00002  -0.00002   4.98688
    Y8       -1.02157  -0.00003   0.00000  -0.00003  -0.00003  -1.02160
    Z8        1.23805   0.00004   0.00000   0.00004   0.00004   1.23809
    X9       -3.04691   0.00011   0.00000   0.00011   0.00011  -3.04680
    Y9       -1.76986   0.00005   0.00000   0.00005   0.00005  -1.76981
    Z9       -0.28801   0.00005   0.00000   0.00005   0.00005  -0.28796
   X10       -2.85058   0.00003   0.00000   0.00003   0.00003  -2.85055
   Y10        2.76590   0.00001   0.00000   0.00001   0.00001   2.76591
   Z10        0.43073   0.00003   0.00000   0.00003   0.00003   0.43077
         Item               Value     Threshold  Converged?
 Maximum Force            0.000108     0.000450     YES
 RMS     Force            0.000039     0.000300     YES
 Maximum Displacement     0.000108     0.001800     YES
 RMS     Displacement     0.000039     0.001200     YES
 Predicted change in Energy=-2.323671D-08
 Optimization completed.
    -- Stationary point found.
 Largest change from initial coordinates is atom    8       1.107 Angstoms.
 GradGradGradGradGradGradGradGradGradGradGradGradGradGradGradGradGradGrad

 Leave Link  103 at Sun Nov 26 11:20:28 2023, MaxMem=   134217728 cpu:               0.0 elap:               0.0
 (Enter /home/emanuele/chem_software/gaussian//gdv/l202.exe)
                          Input orientation:                          
 ---------------------------------------------------------------------
 Center     Atomic      Atomic             Coordinates (Angstroms)
 Number     Number       Type             X           Y           Z
 ---------------------------------------------------------------------
      1          6    20001002       -0.683028   -0.199134    0.044101
      2          8    20001022       -0.798023    1.097306   -0.316376
      3          6    20001001        0.719191   -0.677185   -0.309045
      4          1    20001034        0.592180   -1.759030   -0.441085
      5          1    20001034        0.935110   -0.241426   -1.292828
      6          7    20001020        1.651991   -0.347837    0.764028
      7          1    20001029        1.346466    0.217224    1.545481
      8          1    20001029        2.638954   -0.540591    0.655149
      9          8    20001025       -1.612355   -0.936568   -0.152407
     10          1    20001031       -1.508461    1.463654    0.227933
 ---------------------------------------------------------------------
                    Distance matrix (angstroms):
                    1          2          3          4          5
     1  C    0.000000
     2  O    1.350527   0.000000
     3  C    1.522978   2.334698   0.000000
     4  H    2.072399   3.179131   1.097249   0.000000
     5  H    2.099413   2.397793   1.097422   1.773750   0.000000
     6  N    2.448003   3.042742   1.459477   2.137046   2.180803
     7  H    2.558582   2.973195   2.152374   2.901892   2.904406
     8  H    3.394928   3.929297   2.152630   2.622138   2.605225
     9  O    1.202528   2.196967   2.351153   2.370602   2.876345
    10  H    1.865475   0.967060   3.135916   3.904609   3.345303
                    6          7          8          9         10
     6  N    0.000000
     7  H    1.011587   0.000000
     8  H    1.011486   1.742842   0.000000
     9  O    3.441280   3.601206   4.345408   0.000000
    10  H    3.682031   3.382326   4.626074   2.432389   0.000000
 Symmetry turned off by external request.
 Stoichiometry    C2H5NO2
 Framework group  C1[X(C2H5NO2)]
 Deg. of freedom    24
 Full point group                 C1      NOp   1
 Rotational constants (GHZ):           9.5119539           3.8950857           3.1061316
 Leave Link  202 at Sun Nov 26 11:20:28 2023, MaxMem=   134217728 cpu:               0.0 elap:               0.0
 (Enter /home/emanuele/chem_software/gaussian//gdv/l9999.exe)
 Unable to Open any file for archive entry.
 1\1\GINC-EMANUELE-XPS-13-9343\FOpt\AMBER\ZDO\C2H5N1O2\EMANUELE\26-Nov-
 2023\0\\#p Amber=(SoftFirst,Print) geom=nocrowd nosymm opt=(maxcycle=3
 00)\\Title\\0,1\C,-0.6830278224,-0.1991338883,0.0441008655\O,-0.798023
 3473,1.0973061019,-0.316375581\C,0.7191909943,-0.677185239,-0.30904535
 97\H,0.5921798196,-1.75903042,-0.4410848945\H,0.935109746,-0.241425912
 ,-1.2928280613\N,1.6519906715,-0.3478365819,0.7640283987\H,1.346466265
 4,0.2172241325,1.5454814116\H,2.6389536775,-0.5405910014,0.6551491706\
 O,-1.6123547958,-0.9365680427,-0.1524070979\H,-1.5084612087,1.46365385
 1,0.227933148\\Version=ES64L-GDVRevJ.14\HF=0.0464027\RMSD=0.000e+00\RM
 SF=3.936e-05\Dipole=0.5550817,0.2720234,0.1810215\PG=C01 [X(C2H5N1O2)]
 \\@
 The archive entry for this job was punched.


 ARTHROPOD AXIOM: A COMPUTER SYSTEM IS LIKE A SPIDER'S WEB.
 YOU CANNOT PULL ON ONE END WITHOUT MAKING THE OTHER END MOVE.
     -- GREG WETTSTEIN
 Job cpu time:       0 days  0 hours  0 minutes  0.9 seconds.
 Elapsed time:       0 days  0 hours  0 minutes  0.9 seconds.
 File lengths (MBytes):  RWF=      6 Int=      0 D2E=      0 Chk=      1 Scr=      1
 Normal termination of Gaussian DV at Sun Nov 26 11:20:28 2023.
