 Entering Gaussian System, Link 0=/home/emanuele/chem_software/gaussian//g09/g09
 Input=2_zmat_mm_40.gjf
 Output=2_zmat_mm_40.log
 Initial command:
 /home/emanuele/chem_software/gaussian//gdv/l1.exe "/home/emanuele/chem_software/gaussian/scratch/Gau-6292.inp" -scrdir="/home/emanuele/chem_software/gaussian/scratch/"
 Entering Link 1 = /home/emanuele/chem_software/gaussian//gdv/l1.exe PID=      6294.
  
 Copyright (c) 1988-2020, Gaussian, Inc.  All Rights Reserved.
  
 This is the private, development version of
 the Gaussian(R) DV system of programs. It is based on
 the Gaussian(R) 16 system (copyright 2016, Gaussian, Inc.),
 the Gaussian(R) 09 system (copyright 2009, Gaussian, Inc.),
 the Gaussian(R) 03 system (copyright 2003, Gaussian, Inc.),
 the Gaussian(R) 98 system (copyright 1998, Gaussian, Inc.),
 the Gaussian(R) 94 system (copyright 1995, Gaussian, Inc.),
 the Gaussian 92(TM) system (copyright 1992, Gaussian, Inc.),
 the Gaussian 90(TM) system (copyright 1990, Gaussian, Inc.),
 the Gaussian 88(TM) system (copyright 1988, Gaussian, Inc.),
 the Gaussian 86(TM) system (copyright 1986, Carnegie Mellon
 University), and the Gaussian 82(TM) system (copyright 1983,
 Carnegie Mellon University). Gaussian is a federally registered
 trademark of Gaussian, Inc.
  
 This software contains proprietary and confidential information,
 including trade secrets, belonging to Gaussian, Inc.
  
 This software is provided under written license and may be
 used, copied, transmitted, or stored only in accord with that
 written license.
  
 The following legend is applicable only to US Government
 contracts under FAR:
  
                    RESTRICTED RIGHTS LEGEND
  
 Use, reproduction and disclosure by the US Government is
 subject to restrictions as set forth in subparagraphs (a)
 and (c) of the Commercial Computer Software - Restricted
 Rights clause in FAR 52.227-19.
  
 Gaussian, Inc.
 340 Quinnipiac St., Bldg. 40, Wallingford CT 06492
  
  
 ---------------------------------------------------------------
 Warning -- This program may not be used in any manner that
 competes with the business of Gaussian, Inc. or will provide
 assistance to any competitor of Gaussian, Inc.  The licensee
 of this program is prohibited from giving any competitor of
 Gaussian, Inc. access to this program.  By using this program,
 the user acknowledges that Gaussian, Inc. is engaged in the
 business of creating and licensing software in the field of
 computational chemistry and represents and warrants to the
 licensee that it is not a competitor of Gaussian, Inc. and that
 it will not use this program in any manner prohibited above.
 ---------------------------------------------------------------
  

 Cite this work as:
 Gaussian Development Version, Revision J.14,
 M. J. Frisch, G. W. Trucks, H. B. Schlegel, G. E. Scuseria, 
 M. A. Robb, J. R. Cheeseman, G. Scalmani, V. Barone, 
 G. A. Petersson, H. Nakatsuji, X. Li, A. V. Marenich, M. Caricato, 
 J. Bloino, B. G. Janesko, J. Zheng, R. Gomperts, B. Mennucci, 
 H. P. Hratchian, J. V. Ortiz, A. F. Izmaylov, J. L. Sonnenberg, 
 D. Williams-Young, F. Ding, F. Lipparini, F. Egidi, J. Goings, 
 B. Peng, A. Petrone, T. Henderson, D. Ranasinghe, V. G. Zakrzewski, 
 J. Gao, N. Rega, G. Zheng, W. Liang, M. Hada, M. Ehara, K. Toyota, 
 R. Fukuda, J. Hasegawa, M. Ishida, T. Nakajima, Y. Honda, O. Kitao, 
 H. Nakai, T. Vreven, K. Throssell, J. A. Montgomery, Jr., 
 J. E. Peralta, F. Ogliaro, M. J. Bearpark, J. J. Heyd, 
 E. N. Brothers, K. N. Kudin, V. N. Staroverov, T. A. Keith, 
 R. Kobayashi, J. Normand, K. Raghavachari, A. P. Rendell, 
 J. C. Burant, S. S. Iyengar, J. Tomasi, M. Cossi, J. M. Millam, 
 M. Klene, C. Adamo, R. Cammi, J. W. Ochterski, R. L. Martin, 
 K. Morokuma, O. Farkas, J. B. Foresman, and D. J. Fox, 
 Gaussian, Inc., Wallingford CT, 2020.
 
 ******************************************
 Gaussian DV:  ES64L-GDVRevJ.14 29-Dec-2020
                26-Nov-2023 
 ******************************************
 %mem=1GB
 %nprocshared=1
 Will use up to    1 processors via shared memory.
 %chk=2_zmat_mm_40.chk
 -----------------------------------------------------------------
 #p Amber=(SoftFirst,Print) geom=nocrowd nosymm opt=(maxcycle=300)
 -----------------------------------------------------------------
 1/6=300,10=10,18=4000020,19=15,37=210000000,38=1,56=2,64=203/1,3;
 2/9=110,12=1,15=1,40=1/2;
 3/5=30,11=9,25=1,30=1,41=10030000,43=2,71=1/1;
 4/20=11,22=1001,24=3,119=11/2;
 7/30=1,44=-1/16;
 1/6=300,10=10,18=4000020,19=15,64=203/3(2);
 2/9=110,12=1,15=1/2;
 99//99;
 2/9=110,12=1,15=1/2;
 3/5=30,11=9,25=1,30=1,41=10030000,43=2,71=1/1;
 4/16=2,20=11,22=1001,24=3,119=11/2;
 7/30=1,44=-1/16;
 1/6=300,10=10,18=4000020,19=15,64=203/3(-4);
 2/9=110,12=1,15=1/2;
 99/9=10/99;
 Leave Link    1 at Sun Nov 26 11:20:22 2023, MaxMem=   134217728 cpu:               0.0 elap:               0.0
 (Enter /home/emanuele/chem_software/gaussian//gdv/l101.exe)
 -----
 Title
 -----
 Symbolic Z-matrix:
 Charge =  0 Multiplicity = 1
 C-C-+0.299289        -0.61828  -0.2358   -0.33458 
 O-OH--0.289770       -0.78102   0.36288   0.9024 
 C-CT--0.035454        0.81474  -0.7326   -0.45264 
 H-HC-+0.090426        0.84168  -1.76801  -0.02499 
 H-HC-+0.095387        1.08219  -0.82548  -1.53592 
 N-N3--0.336253        1.74787  -0.15108   0.5317 
 H-H-+0.142619         1.88618   0.8429    0.36503 
 H-H-+0.128282         1.3868   -0.25934   1.47941 
 O-O2--0.308037       -1.42617   0.00801  -1.1966 
 H-HO-+0.213510       -1.65196   0.83493   0.99115 
 
 ITRead=  3  3  3  3  3  3  3  3  3  3
 MicOpt=  0  0  0  0  0  0  0  0  0  0
 NAtoms=     10 NQM=        0 NQMF=       0 NMMI=      0 NMMIF=      0
                NMic=      10 NMicF=      0.
                    Isotopes and Nuclear Properties:
 (Nuclear quadrupole moments (NQMom) in fm**2, nuclear magnetic moments (NMagM)
  in nuclear magnetons)

  Atom         1           2           3           4           5           6           7           8           9          10
 IAtWgt=          12          16          12           1           1          14           1           1          16           1
 AtmWgt=  12.0000000  15.9949146  12.0000000   1.0078250   1.0078250  14.0030740   1.0078250   1.0078250  15.9949146   1.0078250
 NucSpn=           0           0           0           1           1           2           1           1           0           1
 AtZEff=  -0.0000000  -0.0000000  -0.0000000  -0.0000000  -0.0000000  -0.0000000  -0.0000000  -0.0000000  -0.0000000  -0.0000000
 NQMom=    0.0000000   0.0000000   0.0000000   0.0000000   0.0000000   2.0440000   0.0000000   0.0000000   0.0000000   0.0000000
 NMagM=    0.0000000   0.0000000   0.0000000   2.7928460   2.7928460   0.4037610   2.7928460   2.7928460   0.0000000   2.7928460
 AtZNuc=   6.0000000   8.0000000   6.0000000   1.0000000   1.0000000   7.0000000   1.0000000   1.0000000   8.0000000   1.0000000
 Generating MM parameters.
 I=    1 IAn=  6 Valence= 5.
          JB=  1 J=    2 IAn=  8 IBT=12 Dist= 1.38D+00
          JB=  2 J=    3 IAn=  6 IBT= 1 Dist= 1.52D+00
          JB=  3 J=    9 IAn=  8 IBT= 2 Dist= 1.21D+00
 I=    2 IAn=  8 Valence= 3.
          JB=  1 J=    1 IAn=  6 IBT=12 Dist= 1.38D+00
          JB=  2 J=   10 IAn=  1 IBT= 1 Dist= 9.95D-01
 Read MM parameter file:
 Include all MM classes

 MM sanity checks:
 All charges sum to:               -0.00000100
 Charges of atoms sum to:          -0.00000100
 WARNING -- The following centers have non-zero partial charges, but zero Vanderwaals
 parameters.  These centers can collapse onto other centers with non-zero charge.
   Center  Layer   Charge
     10 H    R    0.213510
 MMInit generated parameter data with length LenPar=        2069.
 MM Charge=             -0.0000 electrons
 MM Dipole moment (Debye):
    X=              0.6605    Y=             -0.3594    Z=              0.7153  Tot=              1.0378
 MM Quadrupole moment (Debye-Ang):
   XX=             -1.0910   YY=              2.6812   ZZ=             -0.0541
   XY=             -0.4535   XZ=             -3.3988   YZ=              1.1682
 MM Traceless Quadrupole moment (Debye-Ang):
   XX=             -1.6031   YY=              2.1692   ZZ=             -0.5661
   XY=             -0.4535   XZ=             -3.3988   YZ=              1.1682
 MM Octapole moment (Debye-Ang**2):
  XXX=             -1.6445  YYY=             -1.6745  ZZZ=              2.5983  XYY=              1.2300
  XXY=              3.4632  XXZ=              4.6635  XZZ=              4.5286  YZZ=             -0.6960
  YYZ=              0.2639  XYZ=             -0.2411
 MM Hexadecapole moment (Debye-Ang**3):
 XXXX=             -2.1447 YYYY=              5.2340 ZZZZ=              2.4286 XXXY=              0.3768
 XXXZ=            -10.3389 YYYX=             -2.3985 YYYZ=              1.1002 ZZZX=             -3.8112
 ZZZY=              1.4017 XXYY=              4.8349 XXZZ=              0.5767 YYZZ=              1.4256
 XXYZ=              3.4581 YYXZ=             -1.1529 ZZXY=             -2.1851
 Leave Link  101 at Sun Nov 26 11:20:22 2023, MaxMem=   134217728 cpu:               0.2 elap:               0.2
 (Enter /home/emanuele/chem_software/gaussian//gdv/l103.exe)

 GradGradGradGradGradGradGradGradGradGradGradGradGradGradGradGradGradGrad
 Berny optimization.
 Initialization pass.
 No Z-matrix variables, so optimization will use Cartesian coordinates.
 Trust Radius=1.00D-01 FncErr=1.00D-07 GrdErr=1.00D-07 EigMax=2.50D+02 EigMin=1.00D-04
 Number of steps in this run=      2 maximum allowed number of steps=      2.
 GradGradGradGradGradGradGradGradGradGradGradGradGradGradGradGradGradGrad

 Leave Link  103 at Sun Nov 26 11:20:22 2023, MaxMem=   134217728 cpu:               0.0 elap:               0.0
 (Enter /home/emanuele/chem_software/gaussian//gdv/l202.exe)
                          Input orientation:                          
 ---------------------------------------------------------------------
 Center     Atomic      Atomic             Coordinates (Angstroms)
 Number     Number       Type             X           Y           Z
 ---------------------------------------------------------------------
      1          6    20001002       -0.618282   -0.235801   -0.334575
      2          8    20001022       -0.781016    0.362878    0.902398
      3          6    20001001        0.814741   -0.732597   -0.452639
      4          1    20001034        0.841678   -1.768010   -0.024994
      5          1    20001034        1.082190   -0.825477   -1.535920
      6          7    20001020        1.747866   -0.151082    0.531700
      7          1    20001029        1.886181    0.842904    0.365026
      8          1    20001029        1.386796   -0.259344    1.479411
      9          8    20001025       -1.426172    0.008010   -1.196603
     10          1    20001031       -1.651956    0.834932    0.991146
 ---------------------------------------------------------------------
                    Distance matrix (angstroms):
                    1          2          3          4          5
     1  C    0.000000
     2  O    1.383836   0.000000
     3  C    1.521282   2.362759   0.000000
     4  H    2.138922   2.834409   1.120574   0.000000
     5  H    2.163921   3.290763   1.119667   1.796973   0.000000
     6  N    2.521164   2.607070   1.475739   1.935340   2.274420
     7  H    2.815205   2.762813   2.073346   2.839009   2.653958
     8  H    2.703967   2.327985   2.069790   2.199196   3.083101
     9  O    1.206326   2.224402   2.474605   3.109672   2.664905
    10  H    1.993110   0.994609   3.259794   3.745138   4.076589
                    6          7          8          9         10
     6  N    0.000000
     7  H    1.017310   0.000000
     8  H    1.019926   1.645050   0.000000
     9  O    3.617576   3.755984   3.891699   0.000000
    10  H    3.569608   3.593119   3.266475   2.349686   0.000000
 Symmetry turned off by external request.
 Stoichiometry    C2H5NO2
 Framework group  C1[X(C2H5NO2)]
 Deg. of freedom    24
 Full point group                 C1      NOp   1
 Rotational constants (GHZ):           9.8431856           4.0723865           3.0615710
 Leave Link  202 at Sun Nov 26 11:20:22 2023, MaxMem=   134217728 cpu:               0.0 elap:               0.0
 (Enter /home/emanuele/chem_software/gaussian//gdv/l301.exe)
 Standard basis: Dummy (5D, 7F)
    10 basis functions,    10 primitive gaussians,    10 cartesian basis functions
     7 alpha electrons        7 beta electrons
       nuclear repulsion energy        22.7587699273 Hartrees.
 IExCor=       0 DFT=F Ex=HF Corr=None N6=None ScaHFX=  1.000000
 ScaDFX=  1.000000  1.000000  1.000000  1.000000  1.000000  0.000000
 ScaDFX=  0.000000  0.000000  0.000000  0.000000  0.000000  0.000000
 IRadAn=      5 IRanWt=     -1 IRanGd=            0 ICorTp=0 IEmpDi=  4
 NAtoms=   10 NActive=   10 NUniq=   10 SFac= 1.00D+00 NAtFMM=   60 NAOKFM=F Big=F
 Integral buffers will be    131072 words long.
 Raffenetti 1 integral format.
 Two-electron integral symmetry is turned off.
 Leave Link  301 at Sun Nov 26 11:20:22 2023, MaxMem=   134217728 cpu:               0.0 elap:               0.0
 (Enter /home/emanuele/chem_software/gaussian//gdv/l402.exe)
 AMBER calculation of energy and first derivatives.
 NRF= 0 NRA=   0 NVA=  10 HaveQM=F NVQ=       0
 Convergence limit is  0.750E-04 MaxStp= 10000 StMxLn= 3.00D-04 StpMin= 1.00D-06.
 Convergence criteria             0.00011250 0.00007500 0.00045000 0.00030000
  Step  NS  ND Rises OKQ   Scale  Max. Force  RMS Force Max. Disp.  RMS Disp.     Energy   Flag
     1   0   0   F    T  1.00D+00 0.03499625 0.01671126 0.03499625 0.01671126    0.1087459 ----
     2   0   0   F    F  8.94D-01 0.03499625 0.01671126 0.03130235 0.01494736    0.1025914 ----
     3   0   0   F    T  2.16D+00 0.02611474 0.01191176 0.06684467 0.03165862    0.1008329 ----
     4   0   0   F    F  1.00D+00 0.02611474 0.01191176 0.06696038 0.03171342    0.0938714 ----
     5   0   0   F    T  3.29D+00 0.02677662 0.01187766 0.13894843 0.06337204    0.0915132 ----
     6   0   0   F    F -3.78D-01 0.02677662 0.01187766 0.05253974 0.02396249    0.0887946 ----
     7   0   0   F    T  2.90D+00 0.02089597 0.00896367 0.08978151 0.03940955    0.0871672 ----
     8   0   0   F    F -4.03D-01 0.02089597 0.00896367 0.03619048 0.01588579    0.0860281 ----
     9   0   0   F    T  1.15D+00 0.03181622 0.01024053 0.04232708 0.02352376    0.0850871 ----
    10   0   0   F    F  5.98D-01 0.03181622 0.01024053 0.02529930 0.01406037    0.0825811 ----
    11   0   0   F    T  2.58D+00 0.01945662 0.00796468 0.08819226 0.03758413    0.0821715 ----
    12   0   0   F    F -1.65D-01 0.01945662 0.00796468 0.01455841 0.00620423    0.0801625 ----
    13   0   0   F    T  3.44D+00 0.01525860 0.00601323 0.06758090 0.03137990    0.0800759 ----
    14   0   0   F    F -1.44D-01 0.01525860 0.00601323 0.00974155 0.00452330    0.0784802 ----
    15   0   0   F    T  2.96D+00 0.01456828 0.00560997 0.06147479 0.02685659    0.0784303 ----
    16   0   0   F    F -4.34D-01 0.01456828 0.00560997 0.02668286 0.01165699    0.0780936 ----
    17   0   0   F    T  1.43D+00 0.01577500 0.00563013 0.03335859 0.01519961    0.0776445 ----
    18   0   0   F    F  1.62D-01 0.01577500 0.00563013 0.00538956 0.00245572    0.0768670 ----
    19   0   0   F    T  2.21D+00 0.01416092 0.00447695 0.03763731 0.01765532    0.0768515 ----
    20   0   0   F    T  4.39D+00 0.00600791 0.00273428 0.04454040 0.01765532    0.0761886 ----
    21   0   0   T    F  4.04D-01 0.00600791 0.00273428 0.01798334 0.00712840    0.0764175 ----
    22   0   0   F    T  1.85D+00 0.00981394 0.00238340 0.02315375 0.00712840    0.0759916 ----
    23   0   0   F    F -1.89D-01 0.00981394 0.00238340 0.00438523 0.00135009    0.0758707 ----
    24   0   0   F    T  1.46D+00 0.00636802 0.00219383 0.01609889 0.00577831    0.0758637 ----
    25   0   0   F    F  7.28D-01 0.00636802 0.00219383 0.01171644 0.00420534    0.0757138 ----
    26   0   0   F    T  5.65D+00 0.00232889 0.00124617 0.02341682 0.00998364    0.0756813 ----
    27   0   0   F    F -4.90D-01 0.00232889 0.00124617 0.01147057 0.00489042    0.0756763 ----
    28   0   0   F    T  1.26D+00 0.00591881 0.00179198 0.00972583 0.00509323    0.0756140 ----
    29   0   0   F    F  3.53D-01 0.00591881 0.00179198 0.00343210 0.00179732    0.0755376 ----
    30   0   0   F    T  2.08D+00 0.00380979 0.00153056 0.01293512 0.00689055    0.0755320 ----
    31   0   0   F    T  3.11D+00 0.00257384 0.00116136 0.01705160 0.00689055    0.0754592 ----
    32   0   0   F    F -2.68D-02 0.00257384 0.00116136 0.00045638 0.00018442    0.0753982 ---+
    33   0   0   F    T  1.98D+00 0.00328548 0.00137547 0.01916505 0.00670613    0.0753981 ----
    34   0   0   F    F -4.38D-02 0.00328548 0.00137547 0.00083907 0.00029360    0.0753449 ---+
    35   0   0   F    T  1.35D+00 0.00491335 0.00157450 0.01947848 0.00641252    0.0753448 ----
    36   0   0   F    F  8.78D-01 0.00491335 0.00157450 0.01710152 0.00563000    0.0752714 ----
    37   0   0   F    T  2.11D+00 0.00435669 0.00166173 0.03565516 0.01204253    0.0752509 ----
    38   0   0   F    F  8.21D-01 0.00435669 0.00166173 0.02926213 0.00988328    0.0751244 ----
    39   0   0   F    T  3.61D+00 0.00486547 0.00166255 0.05834929 0.02192581    0.0750923 ----
    40   0   0   T    F  4.87D-01 0.00486547 0.00166255 0.02842786 0.01068228    0.0751019 ----
    41   0   0   F    T  1.11D+00 0.00709062 0.00208315 0.02603553 0.01068228    0.0750192 ----
    42   0   0   F    F  2.22D+00 0.00709062 0.00208315 0.05768612 0.02366841    0.0748954 ----
    43   0   0   F    F -1.34D-02 0.00709062 0.00208315 0.00077463 0.00031783    0.0747813 ----
    44   0   0   F    T  2.40D+00 0.00552302 0.00260453 0.08843153 0.03403286    0.0747813 ----
    45   0   0   F    F  3.81D-01 0.00552302 0.00260453 0.03364871 0.01294970    0.0744719 ----
    46   0   0   F    F -2.71D-02 0.00552302 0.00260453 0.00091334 0.00035150    0.0744474 ----
    47   0   0   F    T  3.16D+00 0.00612779 0.00279154 0.12703766 0.04663106    0.0744473 ----
    48   0   0   F    F  4.69D-02 0.00612779 0.00279154 0.00595376 0.00218542    0.0740626 ----
    49   0   0   F    T  1.19D+00 0.01315360 0.00468316 0.14344323 0.04881648    0.0740619 ----
    50   0   0   F    F  2.36D-01 0.01315360 0.00468316 0.03385422 0.01152124    0.0735421 ----
    51   0   0   F    F -8.98D-03 0.01315360 0.00468316 0.00030400 0.00010346    0.0735187 --++
    52   0   0   F    T  2.02D+00 0.01347561 0.00464958 0.17637371 0.06023426    0.0735187 ----
    53   0   0   F    F  1.57D-01 0.01347561 0.00464958 0.02775681 0.00947937    0.0727215 ----
    54   0   0   F    F -4.11D-02 0.01347561 0.00464958 0.00114166 0.00038990    0.0727052 ----
    55   0   0   F    T  3.07D+00 0.01477044 0.00537538 0.18354066 0.06932373    0.0727052 ----
    56   0   0   F    F -1.74D-01 0.01477044 0.00537538 0.03202275 0.01209506    0.0717588 ----
    57   0   0   F    F -1.77D-02 0.01477044 0.00537538 0.00056744 0.00021432    0.0717277 ---+
    58   0   0   F    T  1.08D+00 0.02498615 0.00796979 0.16342020 0.05744298    0.0717276 ----
    59   0   0   F    F  3.87D-02 0.02498615 0.00796979 0.00632443 0.00222307    0.0704925 ----
    60   0   0   F    T  2.97D+00 0.01323781 0.00510675 0.13528830 0.05966605    0.0704903 ----
    61   0   0   F    F -1.40D-01 0.01323781 0.00510675 0.01895608 0.00836018    0.0695124 ----
    62   0   0   F    F -2.01D-02 0.01323781 0.00510675 0.00038135 0.00016818    0.0694860 --++
    63   0   0   F    T  3.11D+00 0.01338977 0.00542141 0.12239896 0.05147406    0.0694859 ----
    64   0   0   T    F  4.34D-01 0.01338977 0.00542141 0.05307761 0.02232143    0.0697878 ----
    65   0   0   F    T  1.28D+00 0.01604840 0.00510746 0.06051980 0.02232143    0.0689052 ----
    66   0   0   F    F  8.40D-01 0.01604840 0.00510746 0.05084696 0.01875381    0.0681661 ----
    67   0   0   F    F -1.33D-02 0.01604840 0.00510746 0.00067599 0.00024933    0.0679682 ---+
    68   0   0   F    T  1.94D+00 0.01354325 0.00530489 0.11888263 0.04082592    0.0679682 ----
    69   0   0   F    F  8.69D-01 0.01354325 0.00530489 0.10335647 0.03549402    0.0667015 ----
    70   0   0   F    F -5.64D-02 0.01354325 0.00530489 0.00583065 0.00200233    0.0663324 ----
    71   0   0   F    T  2.26D+00 0.01807863 0.00726437 0.21854172 0.07431762    0.0663309 ----
    72   0   0   F    F -4.18D-01 0.01807863 0.00726437 0.09126025 0.03103409    0.0658237 ----
    73   0   0   F    T  1.65D+00 0.01819125 0.00663838 0.12791352 0.04328352    0.0652970 ----
    74   0   0   F    F  3.84D-01 0.01819125 0.00663838 0.04911358 0.01661911    0.0639236 ----
    75   0   0   F    F -2.49D-02 0.01819125 0.00663838 0.00122353 0.00041402    0.0638144 ----
    76   0   0   F    T  2.46D+00 0.01224861 0.00618392 0.17833175 0.05948861    0.0638143 ----
    77   0   0   F    F  3.94D-01 0.01224861 0.00618392 0.07031431 0.02345573    0.0619320 ----
    78   0   0   F    F -5.20D-02 0.01224861 0.00618392 0.00365305 0.00121860    0.0617643 ----
    79   0   0   F    T  2.53D+00 0.01650956 0.00731510 0.23439828 0.08172574    0.0617638 ----
    80   0   0   F    F  3.15D-01 0.01650956 0.00731510 0.07378636 0.02572649    0.0591361 ----
    81   0   0   F    F -1.07D-01 0.01650956 0.00731510 0.00792675 0.00276376    0.0589818 ----
    82   0   0   F    T  4.15D+00 0.01570316 0.00783460 0.29445901 0.10468847    0.0589794 ----
    83   0   0   F    F -4.06D-01 0.01570316 0.00783460 0.11942108 0.04245756    0.0577066 ----
    84   0   0   F    F -8.82D-03 0.01570316 0.00783460 0.00105292 0.00037434    0.0567960 ----
    85   0   0   F    T  1.43D+00 0.02879662 0.00989994 0.18255707 0.06260526    0.0567960 ----
    86   0   0   F    F  3.62D-02 0.02879662 0.00989994 0.00661028 0.00226690    0.0546296 ----
    87   0   0   F    T  2.55D+00 0.01332835 0.00636653 0.19831252 0.06487216    0.0546270 ----
    88   0   0   F    F -2.43D-01 0.01332835 0.00636653 0.04815472 0.01575241    0.0535742 ----
    89   0   0   F    F -1.43D-02 0.01332835 0.00636653 0.00068979 0.00022565    0.0534554 ---+
    90   0   0   F    T  3.18D+00 0.01126133 0.00478091 0.15418972 0.04934539    0.0534554 ----
    91   0   0   F    F -2.88D-01 0.01126133 0.00478091 0.04444161 0.01422266    0.0528061 ----
    92   0   0   F    T  3.31D+00 0.00817376 0.00385474 0.10784003 0.03512273    0.0526781 ----
    93   0   0   F    F -2.24D-01 0.00817376 0.00385474 0.02410564 0.00785104    0.0521468 ----
    94   0   0   F    T  1.73D+00 0.01423833 0.00463930 0.08420037 0.02727169    0.0520972 ----
    95   0   0   F    F -2.03D-01 0.01423833 0.00463930 0.01709247 0.00553608    0.0516823 ----
    96   0   0   F    T  1.84D+00 0.01052056 0.00393119 0.06449016 0.02173560    0.0516540 ----
    97   0   0   F    F  4.06D-01 0.01052056 0.00393119 0.02618655 0.00882585    0.0511175 ----
    98   0   0   F    T  2.71D+00 0.01121603 0.00351303 0.08723984 0.03056146    0.0510708 ----
    99   0   0   F    F -3.55D-01 0.01121603 0.00351303 0.03092821 0.01083463    0.0508466 ----
   100   0   0   F    T  3.90D+00 0.00554329 0.00230017 0.05837721 0.01972683    0.0507422 ----
   101   0   0   F    F -3.57D-01 0.00554329 0.00230017 0.02086588 0.00705100    0.0506045 ----
   102   0   0   F    T  2.38D+00 0.00443515 0.00225039 0.03884124 0.01267583    0.0505438 ----
   103   0   0   F    F  8.47D-02 0.00443515 0.00225039 0.00328793 0.00107302    0.0503503 ----
   104   0   0   F    T  1.34D+00 0.00798992 0.00303355 0.04177899 0.01374885    0.0503491 ----
   105   0   0   F    F  3.91D-01 0.00798992 0.00303355 0.01632100 0.00537100    0.0501134 ----
   106   0   0   F    T  1.96D+00 0.00877485 0.00282947 0.05460069 0.01911985    0.0500933 ----
   107   0   0   F    F -1.77D-01 0.00877485 0.00282947 0.00969034 0.00339332    0.0499057 ----
   108   0   0   F    T  3.36D+00 0.00368229 0.00195754 0.03789527 0.01572653    0.0498961 ----
   109   0   0   F    F -2.61D-01 0.00368229 0.00195754 0.00990396 0.00411014    0.0497715 ----
   110   0   0   F    T  2.97D+00 0.00388595 0.00172765 0.02546699 0.01161639    0.0497537 ----
   111   0   0   F    F -1.34D-01 0.00388595 0.00172765 0.00341883 0.00155945    0.0496423 ----
   112   0   0   F    T  1.34D+00 0.00611324 0.00232454 0.02279027 0.01005694    0.0496396 ----
   113   0   0   F    F  1.31D-01 0.00611324 0.00232454 0.00299425 0.00132131    0.0495184 ----
   114   0   0   F    T  2.28D+00 0.00376846 0.00178130 0.02836175 0.01137825    0.0495167 ----
   115   0   0   F    F -8.91D-02 0.00376846 0.00178130 0.00252621 0.00101347    0.0494181 ----
   116   0   0   F    T  2.11D+00 0.00497334 0.00174200 0.02767671 0.01036477    0.0494171 ----
   117   0   0   F    F  1.16D-01 0.00497334 0.00174200 0.00319802 0.00119764    0.0493128 ----
   118   0   0   F    T  3.76D+00 0.00293227 0.00130225 0.03176120 0.01156241    0.0493117 ----
   119   0   0   F    F -4.38D-01 0.00293227 0.00130225 0.01390011 0.00506022    0.0492910 ----
   120   0   0   F    T  1.35D+00 0.00369482 0.00157825 0.01793451 0.00650219    0.0492577 ----
   121   0   0   F    F  2.20D-01 0.00369482 0.00157825 0.00394539 0.00143041    0.0491977 ----
   122   0   0   F    T  1.75D+00 0.00353941 0.00151335 0.02133674 0.00793260    0.0491957 ----
   123   0   0   F    F  5.13D-01 0.00353941 0.00151335 0.01094613 0.00406956    0.0491161 ----
   124   0   0   F    T  2.65D+00 0.00500778 0.00146965 0.03006033 0.01200216    0.0491060 ----
   125   0   0   F    F -1.20D-01 0.00500778 0.00146965 0.00361671 0.00144404    0.0490313 ----
   126   0   0   F    T  2.56D+00 0.00315857 0.00136739 0.02361615 0.01055812    0.0490298 ----
   127   0   0   F    F -2.09D-01 0.00315857 0.00136739 0.00494063 0.00220882    0.0489768 ----
   128   0   0   F    T  1.29D+00 0.00528371 0.00169920 0.01694164 0.00834930    0.0489728 ----
   129   0   0   F    F  2.93D-01 0.00528371 0.00169920 0.00496987 0.00244929    0.0489047 ----
   130   0   0   F    T  2.66D+00 0.00439135 0.00129344 0.02073283 0.01079859    0.0489011 ----
   131   0   0   F    F  4.33D-02 0.00439135 0.00129344 0.00089872 0.00046810    0.0488323 ----
   132   0   0   F    T  2.42D+00 0.00256759 0.00132477 0.02421160 0.01126669    0.0488322 ----
   133   0   0   F    F  3.35D-01 0.00256759 0.00132477 0.00810880 0.00377337    0.0487517 ----
   134   0   0   F    T  2.09D+00 0.00415101 0.00162703 0.03248049 0.01504006    0.0487461 ----
   135   0   0   F    F -1.27D-01 0.00415101 0.00162703 0.00412417 0.00190969    0.0486746 ----
   136   0   0   F    T  2.36D+00 0.00403039 0.00146000 0.02743837 0.01313037    0.0486730 ----
   137   0   0   F    F -4.84D-01 0.00403039 0.00146000 0.01327582 0.00635301    0.0486686 ----
   138   0   0   F    T  1.98D+00 0.00244265 0.00113517 0.01491325 0.00677735    0.0486339 ----
   139   0   0   F    F  8.38D-01 0.00244265 0.00113517 0.01249873 0.00568007    0.0485782 ----
   140   0   0   F    T  2.12D+00 0.00363050 0.00147535 0.02807870 0.01245742    0.0485635 ----
   141   0   0   F    F  9.70D-01 0.00363050 0.00147535 0.02722501 0.01207867    0.0484602 ----
   142   0   0   F    T  3.36D+00 0.00409391 0.00162866 0.05561857 0.02453610    0.0484271 ----
   143   0   0   F    F -3.77D-01 0.00409391 0.00162866 0.02094722 0.00924085    0.0483747 ----
   144   0   0   F    T  2.49D+00 0.00385931 0.00150153 0.03292162 0.01529524    0.0483434 ----
   145   0   0   F    F  4.39D-02 0.00385931 0.00150153 0.00144430 0.00067101    0.0482564 ----
   146   0   0   F    T  1.65D+00 0.00494246 0.00186167 0.03444794 0.01596626    0.0482563 ----
   147   0   0   F    F -7.38D-02 0.00494246 0.00186167 0.00254054 0.00117752    0.0481776 ----
   148   0   0   F    T  1.92D+00 0.00288163 0.00160890 0.03287874 0.01478874    0.0481771 ----
   149   0   0   F    F  5.46D-01 0.00288163 0.00160890 0.01794844 0.00807314    0.0480778 ----
   150   0   0   F    T  2.45D+00 0.00474824 0.00171859 0.05427294 0.02286188    0.0480641 ----
   151   0   0   F    F  9.11D-02 0.00474824 0.00171859 0.00494196 0.00208175    0.0479421 ----
   152   0   0   F    T  3.23D+00 0.00402358 0.00159099 0.06446839 0.02494363    0.0479411 ----
   153   0   0   F    F -3.64D-01 0.00402358 0.00159099 0.02346089 0.00907731    0.0478886 ----
   154   0   0   F    T  2.88D+00 0.00262865 0.00137720 0.04411680 0.01586632    0.0478632 ----
   155   0   0   F    F  2.22D-01 0.00262865 0.00137720 0.00977584 0.00351582    0.0477659 ----
   156   0   0   F    T  1.27D+00 0.00619018 0.00227443 0.05434648 0.01938213    0.0477625 ----
   157   0   0   F    F  1.64D-01 0.00619018 0.00227443 0.00892613 0.00318341    0.0476511 ----
   158   0   0   F    T  3.94D+00 0.00344365 0.00137016 0.06220083 0.02256555    0.0476489 ----
   159   0   0   F    F -3.25D-01 0.00344365 0.00137016 0.02019270 0.00732562    0.0475913 ----
   160   0   0   F    T  2.46D+00 0.00302818 0.00140594 0.04057461 0.01523993    0.0475735 ----
   161   0   0   F    F  1.25D-01 0.00302818 0.00140594 0.00508097 0.00190843    0.0474934 ----
   162   0   0   F    T  2.35D+00 0.00411540 0.00150093 0.04338725 0.01714836    0.0474925 ----
   163   0   0   F    F -1.00D-01 0.00411540 0.00150093 0.00435401 0.00172088    0.0474211 ----
   164   0   0   F    T  2.67D+00 0.00313104 0.00131835 0.03661356 0.01542748    0.0474201 ----
   165   0   0   F    F -4.09D-01 0.00313104 0.00131835 0.01498251 0.00631303    0.0473983 ----
   166   0   0   F    T  1.42D+00 0.00295493 0.00136641 0.02269370 0.00911445    0.0473794 ----
   167   0   0   F    F  9.33D-01 0.00295493 0.00136641 0.02116622 0.00850097    0.0473203 ----
   168   0   0   F    T  2.58D+00 0.00274539 0.00133653 0.04054161 0.01761543    0.0473025 ----
   169   0   0   F    F  6.00D-02 0.00274539 0.00133653 0.00243079 0.00105618    0.0472280 ----
   170   0   0   F    T  2.73D+00 0.00415420 0.00137267 0.04246581 0.01867161    0.0472277 ----
   171   0   0   F    F -6.58D-02 0.00415420 0.00137267 0.00279621 0.00122946    0.0471554 ----
   172   0   0   F    T  1.90D+00 0.00406845 0.00162896 0.04303538 0.01744216    0.0471550 ----
   173   0   0   F    F  1.59D-01 0.00406845 0.00162896 0.00685525 0.00277842    0.0470737 ----
   174   0   0   F    T  2.38D+00 0.00465522 0.00145430 0.04406391 0.02022058    0.0470723 ----
   175   0   0   T    F  4.53D-01 0.00465522 0.00145430 0.01994612 0.00915311    0.0470914 ----
   176   0   0   F    T  3.27D+00 0.00168026 0.00079397 0.02185182 0.00915311    0.0470378 ----
   177   0   0   F    F -1.41D-01 0.00168026 0.00079397 0.00308423 0.00129190    0.0470120 ----
   178   0   0   F    T  2.22D+00 0.00253016 0.00088717 0.02039152 0.00786122    0.0470113 ----
   179   0   0   F    F  3.15D-02 0.00253016 0.00088717 0.00064167 0.00024737    0.0469841 ---+
   180   0   0   F    T  3.33D+00 0.00215027 0.00072216 0.02270737 0.00810859    0.0469841 ----
   181   0   0   F    F -3.55D-01 0.00215027 0.00072216 0.00806759 0.00288086    0.0469724 ----
   182   0   0   F    T  2.17D+00 0.00189727 0.00070417 0.01536356 0.00522773    0.0469673 ----
   183   0   0   F    F -2.42D-01 0.00189727 0.00070417 0.00371777 0.00126504    0.0469563 ----
   184   0   0   F    T  1.56D+00 0.00188082 0.00070722 0.01205585 0.00396269    0.0469551 ----
   185   0   0   F    F  2.38D-01 0.00188082 0.00070722 0.00286746 0.00094252    0.0469412 ----
   186   0   0   F    T  5.92D+00 0.00099701 0.00037687 0.01623900 0.00490521    0.0469406 ----
   187   0   0   T    F  3.66D-01 0.00099701 0.00037687 0.00593887 0.00179391    0.0469501 ----
   188   0   0   F    T  2.35D+00 0.00087705 0.00034324 0.00598343 0.00179391    0.0469360 ----
   189   0   0   F    T  1.89D+00 0.00094967 0.00036570 0.00599732 0.00179391    0.0469319 ----
   190   0   0   F    F -9.28D-02 0.00094967 0.00036570 0.00055649 0.00016646    0.0469286 ---+
   191   0   0   F    T  2.19D+00 0.00079089 0.00031198 0.00537297 0.00162746    0.0469285 ----
   192   0   0   F    F -4.31D-01 0.00079089 0.00031198 0.00231501 0.00070121    0.0469277 ----
   193   0   0   F    T  2.66D+00 0.00045991 0.00019349 0.00284113 0.00092625    0.0469267 ----
   194   0   0   F    F  1.33D+00 0.00045991 0.00019349 0.00376963 0.00122895    0.0469243 ----
   195   0   0   F    T  2.01D+00 0.00092944 0.00033208 0.00610499 0.00215519    0.0469232 ----
   196   0   0   F    F -1.10D-01 0.00092944 0.00033208 0.00067440 0.00023808    0.0469203 ---+
   197   0   0   F    T  2.80D+00 0.00063164 0.00025516 0.00460061 0.00191712    0.0469203 ----
   198   0   0   F    F -2.95D-01 0.00063164 0.00025516 0.00135655 0.00056529    0.0469187 ----
   199   0   0   F    T  1.22D+00 0.00072564 0.00031818 0.00307648 0.00135183    0.0469183 ----
   200   0   0   F    F  9.59D-01 0.00072564 0.00031818 0.00294965 0.00129610    0.0469156 ----
   201   0   0   F    T  3.15D+00 0.00055099 0.00027129 0.00580721 0.00264793    0.0469147 ----
   202   0   0   F    T  2.18D+00 0.00067444 0.00031723 0.00630043 0.00264793    0.0469113 ----
   203   0   0   F    F  5.19D-01 0.00067444 0.00031723 0.00327054 0.00137454    0.0469069 ----
   204   0   0   F    T  1.73D+00 0.00089751 0.00043711 0.00981538 0.00402247    0.0469063 ----
   205   0   0   F    F -1.15D-01 0.00089751 0.00043711 0.00112432 0.00046076    0.0469020 ----
   206   0   0   F    T  2.64D+00 0.00088744 0.00033182 0.00828485 0.00356171    0.0469019 ----
   207   0   0   F    F -4.29D-01 0.00088744 0.00033182 0.00355621 0.00152884    0.0469008 ----
   208   0   0   F    T  2.14D+00 0.00066471 0.00027200 0.00513583 0.00203287    0.0468995 ----
   209   0   0   F    F  7.43D-01 0.00066471 0.00027200 0.00381377 0.00150957    0.0468961 ----
   210   0   0   F    T  2.56D+00 0.00097829 0.00032254 0.00924374 0.00354245    0.0468953 ----
   211   0   0   F    F  4.85D-02 0.00097829 0.00032254 0.00044822 0.00017177    0.0468911 --++
   212   0   0   F    T  2.85D+00 0.00070944 0.00030747 0.01092917 0.00371422    0.0468911 ----
   213   0   0   T    F  4.70D-01 0.00070944 0.00030747 0.00514063 0.00174701    0.0468917 ----
   214   0   0   F    T  1.90D+00 0.00052064 0.00025382 0.00396230 0.00174701    0.0468892 ----
   215   0   0   F    F  8.52D-02 0.00052064 0.00025382 0.00033748 0.00014880    0.0468873 --++
   216   0   0   F    T  2.05D+00 0.00054239 0.00024954 0.00429557 0.00189581    0.0468872 ----
   217   0   0   F    T  4.76D+00 0.00036289 0.00016682 0.00417772 0.00189581    0.0468852 ----
   218   0   0   F    F -3.30D-01 0.00036289 0.00016682 0.00138045 0.00062643    0.0468842 ----
   219   0   0   F    T  1.50D+00 0.00054788 0.00023381 0.00282599 0.00126938    0.0468838 ----
   220   0   0   F    F  1.16D+00 0.00054788 0.00023381 0.00328492 0.00147552    0.0468819 ----
   221   0   0   F    T  1.62D+00 0.00069418 0.00033706 0.00612997 0.00274490    0.0468812 ----
   222   0   0   F    F -1.77D-01 0.00069418 0.00033706 0.00108346 0.00048516    0.0468790 ----
   223   0   0   F    T  3.92D+00 0.00038237 0.00019101 0.00491673 0.00225974    0.0468789 ----
   224   0   0   T    F  4.80D-01 0.00038237 0.00019101 0.00236210 0.00108563    0.0468791 ----
   225   0   0   F    T  1.78D+00 0.00040467 0.00019157 0.00264628 0.00108563    0.0468779 ----
   226   0   0   F    F  1.28D+00 0.00040467 0.00019157 0.00339474 0.00139268    0.0468763 ----
   227   0   0   F    T  3.03D+00 0.00057584 0.00021728 0.00599670 0.00247831    0.0468756 ----
   228   0   0   F    F -4.78D-01 0.00057584 0.00021728 0.00286386 0.00118357    0.0468754 ----
   229   0   0   F    T  1.47D+00 0.00051487 0.00022162 0.00292470 0.00129474    0.0468745 ----
   230   0   0   F    F  4.67D-01 0.00051487 0.00022162 0.00136553 0.00060451    0.0468731 ----
   231   0   0   F    T  2.90D+00 0.00046889 0.00018737 0.00401146 0.00189924    0.0468729 ----
   232   0   0   F    F -2.47D-01 0.00046889 0.00018737 0.00099056 0.00046898    0.0468719 ----
   233   0   0   F    T  2.52D+00 0.00047402 0.00017057 0.00316578 0.00143026    0.0468718 ----
   234   0   0   F    F -1.86D-01 0.00047402 0.00017057 0.00058839 0.00026583    0.0468709 ---+
   235   0   0   F    T  2.73D+00 0.00038756 0.00014346 0.00263054 0.00116443    0.0468709 ----
   236   0   0   F    F -2.32D-01 0.00038756 0.00014346 0.00061156 0.00027071    0.0468703 ---+
   237   0   0   F    T  1.27D+00 0.00044643 0.00018097 0.00204395 0.00089372    0.0468702 ----
   238   0   0   F    F  5.03D-01 0.00044643 0.00018097 0.00102809 0.00044954    0.0468694 ----
   239   0   0   F    T  7.17D+00 0.00019946 0.00008775 0.00327410 0.00134326    0.0468693 ----
   240   0   0   T    F  1.77D-01 0.00019946 0.00008775 0.00057884 0.00023748    0.0468723 ---+
   241   0   0   F    T  2.16D+00 0.00014162 0.00006130 0.00074919 0.00023748    0.0468691 -+-+
   242   0   0   F    F  1.55D+00 0.00014162 0.00006130 0.00116178 0.00036827    0.0468689 -+--
   243   0   0   F    T  1.44D+00 0.00032928 0.00011734 0.00197568 0.00060575    0.0468688 ----
   244   0   0   F    T  2.35D+00 0.00028602 0.00009405 0.00201493 0.00060575    0.0468685 ----
   245   0   0   F    T  2.66D+00 0.00017446 0.00007911 0.00206993 0.00060575    0.0468682 ----
   246   0   0   F    T  1.64D+00 0.00023874 0.00010331 0.00207167 0.00060575    0.0468679 ----
   247   0   0   F    F  5.71D-01 0.00023874 0.00010331 0.00118345 0.00034604    0.0468675 ----
   248   0   0   F    T  1.80D+00 0.00029135 0.00011203 0.00326196 0.00095178    0.0468674 ----
   249   0   0   F    F -2.72D-01 0.00029135 0.00011203 0.00088831 0.00025919    0.0468672 ---+
   250   0   0   F    T  2.50D+00 0.00022880 0.00008542 0.00228571 0.00069259    0.0468672 ----
   251   0   0   F    F  1.11D+00 0.00022880 0.00008542 0.00252972 0.00076653    0.0468668 ----
   252   0   0   F    T  1.98D+00 0.00046394 0.00013788 0.00465746 0.00145912    0.0468666 ----
   253   0   0   F    F  1.58D-01 0.00046394 0.00013788 0.00073429 0.00023004    0.0468660 ---+
   254   0   0   F    T  2.81D+00 0.00029233 0.00012465 0.00534007 0.00168916    0.0468660 ----
   255   0   0   F    F  2.06D-01 0.00029233 0.00012465 0.00109842 0.00034745    0.0468652 ----
   256   0   0   F    T  1.92D+00 0.00050934 0.00016440 0.00617611 0.00203661    0.0468652 ----
   257   0   0   F    F -1.35D-01 0.00050934 0.00016440 0.00083438 0.00027514    0.0468645 ---+
   258   0   0   F    T  1.26D+00 0.00043956 0.00018503 0.00509455 0.00176147    0.0468645 ----
   259   0   0   F    F  1.06D+00 0.00043956 0.00018503 0.00542123 0.00187442    0.0468635 ----
   260   0   0   F    T  4.84D+00 0.00035307 0.00014502 0.01037725 0.00363589    0.0468631 ----
   261   0   0   F    F -4.90D-01 0.00035307 0.00014502 0.00508084 0.00178018    0.0468630 ----
   262   0   0   F    T  2.05D+00 0.00037669 0.00016144 0.00502802 0.00185571    0.0468623 ----
   263   0   0   F    F  2.13D-01 0.00037669 0.00016144 0.00106939 0.00039468    0.0468614 ----
   264   0   0   F    T  1.50D+00 0.00044790 0.00020583 0.00592453 0.00225039    0.0468614 ----
   265   0   0   F    T  2.30D+00 0.00045030 0.00016914 0.00629322 0.00225039    0.0468604 ----
   266   0   0   F    T  2.26D+00 0.00039422 0.00016606 0.00669318 0.00225039    0.0468593 ----
   267   0   0   F    F  3.26D-01 0.00039422 0.00016606 0.00218152 0.00073347    0.0468581 ----
   268   0   0   F    T  3.80D+00 0.00035741 0.00014935 0.00960330 0.00298387    0.0468581 ----
   269   0   0   T    F  4.43D-01 0.00035741 0.00014935 0.00425512 0.00132212    0.0468584 ----
   270   0   0   F    T  1.49D+00 0.00043348 0.00015937 0.00449481 0.00132212    0.0468575 ----
   271   0   0   F    F  1.14D-01 0.00043348 0.00015937 0.00051357 0.00015106    0.0468569 ---+
   272   0   0   F    T  2.25D+00 0.00025506 0.00013414 0.00520567 0.00147318    0.0468569 ----
   273   0   0   F    F  3.72D-01 0.00025506 0.00013414 0.00193408 0.00054734    0.0468561 ----
   274   0   0   F    T  2.30D+00 0.00048324 0.00015235 0.00715845 0.00202052    0.0468560 ----
   275   0   0   F    F -1.17D-01 0.00048324 0.00015235 0.00083485 0.00023564    0.0468553 ---+
   276   0   0   F    T  7.69D+00 0.00018573 0.00007887 0.00625270 0.00178488    0.0468553 ----
   277   0   0   T    F  3.99D-01 0.00018573 0.00007887 0.00249587 0.00071246    0.0468557 ----
   278   0   0   F    T  1.52D+00 0.00023889 0.00011051 0.00241639 0.00071246    0.0468550 ----
   279   0   0   F    T  2.13D+00 0.00020492 0.00009589 0.00223438 0.00071246    0.0468547 ----
   280   0   0   F    F -1.79D-01 0.00020492 0.00009589 0.00040087 0.00012782    0.0468545 --++
   281   0   0   F    T  3.10D+00 0.00018778 0.00006167 0.00164669 0.00058464    0.0468545 -+--
   282   0   0   F    F -2.75D-01 0.00018778 0.00006167 0.00045289 0.00016079    0.0468544 -+-+
   283   0   0   F    T  2.12D+00 0.00016955 0.00006371 0.00105500 0.00042385    0.0468544 -+--
   284   0   0   F    F  3.76D-01 0.00016955 0.00006371 0.00039701 0.00015950    0.0468542 -+++
   285   0   0   F    T  3.75D+00 0.00017019 0.00005433 0.00121521 0.00058335    0.0468542 -+--
   286   0   0   T    F  4.22D-01 0.00017019 0.00005433 0.00051303 0.00024628    0.0468542 -+-+
   287   0   0   F    T  1.90D+00 0.00014043 0.00004781 0.00051135 0.00024628    0.0468541 -+-+
   288   0   0   F    T  1.44D+00 0.00010948 0.00004866 0.00056822 0.00024628    0.0468541 ++-+
   289   0   0   F    T  3.88D+00 0.00008802 0.00004543 0.00043415 0.00024628    0.0468540 ====
 ****************************
 MOLECULAR MECHANICS FUNCTION
 ****************************
 Atomic parameters:
 Center  VDW
      1 1.9080 0.0860000
      2 1.7210 0.2104000
      3 1.9080 0.1094000
      4 1.4870 0.0157000
      5 1.4870 0.0157000
      6 1.8750 0.1700000
      7 0.6000 0.0157000
      8 0.6000 0.0157000
      9 1.6612 0.2100000
     10 0.0000 0.0000000
 Molecular mechanics terms:
 NBDir 3 1      0      0
 HrmStr1  1- 2  431.53 1.3510
 HrmStr1  1- 3  294.15 1.5090
 HrmStr1  1- 9  946.08 1.2030
 HrmStr1  2-10  566.76 0.9680
 HrmStr1  3- 4  358.05 1.0960
 HrmStr1  3- 5  358.05 1.0960
 HrmStr1  3- 6  380.82 1.4520
 HrmStr1  6- 7  506.01 1.0110
 HrmStr1  6- 8  506.01 1.0110
 HrmBnd1  1- 2-10  56.55 107.23
 HrmBnd1  1- 3- 4  46.41 106.89
 HrmBnd1  1- 3- 5  46.41 106.89
 HrmBnd1  1- 3- 6  59.93 110.61
 HrmBnd1  2- 1- 3  67.92 111.72
 HrmBnd1  2- 1- 9  91.40 123.02
 HrmBnd1  3- 1- 9  62.83 125.24
 HrmBnd1  3- 6- 7  52.60 110.71
 HrmBnd1  3- 6- 8  52.60 110.71
 HrmBnd1  4- 3- 5  44.68 106.22
 HrmBnd1  4- 3- 6  52.45 112.94
 HrmBnd1  5- 3- 6  52.45 112.94
 HrmBnd1  7- 6- 8  47.09 108.63
 AmbTrs  3- 1- 2-10   0 180   0   0  0.0000 14.5000  0.0000  0.0000  2.0
 AmbTrs  9- 1- 2-10   0   0   0   0  0.0000 14.5000  0.0000  0.0000  2.0
 AmbTrs  2- 1- 3- 4   0   0   0   0  0.0000 14.5000  0.0000  0.0000  6.0
 AmbTrs  2- 1- 3- 5   0   0   0   0  0.0000 14.5000  0.0000  0.0000  6.0
 AmbTrs  2- 1- 3- 6   0   0   0   0  0.0000 14.5000  0.0000  0.0000  6.0
 AmbTrs  9- 1- 3- 4   0   0   0   0  0.0000 14.5000  0.0000  0.0000  6.0
 AmbTrs  9- 1- 3- 5   0   0   0   0  0.0000 14.5000  0.0000  0.0000  6.0
 AmbTrs  9- 1- 3- 6   0   0   0   0  0.0000 14.5000  0.0000  0.0000  6.0
 AmbTrs  1- 3- 6- 7   0 180   0   0  0.0000 25.6300  0.0000  0.0000  6.0
 AmbTrs  1- 3- 6- 8   0 180   0   0  0.0000 25.6300  0.0000  0.0000  6.0
 AmbTrs  4- 3- 6- 7   0   0   0   0  0.0000 16.9300  0.0000  0.0000  6.0
 AmbTrs  4- 3- 6- 8   0   0   0   0  0.0000 16.9300  0.0000  0.0000  6.0
 AmbTrs  5- 3- 6- 7   0   0   0   0  0.0000 16.9300  0.0000  0.0000  6.0
 AmbTrs  5- 3- 6- 8   0   0   0   0  0.0000 16.9300  0.0000  0.0000  6.0
 NBPair  2- 1 3 1      0      0 -1.000 -1.000
 NBPair  3- 2 3 1      0      0 -1.000 -1.000
 NBPair 10- 3 3 1      0      0 -0.500 -0.167
 NBPair  9- 2 3 1      0      0 -1.000 -1.000
 NBPair 10- 9 3 1      0      0 -0.500 -0.167
 NBPair  3- 1 3 1      0      0 -1.000 -1.000
 NBPair  4- 2 3 1      0      0 -0.500 -0.167
 NBPair  5- 2 3 1      0      0 -0.500 -0.167
 NBPair  6- 2 3 1      0      0 -0.500 -0.167
 NBPair  9- 3 3 1      0      0 -1.000 -1.000
 NBPair  9- 4 3 1      0      0 -0.500 -0.167
 NBPair  9- 5 3 1      0      0 -0.500 -0.167
 NBPair  9- 6 3 1      0      0 -0.500 -0.167
 NBPair  9- 1 3 1      0      0 -1.000 -1.000
 NBPair 10- 1 3 1      0      0 -1.000 -1.000
 NBPair 10- 2 3 1      0      0 -1.000 -1.000
 NBPair  4- 1 3 1      0      0 -1.000 -1.000
 NBPair  5- 1 3 1      0      0 -1.000 -1.000
 NBPair  6- 1 3 1      0      0 -1.000 -1.000
 NBPair  4- 3 3 1      0      0 -1.000 -1.000
 NBPair  5- 4 3 1      0      0 -1.000 -1.000
 NBPair  6- 4 3 1      0      0 -1.000 -1.000
 NBPair  5- 3 3 1      0      0 -1.000 -1.000
 NBPair  6- 5 3 1      0      0 -1.000 -1.000
 NBPair  6- 3 3 1      0      0 -1.000 -1.000
 NBPair  7- 1 3 1      0      0 -0.500 -0.167
 NBPair  8- 1 3 1      0      0 -0.500 -0.167
 NBPair  7- 4 3 1      0      0 -0.500 -0.167
 NBPair  8- 4 3 1      0      0 -0.500 -0.167
 NBPair  7- 5 3 1      0      0 -0.500 -0.167
 NBPair  8- 5 3 1      0      0 -0.500 -0.167
 NBPair  7- 3 3 1      0      0 -1.000 -1.000
 NBPair  8- 3 3 1      0      0 -1.000 -1.000
 NBPair  7- 6 3 1      0      0 -1.000 -1.000
 NBPair  8- 7 3 1      0      0 -1.000 -1.000
 NBPair  8- 6 3 1      0      0 -1.000 -1.000
 Energy per function type:
 Direct Coulomb + vdW (small)                           0.003573168
 Direct Coulomb (large)                                -0.130159072
 Direct vdW (large)                                   268.917416893
 Non-direct Coulomb + vdW (small)                      -0.012846506
 Non-direct Coulomb (large)                             0.138027156
 Non-direct vdW (large)                              -268.917416893
 Harmonic stretch I                                     0.000137073
 Harmonic bend I                                        0.009833210
 Amber torsion                                          0.038289004
 Energy per function class:
        Coulomb              -0.003057963
    Vanderwaals               0.001652709
     Stretching               0.000137073
        Bending               0.009833210
        Torsion               0.038289004
 Energy=    4.685403286E-02 NIter=   0.
 Dipole moment=      -0.000315      -0.738237       0.187568
 Leave Link  402 at Sun Nov 26 11:20:23 2023, MaxMem=   134217728 cpu:               0.4 elap:               0.4
 (Enter /home/emanuele/chem_software/gaussian//gdv/l716.exe)
 Dipole        =-3.14659539D-04-7.38236571D-01 1.87567987D-01
 -------------------------------------------------------------------
 Center     Atomic                   Forces (Hartrees/Bohr)
 Number     Number              X              Y              Z
 -------------------------------------------------------------------
      1        6          -0.000011249    0.000035869    0.000078679
      2        8           0.000011373   -0.000004936   -0.000053720
      3        6          -0.000037043   -0.000088022    0.000057401
      4        1           0.000026750    0.000084123   -0.000000870
      5        1           0.000004785   -0.000020346   -0.000056848
      6        7          -0.000073530    0.000009226   -0.000070432
      7        1           0.000042851    0.000051206    0.000020598
      8        1           0.000051135   -0.000046790    0.000051430
      9        8          -0.000018484    0.000031409   -0.000024516
     10        1           0.000003411   -0.000051740   -0.000001722
 -------------------------------------------------------------------
 Cartesian Forces:  Max     0.000088022 RMS     0.000045433
 Z-matrix is all fixed cartesians, so copy forces.
 Leave Link  716 at Sun Nov 26 11:20:23 2023, MaxMem=   134217728 cpu:               0.0 elap:               0.0
 (Enter /home/emanuele/chem_software/gaussian//gdv/l103.exe)

 GradGradGradGradGradGradGradGradGradGradGradGradGradGradGradGradGradGrad
 Berny optimization.
 Search for a local minimum.
 Step number   1 out of a maximum of    2
 All quantities printed in internal units (Hartrees-Bohrs-Radians)
 RMS Force = .45433D-04 SwitMx=.10000D-02 MixMth= 2
 Mixed Optimization -- En-DIIS/RFO-DIIS
 Second derivative matrix not updated -- unit matrix used.
 ITU=  0
 RFO step:  Lambda=-6.19248142D-08 EMin= 1.00000000D+00
 Linear search not attempted -- first point.
 Variable       Old X    -DE/DX   Delta X   Delta X   Delta X     New X
                                 (Linear)    (Quad)   (Total)
    X1       -1.17659  -0.00001   0.00000  -0.00001  -0.00001  -1.17660
    Y1       -0.20145   0.00004   0.00000   0.00004   0.00004  -0.20141
    Z1       -0.67716   0.00008   0.00000   0.00008   0.00008  -0.67708
    X2       -2.26888   0.00001   0.00000   0.00001   0.00001  -2.26886
    Y2        0.22658  -0.00000   0.00000  -0.00000  -0.00000   0.22658
    Z2        1.58997  -0.00005   0.00000  -0.00005  -0.00005   1.58992
    X3        1.32465  -0.00004   0.00000  -0.00004  -0.00004   1.32461
    Y3       -1.56152  -0.00009   0.00000  -0.00009  -0.00009  -1.56161
    Z3       -0.26248   0.00006   0.00000   0.00006   0.00006  -0.26242
    X4        0.80722   0.00003   0.00000   0.00003   0.00003   0.80724
    Y4       -3.22285   0.00008   0.00000   0.00008   0.00008  -3.22277
    Z4        0.86403  -0.00000   0.00000  -0.00000  -0.00000   0.86403
    X5        1.79203   0.00000   0.00000   0.00000   0.00000   1.79204
    Y5       -2.25288  -0.00002   0.00000  -0.00002  -0.00002  -2.25290
    Z5       -2.15888  -0.00006   0.00000  -0.00006  -0.00006  -2.15893
    X6        3.21922  -0.00007   0.00000  -0.00007  -0.00007   3.21915
    Y6        0.09445   0.00001   0.00000   0.00001   0.00001   0.09446
    Z6        0.87349  -0.00007   0.00000  -0.00007  -0.00007   0.87342
    X7        2.82600   0.00004   0.00000   0.00004   0.00004   2.82604
    Y7        1.95197   0.00005   0.00000   0.00005   0.00005   1.95202
    Z7        1.10160   0.00002   0.00000   0.00002   0.00002   1.10162
    X8        5.02686   0.00005   0.00000   0.00005   0.00005   5.02691
    Y8       -0.49807  -0.00005   0.00000  -0.00005  -0.00005  -0.49812
    Z8        1.05332   0.00005   0.00000   0.00005   0.00005   1.05338
    X9       -1.29215  -0.00002   0.00000  -0.00002  -0.00002  -1.29216
    Y9        1.40832   0.00003   0.00000   0.00003   0.00003   1.40835
    Z9       -2.27673  -0.00002   0.00000  -0.00002  -0.00002  -2.27676
   X10       -4.05623   0.00000   0.00000   0.00000   0.00000  -4.05622
   Y10        0.42038  -0.00005   0.00000  -0.00005  -0.00005   0.42033
   Z10        1.26278  -0.00000   0.00000  -0.00000  -0.00000   1.26278
         Item               Value     Threshold  Converged?
 Maximum Force            0.000088     0.000450     YES
 RMS     Force            0.000045     0.000300     YES
 Maximum Displacement     0.000088     0.001800     YES
 RMS     Displacement     0.000045     0.001200     YES
 Predicted change in Energy=-3.096240D-08
 Optimization completed.
    -- Stationary point found.
 Largest change from initial coordinates is atom    8       0.851 Angstoms.
 GradGradGradGradGradGradGradGradGradGradGradGradGradGradGradGradGradGrad

 Leave Link  103 at Sun Nov 26 11:20:23 2023, MaxMem=   134217728 cpu:               0.0 elap:               0.0
 (Enter /home/emanuele/chem_software/gaussian//gdv/l202.exe)
                          Input orientation:                          
 ---------------------------------------------------------------------
 Center     Atomic      Atomic             Coordinates (Angstroms)
 Number     Number       Type             X           Y           Z
 ---------------------------------------------------------------------
      1          6    20001002       -0.622625   -0.106601   -0.358337
      2          8    20001022       -1.200637    0.119903    0.841375
      3          6    20001001        0.700973   -0.826320   -0.138896
      4          1    20001034        0.427160   -1.705460    0.457226
      5          1    20001034        0.948304   -1.192171   -1.142429
      6          7    20001020        1.703537    0.049983    0.462233
      7          1    20001029        1.495453    1.032936    0.582942
      8          1    20001029        2.660099   -0.263567    0.557396
      9          8    20001025       -0.683774    0.745253   -1.204795
     10          1    20001031       -2.146464    0.222458    0.668236
 ---------------------------------------------------------------------
                    Distance matrix (angstroms):
                    1          2          3          4          5
     1  C    0.000000
     2  O    1.350819   0.000000
     3  C    1.522518   2.339314   0.000000
     4  H    2.079313   2.475732   1.096915   0.000000
     5  H    2.064238   3.205459   1.096402   1.758963   0.000000
     6  N    2.471616   2.929653   1.460958   2.170424   2.165240
     7  H    2.582790   2.858202   2.146877   2.942085   2.868340
     8  H    3.411669   3.890113   2.153993   2.659907   2.584947
     9  O    1.202450   2.201142   2.350214   3.162670   2.534004
    10  H    1.866606   0.966996   3.139951   3.222566   3.854513
                    6          7          8          9         10
     6  N    0.000000
     7  H    1.011962   0.000000
     8  H    1.011128   1.742978   0.000000
     9  O    2.993600   2.833337   3.912099   0.000000
    10  H    3.859364   3.731984   4.832344   2.433315   0.000000
 Symmetry turned off by external request.
 Stoichiometry    C2H5NO2
 Framework group  C1[X(C2H5NO2)]
 Deg. of freedom    24
 Full point group                 C1      NOp   1
 Rotational constants (GHZ):           8.5750423           4.2212776           3.5010312
 Leave Link  202 at Sun Nov 26 11:20:23 2023, MaxMem=   134217728 cpu:               0.0 elap:               0.0
 (Enter /home/emanuele/chem_software/gaussian//gdv/l9999.exe)
 Unable to Open any file for archive entry.
 1\1\GINC-EMANUELE-XPS-13-9343\FOpt\AMBER\ZDO\C2H5N1O2\EMANUELE\26-Nov-
 2023\0\\#p Amber=(SoftFirst,Print) geom=nocrowd nosymm opt=(maxcycle=3
 00)\\Title\\0,1\C,-0.6226251695,-0.1066012866,-0.3583371712\O,-1.20063
 74901,0.1199032101,0.8413752786\C,0.7009729839,-0.8263196797,-0.138896
 1188\H,0.4271603901,-1.7054601808,0.4572257481\H,0.9483037738,-1.19217
 10674,-1.1424289751\N,1.7035371356,0.0499825175,0.4622332562\H,1.49545
 31148,1.0329358823,0.582941623\H,2.6600989927,-0.263567121,0.557395585
 3\O,-0.6837741385,0.7452526979,-1.2047954525\H,-2.1464635929,0.2224580
 277,0.6682362265\\Version=ES64L-GDVRevJ.14\HF=0.046854\RMSD=0.000e+00\
 RMSF=4.543e-05\Dipole=-0.0003147,-0.7382366,0.187568\PG=C01 [X(C2H5N1O
 2)]\\@
 The archive entry for this job was punched.


 ...THE PHYSICISTS HAVE MADE THEIR UNIVERSE, AND IF YOU DO NOT LIKE
 IT, YOU MUST MAKE YOUR OWN.
                               -- E. R. HARRISON IN "COSMOLOGY" (1980)
 Job cpu time:       0 days  0 hours  0 minutes  1.0 seconds.
 Elapsed time:       0 days  0 hours  0 minutes  0.9 seconds.
 File lengths (MBytes):  RWF=      6 Int=      0 D2E=      0 Chk=      1 Scr=      1
 Normal termination of Gaussian DV at Sun Nov 26 11:20:23 2023.
