 Entering Gaussian System, Link 0=/home/emanuele/chem_software/gaussian//g09/g09
 Input=2_zmat_mm_60.gjf
 Output=2_zmat_mm_60.log
 Initial command:
 /home/emanuele/chem_software/gaussian//gdv/l1.exe "/home/emanuele/chem_software/gaussian/scratch/Gau-6298.inp" -scrdir="/home/emanuele/chem_software/gaussian/scratch/"
 Entering Link 1 = /home/emanuele/chem_software/gaussian//gdv/l1.exe PID=      6300.
  
 Copyright (c) 1988-2020, Gaussian, Inc.  All Rights Reserved.
  
 This is the private, development version of
 the Gaussian(R) DV system of programs. It is based on
 the Gaussian(R) 16 system (copyright 2016, Gaussian, Inc.),
 the Gaussian(R) 09 system (copyright 2009, Gaussian, Inc.),
 the Gaussian(R) 03 system (copyright 2003, Gaussian, Inc.),
 the Gaussian(R) 98 system (copyright 1998, Gaussian, Inc.),
 the Gaussian(R) 94 system (copyright 1995, Gaussian, Inc.),
 the Gaussian 92(TM) system (copyright 1992, Gaussian, Inc.),
 the Gaussian 90(TM) system (copyright 1990, Gaussian, Inc.),
 the Gaussian 88(TM) system (copyright 1988, Gaussian, Inc.),
 the Gaussian 86(TM) system (copyright 1986, Carnegie Mellon
 University), and the Gaussian 82(TM) system (copyright 1983,
 Carnegie Mellon University). Gaussian is a federally registered
 trademark of Gaussian, Inc.
  
 This software contains proprietary and confidential information,
 including trade secrets, belonging to Gaussian, Inc.
  
 This software is provided under written license and may be
 used, copied, transmitted, or stored only in accord with that
 written license.
  
 The following legend is applicable only to US Government
 contracts under FAR:
  
                    RESTRICTED RIGHTS LEGEND
  
 Use, reproduction and disclosure by the US Government is
 subject to restrictions as set forth in subparagraphs (a)
 and (c) of the Commercial Computer Software - Restricted
 Rights clause in FAR 52.227-19.
  
 Gaussian, Inc.
 340 Quinnipiac St., Bldg. 40, Wallingford CT 06492
  
  
 ---------------------------------------------------------------
 Warning -- This program may not be used in any manner that
 competes with the business of Gaussian, Inc. or will provide
 assistance to any competitor of Gaussian, Inc.  The licensee
 of this program is prohibited from giving any competitor of
 Gaussian, Inc. access to this program.  By using this program,
 the user acknowledges that Gaussian, Inc. is engaged in the
 business of creating and licensing software in the field of
 computational chemistry and represents and warrants to the
 licensee that it is not a competitor of Gaussian, Inc. and that
 it will not use this program in any manner prohibited above.
 ---------------------------------------------------------------
  

 Cite this work as:
 Gaussian Development Version, Revision J.14,
 M. J. Frisch, G. W. Trucks, H. B. Schlegel, G. E. Scuseria, 
 M. A. Robb, J. R. Cheeseman, G. Scalmani, V. Barone, 
 G. A. Petersson, H. Nakatsuji, X. Li, A. V. Marenich, M. Caricato, 
 J. Bloino, B. G. Janesko, J. Zheng, R. Gomperts, B. Mennucci, 
 H. P. Hratchian, J. V. Ortiz, A. F. Izmaylov, J. L. Sonnenberg, 
 D. Williams-Young, F. Ding, F. Lipparini, F. Egidi, J. Goings, 
 B. Peng, A. Petrone, T. Henderson, D. Ranasinghe, V. G. Zakrzewski, 
 J. Gao, N. Rega, G. Zheng, W. Liang, M. Hada, M. Ehara, K. Toyota, 
 R. Fukuda, J. Hasegawa, M. Ishida, T. Nakajima, Y. Honda, O. Kitao, 
 H. Nakai, T. Vreven, K. Throssell, J. A. Montgomery, Jr., 
 J. E. Peralta, F. Ogliaro, M. J. Bearpark, J. J. Heyd, 
 E. N. Brothers, K. N. Kudin, V. N. Staroverov, T. A. Keith, 
 R. Kobayashi, J. Normand, K. Raghavachari, A. P. Rendell, 
 J. C. Burant, S. S. Iyengar, J. Tomasi, M. Cossi, J. M. Millam, 
 M. Klene, C. Adamo, R. Cammi, J. W. Ochterski, R. L. Martin, 
 K. Morokuma, O. Farkas, J. B. Foresman, and D. J. Fox, 
 Gaussian, Inc., Wallingford CT, 2020.
 
 ******************************************
 Gaussian DV:  ES64L-GDVRevJ.14 29-Dec-2020
                26-Nov-2023 
 ******************************************
 %mem=1GB
 %nprocshared=1
 Will use up to    1 processors via shared memory.
 %chk=2_zmat_mm_60.chk
 -----------------------------------------------------------------
 #p Amber=(SoftFirst,Print) geom=nocrowd nosymm opt=(maxcycle=300)
 -----------------------------------------------------------------
 1/6=300,10=10,18=4000020,19=15,37=210000000,38=1,56=2,64=203/1,3;
 2/9=110,12=1,15=1,40=1/2;
 3/5=30,11=9,25=1,30=1,41=10030000,43=2,71=1/1;
 4/20=11,22=1001,24=3,119=11/2;
 7/30=1,44=-1/16;
 1/6=300,10=10,18=4000020,19=15,64=203/3(2);
 2/9=110,12=1,15=1/2;
 99//99;
 2/9=110,12=1,15=1/2;
 3/5=30,11=9,25=1,30=1,41=10030000,43=2,71=1/1;
 4/16=2,20=11,22=1001,24=3,119=11/2;
 7/30=1,44=-1/16;
 1/6=300,10=10,18=4000020,19=15,64=203/3(-4);
 2/9=110,12=1,15=1/2;
 99/9=10/99;
 Leave Link    1 at Sun Nov 26 11:20:24 2023, MaxMem=   134217728 cpu:               0.0 elap:               0.0
 (Enter /home/emanuele/chem_software/gaussian//gdv/l101.exe)
 -----
 Title
 -----
 Symbolic Z-matrix:
 Charge =  0 Multiplicity = 1
 C-C-+0.299289        -0.62711  -0.31952  -0.0937 
 O-OH--0.289770       -0.75217   0.98255   0.36042 
 C-CT--0.035454        0.82274  -0.58125  -0.45921 
 H-HC-+0.090426        0.95687  -1.69376  -0.47196 
 H-HC-+0.095387        0.99817  -0.23846  -1.51263 
 N-N3--0.336253        1.81026  -0.32471   0.60731 
 H-H-+0.142619         1.85941   0.6726    0.81745 
 H-H-+0.128282         1.54145  -0.79542   1.46958 
 O-O2--0.308037       -1.62661  -0.88706  -0.46036 
 H-HO-+0.213510       -1.70097   1.26144   0.46805 
 
 ITRead=  3  3  3  3  3  3  3  3  3  3
 MicOpt=  0  0  0  0  0  0  0  0  0  0
 NAtoms=     10 NQM=        0 NQMF=       0 NMMI=      0 NMMIF=      0
                NMic=      10 NMicF=      0.
                    Isotopes and Nuclear Properties:
 (Nuclear quadrupole moments (NQMom) in fm**2, nuclear magnetic moments (NMagM)
  in nuclear magnetons)

  Atom         1           2           3           4           5           6           7           8           9          10
 IAtWgt=          12          16          12           1           1          14           1           1          16           1
 AtmWgt=  12.0000000  15.9949146  12.0000000   1.0078250   1.0078250  14.0030740   1.0078250   1.0078250  15.9949146   1.0078250
 NucSpn=           0           0           0           1           1           2           1           1           0           1
 AtZEff=  -0.0000000  -0.0000000  -0.0000000  -0.0000000  -0.0000000  -0.0000000  -0.0000000  -0.0000000  -0.0000000  -0.0000000
 NQMom=    0.0000000   0.0000000   0.0000000   0.0000000   0.0000000   2.0440000   0.0000000   0.0000000   0.0000000   0.0000000
 NMagM=    0.0000000   0.0000000   0.0000000   2.7928460   2.7928460   0.4037610   2.7928460   2.7928460   0.0000000   2.7928460
 AtZNuc=   6.0000000   8.0000000   6.0000000   1.0000000   1.0000000   7.0000000   1.0000000   1.0000000   8.0000000   1.0000000
 Generating MM parameters.
 I=    1 IAn=  6 Valence= 5.
          JB=  1 J=    2 IAn=  8 IBT=12 Dist= 1.38D+00
          JB=  2 J=    3 IAn=  6 IBT= 1 Dist= 1.52D+00
          JB=  3 J=    9 IAn=  8 IBT= 2 Dist= 1.21D+00
 I=    2 IAn=  8 Valence= 3.
          JB=  1 J=    1 IAn=  6 IBT=12 Dist= 1.38D+00
          JB=  2 J=   10 IAn=  1 IBT= 1 Dist= 9.95D-01
 Read MM parameter file:
 Include all MM classes

 MM sanity checks:
 All charges sum to:               -0.00000100
 Charges of atoms sum to:          -0.00000100
 WARNING -- The following centers have non-zero partial charges, but zero Vanderwaals
 parameters.  These centers can collapse onto other centers with non-zero charge.
   Center  Layer   Charge
     10 H    R    0.213510
 MMInit generated parameter data with length LenPar=        2069.
 MM Charge=             -0.0000 electrons
 MM Dipole moment (Debye):
    X=              0.8403    Y=              0.5284    Z=              0.1896  Tot=              1.0106
 MM Quadrupole moment (Debye-Ang):
   XX=             -1.8910   YY=              1.0147   ZZ=              2.0448
   XY=             -2.6996   XZ=             -1.6248   YZ=             -0.0067
 MM Traceless Quadrupole moment (Debye-Ang):
   XX=             -2.2805   YY=              0.6252   ZZ=              1.6553
   XY=             -2.6996   XZ=             -1.6248   YZ=             -0.0067
 MM Octapole moment (Debye-Ang**2):
  XXX=             -0.6208  YYY=             -0.4055  ZZZ=              0.5363  XYY=              2.0765
  XXY=              7.6928  XXZ=              2.9022  XZZ=              3.1894  YZZ=             -0.5703
  YYZ=              0.9235  XYZ=              0.9230
 MM Hexadecapole moment (Debye-Ang**3):
 XXXX=             -6.9323 YYYY=              4.3239 ZZZZ=              5.3320 XXXY=             -7.7399
 XXXZ=             -4.7746 YYYX=             -6.1473 YYYZ=              0.7550 ZZZX=              1.0785
 ZZZY=             -0.7995 XXYY=              3.5061 XXZZ=              3.6242 YYZZ=              1.2487
 XXYZ=              0.9776 YYXZ=             -1.2115 ZZXY=             -1.8964
 Leave Link  101 at Sun Nov 26 11:20:24 2023, MaxMem=   134217728 cpu:               0.2 elap:               0.2
 (Enter /home/emanuele/chem_software/gaussian//gdv/l103.exe)

 GradGradGradGradGradGradGradGradGradGradGradGradGradGradGradGradGradGrad
 Berny optimization.
 Initialization pass.
 No Z-matrix variables, so optimization will use Cartesian coordinates.
 Trust Radius=1.00D-01 FncErr=1.00D-07 GrdErr=1.00D-07 EigMax=2.50D+02 EigMin=1.00D-04
 Number of steps in this run=      2 maximum allowed number of steps=      2.
 GradGradGradGradGradGradGradGradGradGradGradGradGradGradGradGradGradGrad

 Leave Link  103 at Sun Nov 26 11:20:24 2023, MaxMem=   134217728 cpu:               0.0 elap:               0.0
 (Enter /home/emanuele/chem_software/gaussian//gdv/l202.exe)
                          Input orientation:                          
 ---------------------------------------------------------------------
 Center     Atomic      Atomic             Coordinates (Angstroms)
 Number     Number       Type             X           Y           Z
 ---------------------------------------------------------------------
      1          6    20001002       -0.627105   -0.319519   -0.093704
      2          8    20001022       -0.752168    0.982545    0.360420
      3          6    20001001        0.822738   -0.581249   -0.459208
      4          1    20001034        0.956866   -1.693756   -0.471956
      5          1    20001034        0.998167   -0.238457   -1.512631
      6          7    20001020        1.810257   -0.324709    0.607306
      7          1    20001029        1.859405    0.672597    0.817453
      8          1    20001029        1.541449   -0.795418    1.469578
      9          8    20001025       -1.626611   -0.887056   -0.460355
     10          1    20001031       -1.700973    1.261435    0.468047
 ---------------------------------------------------------------------
                    Distance matrix (angstroms):
                    1          2          3          4          5
     1  C    0.000000
     2  O    1.384644   0.000000
     3  C    1.517940   2.365919   0.000000
     4  H    2.130860   3.282717   1.120636   0.000000
     5  H    2.159035   2.839514   1.121598   1.789582   0.000000
     6  N    2.536173   2.887194   1.475960   1.940972   2.271797
     7  H    2.827938   2.669318   2.068012   2.841967   2.645948
     8  H    2.715319   3.106777   2.069451   2.217725   3.082034
     9  O    1.206459   2.221200   2.468366   2.706520   2.901280
    10  H    1.992027   0.994783   3.259510   4.084222   3.668531
                    6          7          8          9         10
     6  N    0.000000
     7  H    1.020390   0.000000
     8  H    1.018498   1.637508   0.000000
     9  O    3.642553   4.027110   3.710747   0.000000
    10  H    3.855384   3.625618   3.968250   2.341682   0.000000
 Symmetry turned off by external request.
 Stoichiometry    C2H5NO2
 Framework group  C1[X(C2H5NO2)]
 Deg. of freedom    24
 Full point group                 C1      NOp   1
 Rotational constants (GHZ):           9.6425093           3.8409732           2.9845083
 Leave Link  202 at Sun Nov 26 11:20:24 2023, MaxMem=   134217728 cpu:               0.0 elap:               0.0
 (Enter /home/emanuele/chem_software/gaussian//gdv/l301.exe)
 Standard basis: Dummy (5D, 7F)
    10 basis functions,    10 primitive gaussians,    10 cartesian basis functions
     7 alpha electrons        7 beta electrons
       nuclear repulsion energy        22.5938804676 Hartrees.
 IExCor=       0 DFT=F Ex=HF Corr=None N6=None ScaHFX=  1.000000
 ScaDFX=  1.000000  1.000000  1.000000  1.000000  1.000000  0.000000
 ScaDFX=  0.000000  0.000000  0.000000  0.000000  0.000000  0.000000
 IRadAn=      5 IRanWt=     -1 IRanGd=            0 ICorTp=0 IEmpDi=  4
 NAtoms=   10 NActive=   10 NUniq=   10 SFac= 1.00D+00 NAtFMM=   60 NAOKFM=F Big=F
 Integral buffers will be    131072 words long.
 Raffenetti 1 integral format.
 Two-electron integral symmetry is turned off.
 Leave Link  301 at Sun Nov 26 11:20:24 2023, MaxMem=   134217728 cpu:               0.0 elap:               0.0
 (Enter /home/emanuele/chem_software/gaussian//gdv/l402.exe)
 AMBER calculation of energy and first derivatives.
 NRF= 0 NRA=   0 NVA=  10 HaveQM=F NVQ=       0
 Convergence limit is  0.750E-04 MaxStp= 10000 StMxLn= 3.00D-04 StpMin= 1.00D-06.
 Convergence criteria             0.00011250 0.00007500 0.00045000 0.00030000
  Step  NS  ND Rises OKQ   Scale  Max. Force  RMS Force Max. Disp.  RMS Disp.     Energy   Flag
     1   0   0   F    T  1.00D+00 0.03948811 0.01470566 0.03948811 0.01470566    0.0965085 ----
     2   0   0   F    F  5.96D-01 0.03948811 0.01470566 0.02352001 0.00875903    0.0920559 ----
     3   0   0   F    T  2.25D+00 0.01944675 0.00891442 0.04772226 0.02346469    0.0913357 ----
     4   0   0   F    F  1.49D+00 0.01944675 0.00891442 0.07123557 0.03502602    0.0870468 ----
     5   0   0   F    F -1.09D-02 0.01944675 0.00891442 0.00077554 0.00038133    0.0846667 ----
     6   0   0   F    T  3.15D+00 0.02518546 0.01043899 0.12121851 0.05810938    0.0846664 ----
     7   0   0   T    F  4.50D-01 0.02518546 0.01043899 0.05453969 0.02614508    0.0861134 ----
     8   0   0   F    T  1.38D+00 0.02349076 0.01008341 0.06974319 0.02614508    0.0823087 ----
     9   0   0   F    F  2.73D-01 0.02349076 0.01008341 0.01906517 0.00714708    0.0796733 ----
    10   0   0   F    T  1.85D+00 0.02465148 0.00981485 0.09550361 0.03329216    0.0795401 ----
    11   0   0   F    F  2.58D-01 0.02465148 0.00981485 0.02465387 0.00859424    0.0763559 ----
    12   0   0   F    F -1.52D-02 0.02465148 0.00981485 0.00037374 0.00013029    0.0762208 --++
    13   0   0   F    T  5.93D+00 0.01176920 0.00574115 0.12197811 0.04175611    0.0762208 ----
    14   0   0   T    F  4.01D-01 0.01176920 0.00574115 0.04885774 0.01672521    0.0778069 ----
    15   0   0   F    T  2.29D+00 0.01266785 0.00503486 0.04061662 0.01672521    0.0750362 ----
    16   0   0   F    F  2.80D-01 0.01266785 0.00503486 0.01135605 0.00467622    0.0739850 ----
    17   0   0   F    T  1.41D+00 0.01812652 0.00688122 0.04946417 0.02140143    0.0739332 ----
    18   0   0   F    F -7.81D-02 0.01812652 0.00688122 0.00386197 0.00167094    0.0730169 ----
    19   0   0   F    T  2.62D+00 0.00964389 0.00428465 0.04554015 0.01973049    0.0730103 ----
    20   0   0   F    F -1.25D-01 0.00964389 0.00428465 0.00568658 0.00246374    0.0723829 ----
    21   0   0   F    T  2.71D+00 0.00890400 0.00363837 0.04460859 0.01726675    0.0723694 ----
    22   0   0   F    F -1.02D-01 0.00890400 0.00363837 0.00453449 0.00175518    0.0718974 ----
    23   0   0   F    T  3.58D+00 0.00642192 0.00267037 0.04514390 0.01551157    0.0718914 ----
    24   0   0   T    F  3.76D-01 0.00642192 0.00267037 0.01695155 0.00582460    0.0721499 ----
    25   0   0   F    T  1.41D+00 0.00813743 0.00236101 0.01179311 0.00582460    0.0717474 ----
    26   0   0   F    F  3.73D-01 0.00813743 0.00236101 0.00440136 0.00217382    0.0715977 ----
    27   0   0   F    T  2.24D+00 0.00591543 0.00200390 0.01684714 0.00799843    0.0715858 ----
    28   0   0   F    F  3.52D-01 0.00591543 0.00200390 0.00593318 0.00281686    0.0714162 ----
    29   0   0   F    T  4.51D+00 0.00349903 0.00146116 0.02473705 0.01081529    0.0714039 ----
    30   0   0   F    F -3.36D-01 0.00349903 0.00146116 0.00830097 0.00362927    0.0713325 ----
    31   0   0   F    T  1.24D+00 0.00761936 0.00218880 0.01689341 0.00718602    0.0713079 ----
    32   0   0   F    F  9.49D-02 0.00761936 0.00218880 0.00160285 0.00068181    0.0712113 ----
    33   0   0   F    T  3.73D+00 0.00270569 0.00120494 0.01999355 0.00786783    0.0712105 ----
    34   0   0   F    F -3.97D-01 0.00270569 0.00120494 0.00793635 0.00312310    0.0711827 ----
    35   0   0   F    T  1.91D+00 0.00319811 0.00122004 0.01250182 0.00474473    0.0711616 ----
    36   0   0   F    F  2.77D+00 0.00319811 0.00122004 0.03467285 0.01315914    0.0710875 ----
    37   0   0   F    T  2.61D+00 0.00431543 0.00197884 0.05285419 0.01790387    0.0709999 ----
    38   0   0   T    F  4.90D-01 0.00431543 0.00197884 0.02591467 0.00877836    0.0710051 ----
    39   0   0   F    T  1.81D+00 0.00397542 0.00161915 0.02521350 0.00877836    0.0709250 ----
    40   0   0   F    F  1.75D-01 0.00397542 0.00161915 0.00441444 0.00153694    0.0708425 ----
    41   0   0   F    T  1.97D+00 0.00392172 0.00164353 0.02842967 0.01031529    0.0708406 ----
    42   0   0   F    F  1.07D+00 0.00392172 0.00164353 0.03048458 0.01106089    0.0707204 ----
    43   0   0   F    T  7.26D+00 0.00398614 0.00125943 0.04921597 0.02137618    0.0706775 ----
    44   0   0   T    F  2.85D-01 0.00398614 0.00125943 0.01404338 0.00609952    0.0709332 ----
    45   0   0   F    T  1.51D+00 0.00398777 0.00142664 0.01391760 0.00609952    0.0706284 ----
    46   0   0   F    F  5.74D-01 0.00398777 0.00142664 0.00798350 0.00349885    0.0705657 ----
    47   0   0   F    T  1.18D+00 0.00404685 0.00197819 0.02207961 0.00959837    0.0705561 ----
    48   0   0   F    F  1.15D+00 0.00404685 0.00197819 0.02530851 0.01100202    0.0704487 ----
    49   0   0   F    T  3.81D+00 0.00463622 0.00159773 0.04181926 0.02060039    0.0704050 ----
    50   0   0   F    F  1.16D-01 0.00463622 0.00159773 0.00483771 0.00238308    0.0702452 ----
    51   0   0   F    T  1.87D+00 0.00548967 0.00240391 0.05311796 0.02298347    0.0702435 ----
    52   0   0   F    F  3.06D+00 0.00548967 0.00240391 0.16236451 0.07025308    0.0699418 ----
    53   0   0   F    F -2.27D-01 0.00548967 0.00240391 0.03681754 0.01593049    0.0696000 ----
    54   0   0   F    F -1.21D-02 0.00548967 0.00240391 0.00044369 0.00019198    0.0695490 --++
    55   0   0   F    T  2.90D+00 0.00797690 0.00397994 0.19297888 0.07749804    0.0695490 ----
    56   0   0   F    F -1.19D-01 0.00797690 0.00397994 0.02289434 0.00919410    0.0689080 ----
    57   0   0   F    F -9.36D-02 0.00797690 0.00397994 0.00214364 0.00086086    0.0688957 ----
    58   0   0   F    T  5.80D+00 0.01063905 0.00425694 0.18990690 0.06916480    0.0688956 ----
    59   0   0   F    F -1.05D-01 0.01063905 0.00425694 0.01995849 0.00726896    0.0676751 ----
    60   0   0   F    F -7.06D-02 0.01063905 0.00425694 0.00140970 0.00051342    0.0676640 ----
    61   0   0   F    T  1.97D+00 0.01425421 0.00646926 0.18371221 0.06240926    0.0676640 ----
    62   0   0   F    F  2.27D-01 0.01425421 0.00646926 0.04171094 0.01416971    0.0658799 ----
    63   0   0   F    F -2.62D-02 0.01425421 0.00646926 0.00109160 0.00037083    0.0657956 ----
    64   0   0   F    T  2.57D+00 0.01822848 0.00660065 0.21261491 0.07620815    0.0657955 ----
    65   0   0   F    F -2.80D-01 0.01822848 0.00660065 0.05942826 0.02130103    0.0647412 ----
    66   0   0   F    F -1.42D-02 0.01822848 0.00660065 0.00084402 0.00030253    0.0645276 ----
    67   0   0   F    T  2.26D+00 0.01879515 0.00748405 0.17140264 0.05520964    0.0645276 ----
    68   0   0   F    F  1.23D-01 0.01879515 0.00748405 0.02116296 0.00681669    0.0624889 ----
    69   0   0   F    F -3.92D-02 0.01879515 0.00748405 0.00082976 0.00026727    0.0624665 ---+
    70   0   0   F    T  1.89D+00 0.01698994 0.00857996 0.19669311 0.06175906    0.0624664 ----
    71   0   0   F    F -8.41D-02 0.01698994 0.00857996 0.01654972 0.00519640    0.0604988 ----
    72   0   0   F    F -2.08D-02 0.01698994 0.00857996 0.00034416 0.00010806    0.0604811 --++
    73   0   0   F    T  1.80D+00 0.02417214 0.00832742 0.19369152 0.05667073    0.0604811 ----
    74   0   0   F    F  3.33D-02 0.02417214 0.00832742 0.00644652 0.00188614    0.0584542 ----
    75   0   0   F    T  2.15D+00 0.01595591 0.00863826 0.21956426 0.05855686    0.0584520 ----
    76   0   0   F    F  1.74D-01 0.01595591 0.00863826 0.03811060 0.01016394    0.0558415 ----
    77   0   0   F    F -4.18D-02 0.01595591 0.00863826 0.00159359 0.00042500    0.0557909 ----
    78   0   0   F    T  4.22D+00 0.01820413 0.00644205 0.24738522 0.06829580    0.0557908 ----
    79   0   0   T    F  4.61D-01 0.01820413 0.00644205 0.11394035 0.03145558    0.0563319 ----
    80   0   0   F    T  2.64D+00 0.00991483 0.00508400 0.11313773 0.03145558    0.0545741 ----
    81   0   0   F    F -2.01D-01 0.00991483 0.00508400 0.02271955 0.00631670    0.0538214 ----
    82   0   0   F    T  1.66D+00 0.01373926 0.00542858 0.08591468 0.02513889    0.0537732 ----
    83   0   0   F    F  8.35D-02 0.01373926 0.00542858 0.00717489 0.00209939    0.0529887 ----
    84   0   0   F    T  1.48D+00 0.01128499 0.00562358 0.08699622 0.02723828    0.0529841 ----
    85   0   0   F    F  4.71D-01 0.01128499 0.00562358 0.04101295 0.01284104    0.0520384 ----
    86   0   0   F    F -8.12D-03 0.01128499 0.00562358 0.00033299 0.00010426    0.0519270 --++
    87   0   0   F    T  3.73D+00 0.00835688 0.00424452 0.11591427 0.03997507    0.0519270 ----
    88   0   0   F    F -2.53D-01 0.00835688 0.00424452 0.02931467 0.01010968    0.0512564 ----
    89   0   0   F    T  2.66D+00 0.00982031 0.00433531 0.07949950 0.02986539    0.0511675 ----
    90   0   0   F    F -4.92D-02 0.00982031 0.00433531 0.00391405 0.00147038    0.0504595 ----
    91   0   0   F    T  1.86D+00 0.01522185 0.00492387 0.07952730 0.02839501    0.0504576 ----
    92   0   0   F    F -2.58D-01 0.01522185 0.00492387 0.02053322 0.00733133    0.0500177 ----
    93   0   0   F    T  1.85D+00 0.00918927 0.00409167 0.05864264 0.02106368    0.0499575 ----
    94   0   0   F    F  1.21D-01 0.00918927 0.00409167 0.00708937 0.00254641    0.0494339 ----
    95   0   0   F    T  2.35D+00 0.01117609 0.00378152 0.06327080 0.02361009    0.0494275 ----
    96   0   0   F    F -5.85D-02 0.01117609 0.00378152 0.00370101 0.00138107    0.0489562 ----
    97   0   0   F    T  2.70D+00 0.00684380 0.00332592 0.05760353 0.02222902    0.0489544 ----
    98   0   0   F    F  3.50D-01 0.00684380 0.00332592 0.02016200 0.00778045    0.0483999 ----
    99   0   0   F    T  3.70D+00 0.00651342 0.00309080 0.06756564 0.03000947    0.0483616 ----
   100   0   0   T    F  4.50D-01 0.00651342 0.00309080 0.03043657 0.01351849    0.0484878 ----
   101   0   0   F    T  1.55D+00 0.00781606 0.00310393 0.02754400 0.01351849    0.0481225 ----
   102   0   0   F    F  1.30D-01 0.00781606 0.00310393 0.00358996 0.00176194    0.0478714 ----
   103   0   0   F    T  1.92D+00 0.00826710 0.00289464 0.03349216 0.01528043    0.0478680 ----
   104   0   0   F    F -5.34D-02 0.00826710 0.00289464 0.00178881 0.00081613    0.0476406 ----
   105   0   0   F    T  3.00D+00 0.00618600 0.00215898 0.03637293 0.01446430    0.0476399 ----
   106   0   0   F    F -5.20D-02 0.00618600 0.00215898 0.00188974 0.00075149    0.0474419 ----
   107   0   0   F    T  4.05D+00 0.00395477 0.00166821 0.03856777 0.01371281    0.0474413 ----
   108   0   0   F    F -4.40D-01 0.00395477 0.00166821 0.01696423 0.00603165    0.0474053 ----
   109   0   0   F    T  1.52D+00 0.00532924 0.00195959 0.02344281 0.00768116    0.0473464 ----
   110   0   0   F    T  1.77D+00 0.00513403 0.00174354 0.02481315 0.00768116    0.0472595 ----
   111   0   0   F    F  3.64D-01 0.00513403 0.00174354 0.00902028 0.00279232    0.0471590 ----
   112   0   0   F    T  2.32D+00 0.00433775 0.00170575 0.03339177 0.01047348    0.0471515 ----
   113   0   0   F    F -1.16D-01 0.00433775 0.00170575 0.00386081 0.00121096    0.0470628 ----
   114   0   0   F    T  3.52D+00 0.00276168 0.00121975 0.02921023 0.00926252    0.0470612 ----
   115   0   0   F    F -2.86D-01 0.00276168 0.00121975 0.00835715 0.00265004    0.0470143 ----
   116   0   0   F    T  2.58D+00 0.00304717 0.00114005 0.01928187 0.00661248    0.0470054 ----
   117   0   0   F    F -2.90D-01 0.00304717 0.00114005 0.00558671 0.00191589    0.0469757 ----
   118   0   0   F    T  1.19D+00 0.00387952 0.00136392 0.01300186 0.00469659    0.0469697 ----
   119   0   0   F    F  6.24D-01 0.00387952 0.00136392 0.00811874 0.00293268    0.0469233 ----
   120   0   0   F    T  3.33D+00 0.00272447 0.00101516 0.01921792 0.00762927    0.0469151 ----
   121   0   0   F    F -4.68D-01 0.00272447 0.00101516 0.00898576 0.00356723    0.0469085 ----
   122   0   0   F    T  3.22D+00 0.00166219 0.00068739 0.00901140 0.00406204    0.0468878 ----
   123   0   0   F    F -3.65D-01 0.00166219 0.00068739 0.00328573 0.00148110    0.0468781 ----
   124   0   0   F    T  2.52D+00 0.00128996 0.00056277 0.00536157 0.00258094    0.0468733 ----
   125   0   0   F    F -2.88D-01 0.00128996 0.00056277 0.00154411 0.00074330    0.0468662 ----
   126   0   0   F    T  1.00D+00 0.00177128 0.00074259 0.00450777 0.00193127    0.0468648 ----
   127   0   0   F    F  2.66D+00 0.00177128 0.00074259 0.01201245 0.00514652    0.0468505 ----
   128   0   0   F    T  2.87D+00 0.00198450 0.00082274 0.01672593 0.00707779    0.0468344 ----
   129   0   0   F    F -1.79D-01 0.00198450 0.00082274 0.00299006 0.00126528    0.0468117 ----
   130   0   0   F    T  2.36D+00 0.00199222 0.00079786 0.01600168 0.00581251    0.0468106 ----
   131   0   0   F    F -1.79D-01 0.00199222 0.00079786 0.00285896 0.00103850    0.0467930 ----
   132   0   0   F    T  2.39D+00 0.00184371 0.00069259 0.01360887 0.00477401    0.0467921 ----
   133   0   0   F    F -3.68D-01 0.00184371 0.00069259 0.00500763 0.00175668    0.0467849 ----
   134   0   0   F    T  1.24D+00 0.00161065 0.00074386 0.00821521 0.00301733    0.0467812 ----
   135   0   0   F    F  1.43D+00 0.00161065 0.00074386 0.01171993 0.00430456    0.0467648 ----
   136   0   0   F    T  3.48D+00 0.00144739 0.00067570 0.01886208 0.00732189    0.0467561 ----
   137   0   0   F    F -3.38D-01 0.00144739 0.00067570 0.00637057 0.00247293    0.0467445 ----
   138   0   0   F    T  3.31D+00 0.00136861 0.00054468 0.01057365 0.00484896    0.0467404 ----
   139   0   0   T    F  3.88D-01 0.00136861 0.00054468 0.00409730 0.00187897    0.0467488 ----
   140   0   0   F    T  1.96D+00 0.00114653 0.00041709 0.00346294 0.00187897    0.0467347 ----
   141   0   0   F    F -2.89D-01 0.00114653 0.00041709 0.00099919 0.00054215    0.0467316 ----
   142   0   0   F    T  1.86D+00 0.00074241 0.00033858 0.00256956 0.00133682    0.0467310 ----
   143   0   0   F    F  8.72D-01 0.00074241 0.00033858 0.00224136 0.00116607    0.0467263 ----
   144   0   0   F    T  2.48D+00 0.00111915 0.00038552 0.00517468 0.00250289    0.0467250 ----
   145   0   0   F    T  2.16D+00 0.00096564 0.00039520 0.00561756 0.00250289    0.0467197 ----
   146   0   0   F    F -3.94D-01 0.00096564 0.00039520 0.00221137 0.00098527    0.0467180 ----
   147   0   0   F    T  1.67D+00 0.00091863 0.00034890 0.00362567 0.00151762    0.0467168 ----
   148   0   0   F    F  1.70D-01 0.00091863 0.00034890 0.00061753 0.00025848    0.0467133 ---+
   149   0   0   F    T  2.54D+00 0.00063456 0.00028556 0.00430583 0.00177611    0.0467132 ----
   150   0   0   F    F  7.40D-01 0.00063456 0.00028556 0.00318766 0.00131487    0.0467088 ----
   151   0   0   F    T  1.80D+00 0.00119897 0.00043993 0.00753127 0.00309098    0.0467078 ----
   152   0   0   F    F  2.19D-01 0.00119897 0.00043993 0.00165262 0.00067827    0.0467016 ----
   153   0   0   F    T  3.07D+00 0.00094929 0.00036222 0.00985835 0.00376925    0.0467014 ----
   154   0   0   F    F -4.84D-01 0.00094929 0.00036222 0.00476861 0.00182323    0.0467010 ----
   155   0   0   F    T  1.24D+00 0.00106771 0.00040209 0.00569153 0.00194601    0.0466983 ----
   156   0   0   F    F  7.97D-01 0.00106771 0.00040209 0.00453690 0.00155123    0.0466940 ----
   157   0   0   F    T  3.62D+00 0.00092909 0.00030473 0.01144905 0.00349725    0.0466929 ----
   158   0   0   F    F -1.49D-01 0.00092909 0.00030473 0.00170460 0.00052069    0.0466888 ----
   159   0   0   F    T  2.78D+00 0.00070046 0.00031424 0.01027582 0.00297655    0.0466886 ----
   160   0   0   F    F -2.66D-01 0.00070046 0.00031424 0.00273189 0.00079133    0.0466860 ----
   161   0   0   F    T  1.91D+00 0.00070540 0.00031797 0.00794896 0.00218522    0.0466856 ----
   162   0   0   F    F -4.24D-02 0.00070540 0.00031797 0.00033683 0.00009260    0.0466828 --++
   163   0   0   F    T  1.38D+00 0.00092937 0.00036191 0.00760780 0.00209262    0.0466828 ----
   164   0   0   F    F  4.61D-01 0.00092937 0.00036191 0.00350554 0.00096424    0.0466793 ----
   165   0   0   F    T  3.07D+00 0.00062049 0.00028892 0.01132522 0.00305687    0.0466789 ----
   166   0   0   F    F  5.99D-01 0.00062049 0.00028892 0.00678411 0.00183114    0.0466736 ----
   167   0   0   F    T  2.32D+00 0.00110681 0.00041441 0.01819716 0.00488801    0.0466727 ----
   168   0   0   F    F -1.71D-01 0.00110681 0.00041441 0.00311178 0.00083587    0.0466680 ----
   169   0   0   F    T  1.83D+00 0.00101301 0.00042265 0.01471921 0.00405214    0.0466678 ----
   170   0   0   F    F  6.20D-02 0.00101301 0.00042265 0.00091330 0.00025143    0.0466626 ---+
   171   0   0   F    T  1.48D+00 0.00112648 0.00047926 0.01562723 0.00430357    0.0466626 ----
   172   0   0   F    F  2.97D-01 0.00112648 0.00047926 0.00464273 0.00127856    0.0466563 ----
   173   0   0   F    T  2.98D+00 0.00099701 0.00037822 0.01952892 0.00558213    0.0466559 ----
   174   0   0   F    T  3.80D+00 0.00084694 0.00033759 0.01821209 0.00558213    0.0466495 ----
   175   0   0   F    F -3.15D-01 0.00084694 0.00033759 0.00573879 0.00175898    0.0466460 ----
   176   0   0   F    T  1.62D+00 0.00120743 0.00042195 0.01214915 0.00382315    0.0466450 ----
   177   0   0   F    F  2.45D-01 0.00120743 0.00042195 0.00297889 0.00093741    0.0466398 ----
   178   0   0   F    T  1.33D+00 0.00103703 0.00052119 0.01441783 0.00476056    0.0466396 ----
   179   0   0   F    F  6.35D-01 0.00103703 0.00052119 0.00916175 0.00302508    0.0466321 ----
   180   0   0   F    T  3.53D+00 0.00087786 0.00041492 0.02270783 0.00778565    0.0466308 ----
   181   0   0   F    F -4.36D-01 0.00087786 0.00041492 0.00989884 0.00339393    0.0466287 ----
   182   0   0   F    T  2.76D+00 0.00096017 0.00034486 0.01231357 0.00439171    0.0466256 ----
   183   0   0   F    F  5.11D-01 0.00096017 0.00034486 0.00628938 0.00224315    0.0466190 ----
   184   0   0   F    T  1.46D+00 0.00142912 0.00058206 0.01802138 0.00663486    0.0466181 ----
   185   0   0   F    F  7.48D-02 0.00142912 0.00058206 0.00134833 0.00049641    0.0466102 ----
   186   0   0   F    T  1.83D+00 0.00150093 0.00053926 0.01968061 0.00713127    0.0466102 ----
   187   0   0   F    F  2.22D-01 0.00150093 0.00053926 0.00436385 0.00158124    0.0466008 ----
   188   0   0   F    T  2.65D+00 0.00135744 0.00048193 0.02419965 0.00871251    0.0466005 ----
   189   0   0   F    F -1.40D-01 0.00135744 0.00048193 0.00337678 0.00121573    0.0465928 ----
   190   0   0   F    T  2.74D+00 0.00128100 0.00043599 0.02097411 0.00749678    0.0465926 ----
   191   0   0   F    F  2.61D-01 0.00128100 0.00043599 0.00546788 0.00195439    0.0465831 ----
   192   0   0   F    T  2.62D+00 0.00131747 0.00050152 0.02640746 0.00945117    0.0465827 ----
   193   0   0   F    F -2.56D-01 0.00131747 0.00050152 0.00675253 0.00241672    0.0465761 ----
   194   0   0   F    T  1.18D+00 0.00175150 0.00065137 0.01887892 0.00703445    0.0465752 ----
   195   0   0   F    F  1.14D+00 0.00175150 0.00065137 0.02155726 0.00803243    0.0465640 ----
   196   0   0   F    T  2.67D+00 0.00139095 0.00061468 0.04012070 0.01506688    0.0465599 ----
   197   0   0   F    F -1.68D-01 0.00139095 0.00061468 0.00673401 0.00252888    0.0465476 ----
   198   0   0   F    T  2.65D+00 0.00151654 0.00053926 0.03239664 0.01253800    0.0465471 ----
   199   0   0   F    F  2.63D-01 0.00151654 0.00053926 0.00853539 0.00330333    0.0465328 ----
   200   0   0   F    T  2.31D+00 0.00145413 0.00067007 0.04065448 0.01584133    0.0465321 ----
   201   0   0   F    F  1.57D-02 0.00145413 0.00067007 0.00063738 0.00024836    0.0465162 ---+
   202   0   0   F    T  3.83D+00 0.00118054 0.00057073 0.03970420 0.01608968    0.0465162 ----
   203   0   0   T    F  3.65D-01 0.00118054 0.00057073 0.01450082 0.00587629    0.0465296 ----
   204   0   0   F    T  1.69D+00 0.00124641 0.00051224 0.01504616 0.00587629    0.0465094 ----
   205   0   0   F    F  3.56D-01 0.00124641 0.00051224 0.00534893 0.00208903    0.0465009 ----
   206   0   0   F    T  1.85D+00 0.00134200 0.00056677 0.02077303 0.00796532    0.0465003 ----
   207   0   0   F    F  3.85D-01 0.00134200 0.00056677 0.00799131 0.00306423    0.0464890 ----
   208   0   0   F    T  3.16D+00 0.00145694 0.00051126 0.03018281 0.01102955    0.0464881 ----
   209   0   0   F    F -3.81D-01 0.00145694 0.00051126 0.01149889 0.00420198    0.0464834 ----
   210   0   0   F    T  5.55D+00 0.00066894 0.00030163 0.02025804 0.00682757    0.0464803 ----
   211   0   0   T    F  3.20D-01 0.00066894 0.00030163 0.00647625 0.00218269    0.0464888 ----
   212   0   0   F    T  1.36D+00 0.00089502 0.00034053 0.00674967 0.00218269    0.0464779 ----
   213   0   0   F    F  5.43D-01 0.00089502 0.00034053 0.00366507 0.00118520    0.0464747 ----
   214   0   0   F    T  2.36D+00 0.00092920 0.00031470 0.01092738 0.00336789    0.0464743 ----
   215   0   0   F    F -4.67D-02 0.00092920 0.00031470 0.00051005 0.00015720    0.0464710 ---+
   216   0   0   F    T  1.91D+00 0.00089339 0.00033370 0.01096899 0.00321069    0.0464710 ----
   217   0   0   F    F  8.65D-01 0.00089339 0.00033370 0.00948802 0.00277720    0.0464662 ----
   218   0   0   F    T  3.04D+00 0.00110482 0.00035681 0.02020944 0.00598790    0.0464649 ----
   219   0   0   F    F -2.64D-01 0.00110482 0.00035681 0.00534054 0.00158236    0.0464612 ----
   220   0   0   F    T  2.12D+00 0.00092790 0.00036876 0.01447834 0.00440554    0.0464607 ----
   221   0   0   F    F -3.90D-01 0.00092790 0.00036876 0.00565049 0.00171936    0.0464591 ----
   222   0   0   F    T  2.50D+00 0.00074794 0.00025659 0.00845129 0.00268618    0.0464580 ----
   223   0   0   F    F -1.23D-01 0.00074794 0.00025659 0.00103745 0.00032974    0.0464559 ----
   224   0   0   F    T  2.15D+00 0.00066758 0.00025483 0.00698850 0.00235644    0.0464559 ----
   225   0   0   F    F  2.15D-01 0.00066758 0.00025483 0.00150099 0.00050611    0.0464534 ----
   226   0   0   F    T  3.63D+00 0.00069568 0.00021317 0.00742424 0.00286255    0.0464533 ----
   227   0   0   F    F -4.97D-01 0.00069568 0.00021317 0.00368722 0.00142168    0.0464533 ----
   228   0   0   F    T  1.77D+00 0.00044553 0.00021257 0.00406160 0.00144088    0.0464521 ----
   229   0   0   F    F  1.76D-01 0.00044553 0.00021257 0.00071408 0.00025332    0.0464507 ---+
   230   0   0   F    T  1.72D+00 0.00059920 0.00023064 0.00458921 0.00169420    0.0464506 ----
   231   0   0   F    F  6.64D-02 0.00059920 0.00023064 0.00030466 0.00011247    0.0464492 --++
   232   0   0   F    T  3.57D+00 0.00038614 0.00016234 0.00504294 0.00180667    0.0464492 ----
   233   0   0   F    F -3.32D-01 0.00038614 0.00016234 0.00167327 0.00059946    0.0464485 ----
   234   0   0   F    T  1.60D+00 0.00035651 0.00019446 0.00315442 0.00120721    0.0464482 ----
   235   0   0   F    F  2.62D+00 0.00035651 0.00019446 0.00825833 0.00316049    0.0464467 ----
   236   0   0   F    T  1.86D+00 0.00081191 0.00034209 0.01165713 0.00436770    0.0464449 ----
   237   0   0   F    F -4.06D-01 0.00081191 0.00034209 0.00472707 0.00177114    0.0464439 ----
   238   0   0   F    T  3.36D+00 0.00049819 0.00020162 0.00663299 0.00259656    0.0464430 ----
   239   0   0   F    F -4.00D-01 0.00049819 0.00020162 0.00265203 0.00103817    0.0464423 ----
   240   0   0   F    T  2.43D+00 0.00063450 0.00017782 0.00413241 0.00155839    0.0464418 ----
   241   0   0   F    F  1.85D-01 0.00063450 0.00017782 0.00076496 0.00028848    0.0464404 ---+
   242   0   0   F    T  2.31D+00 0.00039493 0.00019394 0.00504039 0.00184687    0.0464404 ----
   243   0   0   F    F -1.26D-01 0.00039493 0.00019394 0.00063525 0.00023277    0.0464393 ---+
   244   0   0   F    T  2.85D+00 0.00037415 0.00016018 0.00446606 0.00161410    0.0464393 ----
   245   0   0   T    F  4.48D-01 0.00037415 0.00016018 0.00200191 0.00072352    0.0464395 ----
   246   0   0   F    T  1.97D+00 0.00025320 0.00012512 0.00203088 0.00072352    0.0464388 ----
   247   0   0   F    F  2.56D-01 0.00025320 0.00012512 0.00051914 0.00018495    0.0464382 ---+
   248   0   0   F    T  2.09D+00 0.00035100 0.00013270 0.00263537 0.00090847    0.0464382 ----
   249   0   0   F    F  1.38D-01 0.00035100 0.00013270 0.00036257 0.00012499    0.0464376 --++
   250   0   0   F    T  2.85D+00 0.00023503 0.00011811 0.00309394 0.00103345    0.0464375 ----
   251   0   0   F    T  1.72D+00 0.00034401 0.00015161 0.00312432 0.00103345    0.0464369 ----
   252   0   0   F    F  3.19D-01 0.00034401 0.00015161 0.00099698 0.00032978    0.0464361 ----
   253   0   0   F    T  1.47D+00 0.00037576 0.00017748 0.00416652 0.00136323    0.0464361 ----
   254   0   0   F    F  1.89D-01 0.00037576 0.00017748 0.00078815 0.00025787    0.0464353 ---+
   255   0   0   F    T  2.45D+00 0.00034056 0.00015598 0.00498258 0.00162110    0.0464353 ----
   256   0   0   F    F  5.91D-01 0.00034056 0.00015598 0.00294390 0.00095781    0.0464340 ----
   257   0   0   F    T  1.98D+00 0.00056965 0.00021757 0.00782354 0.00257891    0.0464339 ----
   258   0   0   F    F  2.29D-01 0.00056965 0.00021757 0.00178974 0.00058996    0.0464322 ----
   259   0   0   F    T  3.27D+00 0.00039441 0.00018518 0.00940139 0.00316887    0.0464321 ----
   260   0   0   F    F -4.10D-01 0.00039441 0.00018518 0.00385267 0.00129860    0.0464316 ----
   261   0   0   F    T  2.73D+00 0.00043555 0.00015730 0.00547434 0.00187027    0.0464311 ----
   262   0   0   T    F  4.38D-01 0.00043555 0.00015730 0.00239730 0.00081902    0.0464314 ----
   263   0   0   F    T  1.60D+00 0.00035340 0.00013444 0.00247559 0.00081902    0.0464307 ----
   264   0   0   F    F  1.83D+00 0.00035340 0.00013444 0.00453315 0.00149975    0.0464300 ----
   265   0   0   F    T  3.24D+00 0.00033734 0.00015699 0.00731472 0.00231877    0.0464295 ----
   266   0   0   T    F  4.92D-01 0.00033734 0.00015699 0.00359534 0.00113972    0.0464295 ----
   267   0   0   F    T  4.57D+00 0.00020975 0.00009160 0.00353257 0.00113972    0.0464289 ----
   268   0   0   F    F -1.46D-01 0.00020975 0.00009160 0.00051628 0.00016657    0.0464284 ---+
   269   0   0   F    T  2.17D+00 0.00026400 0.00012099 0.00273615 0.00097315    0.0464284 ----
   270   0   0   F    F  3.42D-01 0.00026400 0.00012099 0.00093505 0.00033256    0.0464278 ----
   271   0   0   F    T  3.54D+00 0.00025821 0.00010760 0.00351634 0.00130572    0.0464277 ----
   272   0   0   T    F  4.12D-01 0.00025821 0.00010760 0.00144998 0.00053842    0.0464280 ----
   273   0   0   F    T  3.01D+00 0.00021938 0.00007145 0.00147638 0.00053842    0.0464275 -+--
   274   0   0   T    F  4.63D-01 0.00021938 0.00007145 0.00068417 0.00024951    0.0464275 -+-+
   275   0   0   F    T  1.40D+00 0.00018836 0.00006864 0.00074618 0.00024951    0.0464274 -+-+
   276   0   0   F    F  1.22D+00 0.00018836 0.00006864 0.00090777 0.00030354    0.0464272 -+--
   277   0   0   F    T  2.47D+00 0.00019354 0.00007444 0.00184453 0.00055305    0.0464272 -+--
   278   0   0   F    F -1.64D-01 0.00019354 0.00007444 0.00030221 0.00009061    0.0464270 -+++
   279   0   0   F    T  7.64D+00 0.00009444 0.00003498 0.00161298 0.00046244    0.0464270 ++--
   280   0   0   T    F  3.91D-01 0.00009444 0.00003498 0.00063051 0.00018077    0.0464271 ++-+
   281   0   0   F    T  1.70D+00 0.00011456 0.00004423 0.00063039 0.00018077    0.0464269 -+-+
   282   0   0   F    F  1.10D+00 0.00011456 0.00004423 0.00069437 0.00019911    0.0464268 -+-+
   283   0   0   F    T  3.40D+00 0.00011079 0.00004350 0.00132898 0.00037988    0.0464268 ++--
   284   0   0   F    T  2.63D+00 0.00014261 0.00004640 0.00119286 0.00037988    0.0464267 -+--
   285   0   0   F    F -3.84D-01 0.00014261 0.00004640 0.00045748 0.00014569    0.0464267 -+-+
   286   0   0   F    T  3.92D+00 0.00007854 0.00003348 0.00055133 0.00023419    0.0464267 ++-+
   287   0   0   T    T  1.00D+00 0.00024953 0.00009254 0.00024953 0.00009254    0.0464267 --++
   288   0   0   T    F  5.00D-01 0.00024953 0.00009254 0.00012477 0.00004627    0.0464270 --++
   289   0   0   T    F  5.00D-01 0.00024953 0.00009254 0.00006238 0.00002313    0.0464268 --++
   290   0   0   T    F  5.00D-01 0.00024953 0.00009254 0.00003119 0.00001157    0.0464267 --++
   291   0   0   T    F  5.00D-01 0.00024953 0.00009254 0.00001560 0.00000578    0.0464267 --++
   292   0   0   T    F  5.00D-01 0.00024953 0.00009254 0.00000780 0.00000289    0.0464267 --++
   293   0   0   T    F  5.00D-01 0.00024953 0.00009254 0.00000390 0.00000145    0.0464267 --++
   294   0   0   T    F  5.00D-01 0.00024953 0.00009254 0.00000195 0.00000072    0.0464267 --++
   295   0   0   T    F  5.00D-01 0.00024953 0.00009254 0.00000097 0.00000036    0.0464267 --++
   296   0   0   T    T  1.00D+00 0.00007994 0.00003384 0.00006589 0.00002554    0.0464267 ++++
   297   0   0   F    T  1.00D+00 0.00007853 0.00002976 0.00007841 0.00002968    0.0464267 ====
 ****************************
 MOLECULAR MECHANICS FUNCTION
 ****************************
 Atomic parameters:
 Center  VDW
      1 1.9080 0.0860000
      2 1.7210 0.2104000
      3 1.9080 0.1094000
      4 1.4870 0.0157000
      5 1.4870 0.0157000
      6 1.8750 0.1700000
      7 0.6000 0.0157000
      8 0.6000 0.0157000
      9 1.6612 0.2100000
     10 0.0000 0.0000000
 Molecular mechanics terms:
 NBDir 3 1      0      0
 HrmStr1  1- 2  431.53 1.3510
 HrmStr1  1- 3  294.15 1.5090
 HrmStr1  1- 9  946.08 1.2030
 HrmStr1  2-10  566.76 0.9680
 HrmStr1  3- 4  358.05 1.0960
 HrmStr1  3- 5  358.05 1.0960
 HrmStr1  3- 6  380.82 1.4520
 HrmStr1  6- 7  506.01 1.0110
 HrmStr1  6- 8  506.01 1.0110
 HrmBnd1  1- 2-10  56.55 107.23
 HrmBnd1  1- 3- 4  46.41 106.89
 HrmBnd1  1- 3- 5  46.41 106.89
 HrmBnd1  1- 3- 6  59.93 110.61
 HrmBnd1  2- 1- 3  67.92 111.72
 HrmBnd1  2- 1- 9  91.40 123.02
 HrmBnd1  3- 1- 9  62.83 125.24
 HrmBnd1  3- 6- 7  52.60 110.71
 HrmBnd1  3- 6- 8  52.60 110.71
 HrmBnd1  4- 3- 5  44.68 106.22
 HrmBnd1  4- 3- 6  52.45 112.94
 HrmBnd1  5- 3- 6  52.45 112.94
 HrmBnd1  7- 6- 8  47.09 108.63
 AmbTrs  3- 1- 2-10   0 180   0   0  0.0000 14.5000  0.0000  0.0000  2.0
 AmbTrs  9- 1- 2-10   0   0   0   0  0.0000 14.5000  0.0000  0.0000  2.0
 AmbTrs  2- 1- 3- 4   0   0   0   0  0.0000 14.5000  0.0000  0.0000  6.0
 AmbTrs  2- 1- 3- 5   0   0   0   0  0.0000 14.5000  0.0000  0.0000  6.0
 AmbTrs  2- 1- 3- 6   0   0   0   0  0.0000 14.5000  0.0000  0.0000  6.0
 AmbTrs  9- 1- 3- 4   0   0   0   0  0.0000 14.5000  0.0000  0.0000  6.0
 AmbTrs  9- 1- 3- 5   0   0   0   0  0.0000 14.5000  0.0000  0.0000  6.0
 AmbTrs  9- 1- 3- 6   0   0   0   0  0.0000 14.5000  0.0000  0.0000  6.0
 AmbTrs  1- 3- 6- 7   0 180   0   0  0.0000 25.6300  0.0000  0.0000  6.0
 AmbTrs  1- 3- 6- 8   0 180   0   0  0.0000 25.6300  0.0000  0.0000  6.0
 AmbTrs  4- 3- 6- 7   0   0   0   0  0.0000 16.9300  0.0000  0.0000  6.0
 AmbTrs  4- 3- 6- 8   0   0   0   0  0.0000 16.9300  0.0000  0.0000  6.0
 AmbTrs  5- 3- 6- 7   0   0   0   0  0.0000 16.9300  0.0000  0.0000  6.0
 AmbTrs  5- 3- 6- 8   0   0   0   0  0.0000 16.9300  0.0000  0.0000  6.0
 NBPair  2- 1 3 1      0      0 -1.000 -1.000
 NBPair  3- 2 3 1      0      0 -1.000 -1.000
 NBPair 10- 3 3 1      0      0 -0.500 -0.167
 NBPair  9- 2 3 1      0      0 -1.000 -1.000
 NBPair 10- 9 3 1      0      0 -0.500 -0.167
 NBPair  3- 1 3 1      0      0 -1.000 -1.000
 NBPair  4- 2 3 1      0      0 -0.500 -0.167
 NBPair  5- 2 3 1      0      0 -0.500 -0.167
 NBPair  6- 2 3 1      0      0 -0.500 -0.167
 NBPair  9- 3 3 1      0      0 -1.000 -1.000
 NBPair  9- 4 3 1      0      0 -0.500 -0.167
 NBPair  9- 5 3 1      0      0 -0.500 -0.167
 NBPair  9- 6 3 1      0      0 -0.500 -0.167
 NBPair  9- 1 3 1      0      0 -1.000 -1.000
 NBPair 10- 1 3 1      0      0 -1.000 -1.000
 NBPair 10- 2 3 1      0      0 -1.000 -1.000
 NBPair  4- 1 3 1      0      0 -1.000 -1.000
 NBPair  5- 1 3 1      0      0 -1.000 -1.000
 NBPair  6- 1 3 1      0      0 -1.000 -1.000
 NBPair  4- 3 3 1      0      0 -1.000 -1.000
 NBPair  5- 4 3 1      0      0 -1.000 -1.000
 NBPair  6- 4 3 1      0      0 -1.000 -1.000
 NBPair  5- 3 3 1      0      0 -1.000 -1.000
 NBPair  6- 5 3 1      0      0 -1.000 -1.000
 NBPair  6- 3 3 1      0      0 -1.000 -1.000
 NBPair  7- 1 3 1      0      0 -0.500 -0.167
 NBPair  8- 1 3 1      0      0 -0.500 -0.167
 NBPair  7- 4 3 1      0      0 -0.500 -0.167
 NBPair  8- 4 3 1      0      0 -0.500 -0.167
 NBPair  7- 5 3 1      0      0 -0.500 -0.167
 NBPair  8- 5 3 1      0      0 -0.500 -0.167
 NBPair  7- 3 3 1      0      0 -1.000 -1.000
 NBPair  8- 3 3 1      0      0 -1.000 -1.000
 NBPair  7- 6 3 1      0      0 -1.000 -1.000
 NBPair  8- 7 3 1      0      0 -1.000 -1.000
 NBPair  8- 6 3 1      0      0 -1.000 -1.000
 Energy per function type:
 Direct Coulomb + vdW (small)                           0.003888459
 Direct Coulomb (large)                                -0.131921769
 Direct vdW (large)                                   268.329946665
 Non-direct Coulomb + vdW (small)                      -0.012116852
 Non-direct Coulomb (large)                             0.138208234
 Non-direct vdW (large)                              -268.329946665
 Harmonic stretch I                                     0.000128315
 Harmonic bend I                                        0.010176005
 Amber torsion                                          0.038064280
 Energy per function class:
        Coulomb              -0.003776967
    Vanderwaals               0.001835039
     Stretching               0.000128315
        Bending               0.010176005
        Torsion               0.038064280
 Energy=    4.642667205E-02 NIter=   0.
 Dipole moment=       0.540194       0.301052       0.233331
 Leave Link  402 at Sun Nov 26 11:20:25 2023, MaxMem=   134217728 cpu:               0.5 elap:               0.5
 (Enter /home/emanuele/chem_software/gaussian//gdv/l716.exe)
 Dipole        = 5.40193708D-01 3.01051828D-01 2.33331218D-01
 -------------------------------------------------------------------
 Center     Atomic                   Forces (Hartrees/Bohr)
 Number     Number              X              Y              Z
 -------------------------------------------------------------------
      1        6          -0.000042132   -0.000046938   -0.000057055
      2        8          -0.000012404   -0.000013748   -0.000010995
      3        6          -0.000007302    0.000040966    0.000031107
      4        1          -0.000014353   -0.000012310   -0.000000204
      5        1          -0.000038086   -0.000022008    0.000018660
      6        7          -0.000003007    0.000013114    0.000030125
      7        1           0.000036248   -0.000002834   -0.000011692
      8        1           0.000033778   -0.000019370    0.000000952
      9        8           0.000050767    0.000078530    0.000014845
     10        1          -0.000003509   -0.000015404   -0.000015744
 -------------------------------------------------------------------
 Cartesian Forces:  Max     0.000078530 RMS     0.000029757
 Z-matrix is all fixed cartesians, so copy forces.
 Leave Link  716 at Sun Nov 26 11:20:25 2023, MaxMem=   134217728 cpu:               0.0 elap:               0.0
 (Enter /home/emanuele/chem_software/gaussian//gdv/l103.exe)

 GradGradGradGradGradGradGradGradGradGradGradGradGradGradGradGradGradGrad
 Berny optimization.
 Search for a local minimum.
 Step number   1 out of a maximum of    2
 All quantities printed in internal units (Hartrees-Bohrs-Radians)
 RMS Force = .29757D-04 SwitMx=.10000D-02 MixMth= 2
 Mixed Optimization -- En-DIIS/RFO-DIIS
 Second derivative matrix not updated -- unit matrix used.
 ITU=  0
 RFO step:  Lambda=-2.65635111D-08 EMin= 1.00000000D+00
 Linear search not attempted -- first point.
 Variable       Old X    -DE/DX   Delta X   Delta X   Delta X     New X
                                 (Linear)    (Quad)   (Total)
    X1       -1.25918  -0.00004   0.00000  -0.00004  -0.00004  -1.25922
    Y1       -0.67304  -0.00005   0.00000  -0.00005  -0.00005  -0.67309
    Z1        0.00771  -0.00006   0.00000  -0.00006  -0.00006   0.00766
    X2       -1.89199  -0.00001   0.00000  -0.00001  -0.00001  -1.89201
    Y2        1.79710  -0.00001   0.00000  -0.00001  -0.00001   1.79709
    Z2       -0.10123  -0.00001   0.00000  -0.00001  -0.00001  -0.10124
    X3        1.50364  -0.00001   0.00000  -0.00001  -0.00001   1.50363
    Y3       -0.94440   0.00004   0.00000   0.00004   0.00004  -0.94436
    Z3       -0.75134   0.00003   0.00000   0.00003   0.00003  -0.75131
    X4        1.61031  -0.00001   0.00000  -0.00001  -0.00001   1.61030
    Y4       -2.88018  -0.00001   0.00000  -0.00001  -0.00001  -2.88019
    Z4       -1.48654  -0.00000   0.00000  -0.00000  -0.00000  -1.48654
    X5        1.76561  -0.00004   0.00000  -0.00004  -0.00004   1.76557
    Y5        0.35533  -0.00002   0.00000  -0.00002  -0.00002   0.35531
    Z5       -2.34625   0.00002   0.00000   0.00002   0.00002  -2.34623
    X6        3.13496  -0.00000   0.00000  -0.00000  -0.00000   3.13495
    Y6       -0.54401   0.00001   0.00000   0.00001   0.00001  -0.54400
    Z6        1.43586   0.00003   0.00000   0.00003   0.00003   1.43589
    X7        5.03547   0.00004   0.00000   0.00004   0.00004   5.03551
    Y7       -0.55066  -0.00000   0.00000  -0.00000  -0.00000  -0.55066
    Z7        1.23205  -0.00001   0.00000  -0.00001  -0.00001   1.23204
    X8        2.38339   0.00003   0.00000   0.00003   0.00003   2.38343
    Y8        0.01998  -0.00002   0.00000  -0.00002  -0.00002   0.01996
    Z8        3.10055   0.00000   0.00000   0.00000   0.00000   3.10055
    X9       -2.75428   0.00005   0.00000   0.00005   0.00005  -2.75423
    Y9       -2.21511   0.00008   0.00000   0.00008   0.00008  -2.21504
    Z9       -0.73441   0.00001   0.00000   0.00001   0.00001  -0.73440
   X10       -3.32580  -0.00000   0.00000  -0.00000  -0.00000  -3.32581
   Y10        1.99994  -0.00002   0.00000  -0.00002  -0.00002   1.99993
   Z10        1.01354  -0.00002   0.00000  -0.00002  -0.00002   1.01353
         Item               Value     Threshold  Converged?
 Maximum Force            0.000079     0.000450     YES
 RMS     Force            0.000030     0.000300     YES
 Maximum Displacement     0.000079     0.001800     YES
 RMS     Displacement     0.000030     0.001200     YES
 Predicted change in Energy=-1.328175D-08
 Optimization completed.
    -- Stationary point found.
 Largest change from initial coordinates is atom    7       0.222 Angstoms.
 GradGradGradGradGradGradGradGradGradGradGradGradGradGradGradGradGradGrad

 Leave Link  103 at Sun Nov 26 11:20:25 2023, MaxMem=   134217728 cpu:               0.0 elap:               0.0
 (Enter /home/emanuele/chem_software/gaussian//gdv/l202.exe)
                          Input orientation:                          
 ---------------------------------------------------------------------
 Center     Atomic      Atomic             Coordinates (Angstroms)
 Number     Number       Type             X           Y           Z
 ---------------------------------------------------------------------
      1          6    20001002       -0.666328   -0.356158    0.004082
      2          8    20001022       -1.001200    0.950987   -0.053567
      3          6    20001001        0.795693   -0.499757   -0.397593
      4          1    20001034        0.852139   -1.524125   -0.786642
      5          1    20001034        0.934319    0.188035   -1.241580
      6          7    20001020        1.658947   -0.287878    0.759824
      7          1    20001029        2.664658   -0.291397    0.651972
      8          1    20001029        1.261237    0.010571    1.640742
      9          8    20001025       -1.457501   -1.172188   -0.388635
     10          1    20001031       -1.759940    1.058325    0.536345
 ---------------------------------------------------------------------
                    Distance matrix (angstroms):
                    1          2          3          4          5
     1  C    0.000000
     2  O    1.350589   0.000000
     3  C    1.522980   2.334916   0.000000
     4  H    2.072471   3.177805   1.097212   0.000000
     5  H    2.099975   2.395768   1.097538   1.773475   0.000000
     6  N    2.445958   3.045123   1.459354   2.137943   2.181100
     7  H    3.394028   3.934440   2.153609   2.621918   2.609496
     8  H    2.555123   2.978873   2.152202   2.900835   2.906226
     9  O    1.202533   2.197352   2.351409   2.369959   2.880716
    10  H    1.865490   0.967059   3.135461   3.904138   3.343270
                    6          7          8          9         10
     6  N    0.000000
     7  H    1.011484   0.000000
     8  H    1.011564   1.743113   0.000000
     9  O    3.437034   4.341756   3.592885   0.000000
    10  H    3.681167   4.627331   3.383045   2.433566   0.000000
 Symmetry turned off by external request.
 Stoichiometry    C2H5NO2
 Framework group  C1[X(C2H5NO2)]
 Deg. of freedom    24
 Full point group                 C1      NOp   1
 Rotational constants (GHZ):           9.4986031           3.8961585           3.1091703
 Leave Link  202 at Sun Nov 26 11:20:25 2023, MaxMem=   134217728 cpu:               0.0 elap:               0.0
 (Enter /home/emanuele/chem_software/gaussian//gdv/l9999.exe)
 Unable to Open any file for archive entry.
 1\1\GINC-EMANUELE-XPS-13-9343\FOpt\AMBER\ZDO\C2H5N1O2\EMANUELE\26-Nov-
 2023\0\\#p Amber=(SoftFirst,Print) geom=nocrowd nosymm opt=(maxcycle=3
 00)\\Title\\0,1\C,-0.6663282961,-0.3561584992,0.0040823048\O,-1.001199
 7282,0.9509868677,-0.0535665258\C,0.7956926648,-0.4997572605,-0.397592
 5322\H,0.8521393303,-1.524124627,-0.7866421681\H,0.9343194697,0.188035
 0023,-1.2415796812\N,1.6589469604,-0.2878784822,0.7598239905\H,2.66465
 82766,-0.2913971986,0.6519724967\H,1.2612369098,0.010570977,1.64074206
 06\O,-1.4575005313,-1.1721883565,-0.3886345932\H,-1.759940056,1.058324
 5768,0.5363446479\\Version=ES64L-GDVRevJ.14\HF=0.0464267\RMSD=0.000e+0
 0\RMSF=2.976e-05\Dipole=0.5401937,0.3010518,0.2333312\PG=C01 [X(C2H5N1
 O2)]\\@
 The archive entry for this job was punched.


 TO SEE A WORLD IN A GRAIN OF SAND
 AND A HEAVEN IN A WILD FLOWER
 HOLD INFINITY IN THE PALM OF YOUR HAND
 AND ETERNITY IN AN HOUR

                       -- WILLIAM BLAKE
 Job cpu time:       0 days  0 hours  0 minutes  1.0 seconds.
 Elapsed time:       0 days  0 hours  0 minutes  0.9 seconds.
 File lengths (MBytes):  RWF=      6 Int=      0 D2E=      0 Chk=      1 Scr=      1
 Normal termination of Gaussian DV at Sun Nov 26 11:20:25 2023.
