 Entering Gaussian System, Link 0=/home/emanuele/chem_software/gaussian//g09/g09
 Input=2_zmat_mm_100.gjf
 Output=2_zmat_mm_100.log
 Initial command:
 /home/emanuele/chem_software/gaussian//gdv/l1.exe "/home/emanuele/chem_software/gaussian/scratch/Gau-6310.inp" -scrdir="/home/emanuele/chem_software/gaussian/scratch/"
 Entering Link 1 = /home/emanuele/chem_software/gaussian//gdv/l1.exe PID=      6312.
  
 Copyright (c) 1988-2020, Gaussian, Inc.  All Rights Reserved.
  
 This is the private, development version of
 the Gaussian(R) DV system of programs. It is based on
 the Gaussian(R) 16 system (copyright 2016, Gaussian, Inc.),
 the Gaussian(R) 09 system (copyright 2009, Gaussian, Inc.),
 the Gaussian(R) 03 system (copyright 2003, Gaussian, Inc.),
 the Gaussian(R) 98 system (copyright 1998, Gaussian, Inc.),
 the Gaussian(R) 94 system (copyright 1995, Gaussian, Inc.),
 the Gaussian 92(TM) system (copyright 1992, Gaussian, Inc.),
 the Gaussian 90(TM) system (copyright 1990, Gaussian, Inc.),
 the Gaussian 88(TM) system (copyright 1988, Gaussian, Inc.),
 the Gaussian 86(TM) system (copyright 1986, Carnegie Mellon
 University), and the Gaussian 82(TM) system (copyright 1983,
 Carnegie Mellon University). Gaussian is a federally registered
 trademark of Gaussian, Inc.
  
 This software contains proprietary and confidential information,
 including trade secrets, belonging to Gaussian, Inc.
  
 This software is provided under written license and may be
 used, copied, transmitted, or stored only in accord with that
 written license.
  
 The following legend is applicable only to US Government
 contracts under FAR:
  
                    RESTRICTED RIGHTS LEGEND
  
 Use, reproduction and disclosure by the US Government is
 subject to restrictions as set forth in subparagraphs (a)
 and (c) of the Commercial Computer Software - Restricted
 Rights clause in FAR 52.227-19.
  
 Gaussian, Inc.
 340 Quinnipiac St., Bldg. 40, Wallingford CT 06492
  
  
 ---------------------------------------------------------------
 Warning -- This program may not be used in any manner that
 competes with the business of Gaussian, Inc. or will provide
 assistance to any competitor of Gaussian, Inc.  The licensee
 of this program is prohibited from giving any competitor of
 Gaussian, Inc. access to this program.  By using this program,
 the user acknowledges that Gaussian, Inc. is engaged in the
 business of creating and licensing software in the field of
 computational chemistry and represents and warrants to the
 licensee that it is not a competitor of Gaussian, Inc. and that
 it will not use this program in any manner prohibited above.
 ---------------------------------------------------------------
  

 Cite this work as:
 Gaussian Development Version, Revision J.14,
 M. J. Frisch, G. W. Trucks, H. B. Schlegel, G. E. Scuseria, 
 M. A. Robb, J. R. Cheeseman, G. Scalmani, V. Barone, 
 G. A. Petersson, H. Nakatsuji, X. Li, A. V. Marenich, M. Caricato, 
 J. Bloino, B. G. Janesko, J. Zheng, R. Gomperts, B. Mennucci, 
 H. P. Hratchian, J. V. Ortiz, A. F. Izmaylov, J. L. Sonnenberg, 
 D. Williams-Young, F. Ding, F. Lipparini, F. Egidi, J. Goings, 
 B. Peng, A. Petrone, T. Henderson, D. Ranasinghe, V. G. Zakrzewski, 
 J. Gao, N. Rega, G. Zheng, W. Liang, M. Hada, M. Ehara, K. Toyota, 
 R. Fukuda, J. Hasegawa, M. Ishida, T. Nakajima, Y. Honda, O. Kitao, 
 H. Nakai, T. Vreven, K. Throssell, J. A. Montgomery, Jr., 
 J. E. Peralta, F. Ogliaro, M. J. Bearpark, J. J. Heyd, 
 E. N. Brothers, K. N. Kudin, V. N. Staroverov, T. A. Keith, 
 R. Kobayashi, J. Normand, K. Raghavachari, A. P. Rendell, 
 J. C. Burant, S. S. Iyengar, J. Tomasi, M. Cossi, J. M. Millam, 
 M. Klene, C. Adamo, R. Cammi, J. W. Ochterski, R. L. Martin, 
 K. Morokuma, O. Farkas, J. B. Foresman, and D. J. Fox, 
 Gaussian, Inc., Wallingford CT, 2020.
 
 ******************************************
 Gaussian DV:  ES64L-GDVRevJ.14 29-Dec-2020
                26-Nov-2023 
 ******************************************
 %mem=1GB
 %nprocshared=1
 Will use up to    1 processors via shared memory.
 %chk=2_zmat_mm_100.chk
 -----------------------------------------------------------------
 #p Amber=(SoftFirst,Print) geom=nocrowd nosymm opt=(maxcycle=300)
 -----------------------------------------------------------------
 1/6=300,10=10,18=4000020,19=15,37=210000000,38=1,56=2,64=203/1,3;
 2/9=110,12=1,15=1,40=1/2;
 3/5=30,11=9,25=1,30=1,41=10030000,43=2,71=1/1;
 4/20=11,22=1001,24=3,119=11/2;
 7/30=1,44=-1/16;
 1/6=300,10=10,18=4000020,19=15,64=203/3(2);
 2/9=110,12=1,15=1/2;
 99//99;
 2/9=110,12=1,15=1/2;
 3/5=30,11=9,25=1,30=1,41=10030000,43=2,71=1/1;
 4/16=2,20=11,22=1001,24=3,119=11/2;
 7/30=1,44=-1/16;
 1/6=300,10=10,18=4000020,19=15,64=203/3(-4);
 2/9=110,12=1,15=1/2;
 99/9=10/99;
 Leave Link    1 at Sun Nov 26 11:20:28 2023, MaxMem=   134217728 cpu:               0.0 elap:               0.0
 (Enter /home/emanuele/chem_software/gaussian//gdv/l101.exe)
 -----
 Title
 -----
 Symbolic Z-matrix:
 Charge =  0 Multiplicity = 1
 C-C-+0.299289        -0.51787  -0.02019   0.16764 
 O-OH--0.289770       -1.26859   0.64854  -0.76742 
 C-CT--0.035454        0.84962  -0.34612  -0.40138 
 H-HC-+0.090426        0.74544  -1.18685  -1.13309 
 H-HC-+0.095387        1.22518   0.51786  -1.00498 
 N-N3--0.336253        1.85194  -0.70868   0.61625 
 H-H-+0.142619         2.01175   0.06059   1.26221 
 H-H-+0.128282         1.53832  -1.50499   1.16852 
 O-O2--0.308037       -0.97188  -0.25937   1.26054 
 H-HO-+0.213510       -2.18189   0.87564  -0.44334 
 
 ITRead=  3  3  3  3  3  3  3  3  3  3
 MicOpt=  0  0  0  0  0  0  0  0  0  0
 NAtoms=     10 NQM=        0 NQMF=       0 NMMI=      0 NMMIF=      0
                NMic=      10 NMicF=      0.
                    Isotopes and Nuclear Properties:
 (Nuclear quadrupole moments (NQMom) in fm**2, nuclear magnetic moments (NMagM)
  in nuclear magnetons)

  Atom         1           2           3           4           5           6           7           8           9          10
 IAtWgt=          12          16          12           1           1          14           1           1          16           1
 AtmWgt=  12.0000000  15.9949146  12.0000000   1.0078250   1.0078250  14.0030740   1.0078250   1.0078250  15.9949146   1.0078250
 NucSpn=           0           0           0           1           1           2           1           1           0           1
 AtZEff=  -0.0000000  -0.0000000  -0.0000000  -0.0000000  -0.0000000  -0.0000000  -0.0000000  -0.0000000  -0.0000000  -0.0000000
 NQMom=    0.0000000   0.0000000   0.0000000   0.0000000   0.0000000   2.0440000   0.0000000   0.0000000   0.0000000   0.0000000
 NMagM=    0.0000000   0.0000000   0.0000000   2.7928460   2.7928460   0.4037610   2.7928460   2.7928460   0.0000000   2.7928460
 AtZNuc=   6.0000000   8.0000000   6.0000000   1.0000000   1.0000000   7.0000000   1.0000000   1.0000000   8.0000000   1.0000000
 Generating MM parameters.
 I=    1 IAn=  6 Valence= 5.
          JB=  1 J=    2 IAn=  8 IBT=12 Dist= 1.37D+00
          JB=  2 J=    3 IAn=  6 IBT= 1 Dist= 1.52D+00
          JB=  3 J=    9 IAn=  8 IBT= 2 Dist= 1.21D+00
 I=    2 IAn=  8 Valence= 3.
          JB=  1 J=    1 IAn=  6 IBT=12 Dist= 1.37D+00
          JB=  2 J=   10 IAn=  1 IBT= 1 Dist= 9.95D-01
 Read MM parameter file:
 Include all MM classes

 MM sanity checks:
 All charges sum to:               -0.00000100
 Charges of atoms sum to:          -0.00000100
 WARNING -- The following centers have non-zero partial charges, but zero Vanderwaals
 parameters.  These centers can collapse onto other centers with non-zero charge.
   Center  Layer   Charge
     10 H    R    0.213510
 MMInit generated parameter data with length LenPar=        2069.
 MM Charge=             -0.0000 electrons
 MM Dipole moment (Debye):
    X=              0.2969    Y=              0.3896    Z=             -1.3055  Tot=              1.3944
 MM Quadrupole moment (Debye-Ang):
   XX=              1.1277   YY=              1.4032   ZZ=             -0.6164
   XY=             -0.4390   XZ=              1.4557   YZ=              0.7696
 MM Traceless Quadrupole moment (Debye-Ang):
   XX=              0.4895   YY=              0.7650   ZZ=             -1.2546
   XY=             -0.4390   XZ=              1.4557   YZ=              0.7696
 MM Octapole moment (Debye-Ang**2):
  XXX=             -8.1722  YYY=             -1.8461  ZZZ=             -1.5203  XYY=              0.3624
  XXY=              5.1884  XXZ=             -1.2683  XZZ=              6.1772  YZZ=             -0.9242
  YYZ=              0.3008  XYZ=             -0.6098
 MM Hexadecapole moment (Debye-Ang**3):
 XXXX=             15.1715 YYYY=              3.9959 ZZZZ=             -0.3441 XXXY=             -3.3420
 XXXZ=              6.5510 YYYX=             -3.6692 YYYZ=             -1.3252 ZZZX=              4.8258
 ZZZY=              0.4753 XXYY=              3.7479 XXZZ=              2.7195 YYZZ=              2.1595
 XXYZ=             -0.3084 YYXZ=              1.2408 ZZXY=             -1.5044
 Leave Link  101 at Sun Nov 26 11:20:28 2023, MaxMem=   134217728 cpu:               0.2 elap:               0.3
 (Enter /home/emanuele/chem_software/gaussian//gdv/l103.exe)

 GradGradGradGradGradGradGradGradGradGradGradGradGradGradGradGradGradGrad
 Berny optimization.
 Initialization pass.
 No Z-matrix variables, so optimization will use Cartesian coordinates.
 Trust Radius=1.00D-01 FncErr=1.00D-07 GrdErr=1.00D-07 EigMax=2.50D+02 EigMin=1.00D-04
 Number of steps in this run=      2 maximum allowed number of steps=      2.
 GradGradGradGradGradGradGradGradGradGradGradGradGradGradGradGradGradGrad

 Leave Link  103 at Sun Nov 26 11:20:28 2023, MaxMem=   134217728 cpu:               0.0 elap:               0.0
 (Enter /home/emanuele/chem_software/gaussian//gdv/l202.exe)
                          Input orientation:                          
 ---------------------------------------------------------------------
 Center     Atomic      Atomic             Coordinates (Angstroms)
 Number     Number       Type             X           Y           Z
 ---------------------------------------------------------------------
      1          6    20001002       -0.517872   -0.020191    0.167639
      2          8    20001022       -1.268586    0.648535   -0.767419
      3          6    20001001        0.849618   -0.346124   -0.401376
      4          1    20001034        0.745439   -1.186854   -1.133095
      5          1    20001034        1.225182    0.517857   -1.004979
      6          7    20001020        1.851941   -0.708679    0.616254
      7          1    20001029        2.011747    0.060588    1.262208
      8          1    20001029        1.538324   -1.504985    1.168517
      9          8    20001025       -0.971883   -0.259372    1.260541
     10          1    20001031       -2.181885    0.875637   -0.443340
 ---------------------------------------------------------------------
                    Distance matrix (angstroms):
                    1          2          3          4          5
     1  C    0.000000
     2  O    1.372989   0.000000
     3  C    1.516588   2.368570   0.000000
     4  H    2.156146   2.749303   1.119416   0.000000
     5  H    2.168586   2.508464   1.118860   1.775558   0.000000
     6  N    2.508243   3.673455   1.473658   2.124434   2.127349
     7  H    2.757459   3.902006   2.069655   2.982805   2.442932
     8  H    2.726593   4.032895   2.069260   2.455054   2.985638
     9  O    1.207381   2.241640   2.467258   3.088513   3.250194
    10  H    1.986138   0.995348   3.268711   3.646760   3.471534
                    6          7          8          9         10
     6  N    0.000000
     7  H    1.017136   0.000000
     8  H    1.018555   1.638269   0.000000
     9  O    2.931035   3.000737   2.803776   0.000000
    10  H    4.461451   4.599973   4.701638   2.378142   0.000000
 Symmetry turned off by external request.
 Stoichiometry    C2H5NO2
 Framework group  C1[X(C2H5NO2)]
 Deg. of freedom    24
 Full point group                 C1      NOp   1
 Rotational constants (GHZ):          10.0170879           3.8127630           2.8769789
 Leave Link  202 at Sun Nov 26 11:20:28 2023, MaxMem=   134217728 cpu:               0.0 elap:               0.0
 (Enter /home/emanuele/chem_software/gaussian//gdv/l301.exe)
 Standard basis: Dummy (5D, 7F)
    10 basis functions,    10 primitive gaussians,    10 cartesian basis functions
     7 alpha electrons        7 beta electrons
       nuclear repulsion energy        22.5340151217 Hartrees.
 IExCor=       0 DFT=F Ex=HF Corr=None N6=None ScaHFX=  1.000000
 ScaDFX=  1.000000  1.000000  1.000000  1.000000  1.000000  0.000000
 ScaDFX=  0.000000  0.000000  0.000000  0.000000  0.000000  0.000000
 IRadAn=      5 IRanWt=     -1 IRanGd=            0 ICorTp=0 IEmpDi=  4
 NAtoms=   10 NActive=   10 NUniq=   10 SFac= 1.00D+00 NAtFMM=   60 NAOKFM=F Big=F
 Integral buffers will be    131072 words long.
 Raffenetti 1 integral format.
 Two-electron integral symmetry is turned off.
 Leave Link  301 at Sun Nov 26 11:20:28 2023, MaxMem=   134217728 cpu:               0.1 elap:               0.0
 (Enter /home/emanuele/chem_software/gaussian//gdv/l402.exe)
 AMBER calculation of energy and first derivatives.
 NRF= 0 NRA=   0 NVA=  10 HaveQM=F NVQ=       0
 Convergence limit is  0.750E-04 MaxStp= 10000 StMxLn= 3.00D-04 StpMin= 1.00D-06.
 Convergence criteria             0.00011250 0.00007500 0.00045000 0.00030000
  Step  NS  ND Rises OKQ   Scale  Max. Force  RMS Force Max. Disp.  RMS Disp.     Energy   Flag
     1   0   0   F    T  1.00D+00 0.02797010 0.01077705 0.02797010 0.01077705    0.0917202 ----
     2   0   0   F    F  4.90D-01 0.02797010 0.01077705 0.01369447 0.00527657    0.0894092 ----
     3   0   0   F    T  2.39D+00 0.01112434 0.00589722 0.03401816 0.01605362    0.0891301 ----
     4   0   0   F    F  1.17D-01 0.01112434 0.00589722 0.00399283 0.00188427    0.0877491 ----
     5   0   0   F    T  1.27D+00 0.02580107 0.00779484 0.03863791 0.01793789    0.0877336 ----
     6   0   0   F    F -1.65D-01 0.02580107 0.00779484 0.00637073 0.00295765    0.0868000 ----
     7   0   0   F    T  3.01D+00 0.00897429 0.00382260 0.02693007 0.01498024    0.0867618 ----
     8   0   0   F    F -2.93D-01 0.00897429 0.00382260 0.00788672 0.00438710    0.0863750 ----
     9   0   0   F    T  2.31D+00 0.01161014 0.00313261 0.02131527 0.01059314    0.0862947 ----
    10   0   0   F    F  4.30D-01 0.01161014 0.00313261 0.00916410 0.00455432    0.0858534 ----
    11   0   0   F    T  2.79D+00 0.00638158 0.00308104 0.03150667 0.01514745    0.0858097 ----
    12   0   0   F    F -2.55D-01 0.00638158 0.00308104 0.00804928 0.00386985    0.0855480 ----
    13   0   0   F    T  1.56D+00 0.01024915 0.00334420 0.02319335 0.01127760    0.0855129 ----
    14   0   0   F    F -1.41D-01 0.01024915 0.00334420 0.00326510 0.00158763    0.0852929 ----
    15   0   0   F    T  1.44D+00 0.00784983 0.00308124 0.02056723 0.00968997    0.0852868 ----
    16   0   0   F    F  2.31D+00 0.00784983 0.00308124 0.04743940 0.02235043    0.0849351 ----
    17   0   0   F    F -2.10D-02 0.00784983 0.00308124 0.00099615 0.00046932    0.0845953 ----
    18   0   0   F    T  2.58D+00 0.00984831 0.00423098 0.06311323 0.03157108    0.0845951 ----
    19   0   0   F    F  8.14D-01 0.00984831 0.00423098 0.05135515 0.02568934    0.0833886 ----
    20   0   0   F    T  1.40D+00 0.02335215 0.00864726 0.11955985 0.05726042    0.0829682 ----
    21   0   0   T    F  5.30D-01 0.02335215 0.00864726 0.06333869 0.03033459    0.0830620 ----
    22   0   0   F    T  2.53D+00 0.02546570 0.00843277 0.06855121 0.03033459    0.0820417 ----
    23   0   0   F    F -4.61D-02 0.02546570 0.00843277 0.00315741 0.00139719    0.0795459 ----
    24   0   0   F    T  2.81D+00 0.01846357 0.00677737 0.08213426 0.02893741    0.0795404 ----
    25   0   0   F    F -1.89D-01 0.01846357 0.00677737 0.01550761 0.00546362    0.0780162 ----
    26   0   0   F    T  2.42D+00 0.01699379 0.00583862 0.06392269 0.02347379    0.0779214 ----
    27   0   0   F    F -6.18D-02 0.01699379 0.00583862 0.00395167 0.00145114    0.0767480 ----
    28   0   0   F    T  1.49D+00 0.01986298 0.00706966 0.05586770 0.02202265    0.0767427 ----
    29   0   0   F    F -5.16D-02 0.01986298 0.00706966 0.00288510 0.00113729    0.0756989 ----
    30   0   0   F    T  2.28D+00 0.01190004 0.00508697 0.05418563 0.02088536    0.0756959 ----
    31   0   0   F    F  5.16D-02 0.01190004 0.00508697 0.00279790 0.00107843    0.0747628 ----
    32   0   0   F    T  4.03D+00 0.00798393 0.00333897 0.05955296 0.02196379    0.0747605 ----
    33   0   0   T    F  4.64D-01 0.00798393 0.00333897 0.02762608 0.01018881    0.0748702 ----
    34   0   0   F    T  1.46D+00 0.00824780 0.00352189 0.02528737 0.01018881    0.0744473 ----
    35   0   0   F    F  1.99D-01 0.00824780 0.00352189 0.00503088 0.00202705    0.0741302 ----
    36   0   0   F    T  2.34D+00 0.00577009 0.00282494 0.03225603 0.01221585    0.0741212 ----
    37   0   0   F    F -2.43D-01 0.00577009 0.00282494 0.00784623 0.00297149    0.0739315 ----
    38   0   0   F    T  2.73D+00 0.00479668 0.00203468 0.02314129 0.00924437    0.0739097 ----
    39   0   0   F    F  1.96D-01 0.00479668 0.00203468 0.00454529 0.00181573    0.0737124 ----
    40   0   0   F    T  1.34D+00 0.00898080 0.00306117 0.02935284 0.01106010    0.0737069 ----
    41   0   0   F    F  5.90D-01 0.00898080 0.00306117 0.01732479 0.00652795    0.0734492 ----
    42   0   0   F    T  1.84D+00 0.00825928 0.00318965 0.04627408 0.01758805    0.0734081 ----
    43   0   0   F    F -7.39D-02 0.00825928 0.00318965 0.00342013 0.00129994    0.0731494 ----
    44   0   0   F    T  3.65D+00 0.00468623 0.00205081 0.04331996 0.01628811    0.0731477 ----
    45   0   0   F    F -2.91D-01 0.00468623 0.00205081 0.01262072 0.00474533    0.0730122 ----
    46   0   0   F    T  1.98D+00 0.00598745 0.00224876 0.03522845 0.01154278    0.0729848 ----
    47   0   0   F    F -4.77D-02 0.00598745 0.00224876 0.00167941 0.00055027    0.0728424 ----
    48   0   0   F    T  1.66D+00 0.00600834 0.00231448 0.03620210 0.01099251    0.0728420 ----
    49   0   0   F    F  1.04D-01 0.00600834 0.00231448 0.00378054 0.00114794    0.0726966 ----
    50   0   0   F    T  2.65D+00 0.00367110 0.00183578 0.04278103 0.01214045    0.0726952 ----
    51   0   0   F    F -7.79D-02 0.00367110 0.00183578 0.00333212 0.00094559    0.0725716 ----
    52   0   0   F    T  2.68D+00 0.00381060 0.00168158 0.04438728 0.01119485    0.0725707 ----
    53   0   0   F    F -2.19D-01 0.00381060 0.00168158 0.00973448 0.00245512    0.0724895 ----
    54   0   0   F    T  1.69D+00 0.00392550 0.00181541 0.03515711 0.00873973    0.0724827 ----
    55   0   0   F    T  2.04D+00 0.00317673 0.00156256 0.03255428 0.00873973    0.0723998 ----
    56   0   0   F    F  3.70D-01 0.00317673 0.00156256 0.01203411 0.00323075    0.0723046 ----
    57   0   0   F    T  2.39D+00 0.00383250 0.00165469 0.04197517 0.01197049    0.0722971 ----
    58   0   0   F    F  2.85D-02 0.00383250 0.00165469 0.00119805 0.00034166    0.0721952 ----
    59   0   0   F    T  1.64D+00 0.00410732 0.00202316 0.04293805 0.01231215    0.0721952 ----
    60   0   0   F    F  7.05D-01 0.00410732 0.00202316 0.03024997 0.00867394    0.0720549 ----
    61   0   0   F    T  1.23D+00 0.00737817 0.00304815 0.07254278 0.02098609    0.0720269 ----
    62   0   0   F    F  3.95D+00 0.00737817 0.00304815 0.28685700 0.08298559    0.0717344 ----
    63   0   0   F    F -4.19D-01 0.00737817 0.00304815 0.12020454 0.03477428    0.0716584 ----
    64   0   0   F    F -1.47D-02 0.00737817 0.00304815 0.00176700 0.00051118    0.0714246 ----
    65   0   0   F    T  1.73D+00 0.00896378 0.00450118 0.24099145 0.06970858    0.0714245 ----
    66   0   0   F    F -2.91D-01 0.00896378 0.00450118 0.07007935 0.02027098    0.0710976 ----
    67   0   0   F    F -1.36D-02 0.00896378 0.00450118 0.00095602 0.00027654    0.0709901 ---+
    68   0   0   F    T  2.00D+00 0.00997406 0.00502169 0.17236891 0.04971414    0.0709901 ----
    69   0   0   F    F  1.62D+00 0.00997406 0.00502169 0.28002308 0.08076344    0.0697396 ----
    70   0   0   F    F -4.32D-01 0.00997406 0.00502169 0.12099762 0.03489778    0.0697018 ----
    71   0   0   F    F -3.35D-03 0.00997406 0.00502169 0.00040574 0.00011702    0.0692176 --++
    72   0   0   F    T  1.51D+00 0.02391644 0.00956426 0.32772210 0.09569682    0.0692176 ----
    73   0   0   F    F -3.28D-01 0.02391644 0.00956426 0.10760841 0.03142230    0.0681773 ----
    74   0   0   F    F -1.20D-02 0.02391644 0.00956426 0.00128768 0.00037601    0.0676168 ----
    75   0   0   F    T  2.06D+00 0.03806220 0.01064897 0.19604133 0.06465053    0.0676167 ----
    76   0   0   F    F  3.39D+00 0.03806220 0.01064897 0.66480189 0.21923844    0.0631228 ----
    77   0   0   T    F  2.86D-01 0.03806220 0.01064897 0.18983762 0.06260467    0.0818705 ----
    78   0   0   F    F -1.22D-01 0.03806220 0.01064897 0.02314174 0.00763169    0.0620594 ----
    79   0   0   F    F -6.07D-02 0.03806220 0.01064897 0.00140357 0.00046287    0.0620395 ----
    80   0   0   F    T  3.18D+00 0.02836473 0.01199168 0.34484887 0.12008638    0.0620394 ----
    81   0   0   T    F  4.64D-01 0.02836473 0.01199168 0.16009806 0.05575079    0.0649393 ----
    82   0   0   F    T  2.40D+00 0.03022561 0.01014274 0.16417559 0.05575079    0.0585931 ----
    83   0   0   F    F  8.45D-02 0.03022561 0.01014274 0.01387647 0.00471217    0.0546769 ----
    84   0   0   F    T  1.81D+00 0.02532038 0.01214001 0.19459041 0.06046297    0.0546543 ----
    85   0   0   F    F -2.18D-01 0.02532038 0.01214001 0.04241470 0.01317906    0.0518093 ----
    86   0   0   F    T  2.74D+00 0.01478392 0.00755448 0.15383129 0.04728391    0.0515799 ----
    87   0   0   F    F -4.49D-01 0.01478392 0.00755448 0.06910417 0.02124090    0.0511255 ----
    88   0   0   F    T  2.61D+00 0.00975068 0.00507518 0.08357410 0.02604301    0.0502975 ----
    89   0   0   F    F -1.30D-01 0.00975068 0.00507518 0.01086797 0.00338663    0.0494466 ----
    90   0   0   F    T  2.04D+00 0.01120922 0.00492128 0.06124333 0.02265638    0.0494276 ----
    91   0   0   F    F  1.96D-01 0.01120922 0.00492128 0.01199380 0.00443699    0.0485530 ----
    92   0   0   F    T  2.42D+00 0.00910497 0.00468688 0.06588600 0.02709337    0.0485283 ----
    93   0   0   F    F -4.41D-01 0.00910497 0.00468688 0.02905571 0.01194817    0.0483563 ----
    94   0   0   F    T  2.81D+00 0.00547231 0.00300930 0.03426221 0.01514520    0.0480846 ----
    95   0   0   F    F -4.77D-01 0.00547231 0.00300930 0.01633864 0.00722230    0.0480506 ----
    96   0   0   F    T  2.12D+00 0.00454776 0.00222479 0.01730442 0.00792290    0.0478853 ----
    97   0   0   F    T  1.82D+00 0.00488200 0.00223413 0.01803049 0.00792290    0.0477249 ----
    98   0   0   F    F  3.70D-01 0.00488200 0.00223413 0.00666830 0.00293016    0.0475487 ----
    99   0   0   F    T  2.52D+00 0.00513211 0.00205114 0.02726601 0.01085306    0.0475349 ----
   100   0   0   F    F -4.25D-01 0.00513211 0.00205114 0.01158378 0.00461085    0.0474931 ----
   101   0   0   F    T  2.01D+00 0.00319200 0.00160946 0.01416684 0.00624221    0.0474435 ----
   102   0   0   F    F -9.29D-02 0.00319200 0.00160946 0.00131654 0.00058010    0.0473732 ----
   103   0   0   F    T  2.15D+00 0.00353850 0.00136475 0.01156902 0.00566211    0.0473725 ----
   104   0   0   F    F -1.02D-01 0.00353850 0.00136475 0.00118267 0.00057882    0.0473191 ----
   105   0   0   F    T  2.31D+00 0.00285124 0.00115372 0.01093806 0.00508329    0.0473184 ----
   106   0   0   F    F -3.23D-01 0.00285124 0.00115372 0.00353420 0.00164246    0.0472943 ----
   107   0   0   F    T  3.20D+00 0.00162606 0.00070388 0.00697104 0.00344082    0.0472872 ----
   108   0   0   F    F -3.12D-01 0.00162606 0.00070388 0.00217767 0.00107487    0.0472742 ----
   109   0   0   F    T  1.34D+00 0.00244561 0.00084577 0.00586180 0.00236595    0.0472708 ----
   110   0   0   F    F  4.19D-01 0.00244561 0.00084577 0.00245860 0.00099234    0.0472522 ----
   111   0   0   F    T  2.62D+00 0.00142707 0.00066411 0.00970920 0.00335829    0.0472505 ----
   112   0   0   F    F -3.48D-01 0.00142707 0.00066411 0.00338345 0.00117029    0.0472424 ----
   113   0   0   F    T  1.87D+00 0.00173532 0.00059218 0.00680043 0.00218800    0.0472391 ----
   114   0   0   F    F  1.68D-01 0.00173532 0.00059218 0.00114333 0.00036786    0.0472279 ----
   115   0   0   F    T  2.72D+00 0.00096458 0.00049057 0.00868674 0.00255586    0.0472277 ----
   116   0   0   F    F -1.56D-01 0.00096458 0.00049057 0.00135563 0.00039886    0.0472197 ----
   117   0   0   F    T  1.60D+00 0.00113603 0.00055991 0.00743373 0.00215700    0.0472194 ----
   118   0   0   F    F  2.14D-01 0.00113603 0.00055991 0.00158738 0.00046060    0.0472105 ----
   119   0   0   F    T  2.21D+00 0.00114045 0.00050102 0.00855553 0.00261760    0.0472103 ----
   120   0   0   F    F -1.79D-01 0.00114045 0.00050102 0.00153305 0.00046904    0.0472038 ----
   121   0   0   F    T  1.69D+00 0.00099505 0.00049928 0.00678203 0.00214856    0.0472034 ----
   122   0   0   F    F  6.02D-01 0.00099505 0.00049928 0.00408407 0.00129384    0.0471948 ----
   123   0   0   F    T  2.68D+00 0.00112588 0.00047814 0.01086602 0.00344240    0.0471934 ----
   124   0   0   F    F -3.35D-01 0.00112588 0.00047814 0.00363812 0.00115257    0.0471888 ----
   125   0   0   F    T  3.01D+00 0.00089462 0.00034606 0.00664143 0.00228983    0.0471873 ----
   126   0   0   T    F  4.42D-01 0.00089462 0.00034606 0.00293875 0.00101322    0.0471887 ----
   127   0   0   F    T  2.36D+00 0.00060104 0.00023808 0.00254273 0.00101322    0.0471849 ----
   128   0   0   F    F -1.77D-01 0.00060104 0.00023808 0.00045064 0.00017957    0.0471833 ---+
   129   0   0   F    T  1.69D+00 0.00057169 0.00023874 0.00194268 0.00083365    0.0471832 ----
   130   0   0   F    T  3.01D+00 0.00043344 0.00016708 0.00197493 0.00083365    0.0471817 ----
   131   0   0   F    F -2.93D-01 0.00043344 0.00016708 0.00057800 0.00024398    0.0471809 ---+
   132   0   0   F    T  2.04D+00 0.00038272 0.00015073 0.00144239 0.00058966    0.0471808 ----
   133   0   0   F    T  1.92D+00 0.00038854 0.00015175 0.00146167 0.00058966    0.0471800 ----
   134   0   0   F    T  1.93D+00 0.00038378 0.00012484 0.00151925 0.00058966    0.0471794 ----
   135   0   0   T    F  4.86D-01 0.00038378 0.00012484 0.00073837 0.00028658    0.0471795 ---+
   136   0   0   F    T  3.37D+00 0.00021274 0.00008346 0.00078678 0.00028658    0.0471793 ---+
   137   0   0   T    F  4.07D-01 0.00021274 0.00008346 0.00032021 0.00011664    0.0471794 --++
   138   0   0   F    T  1.99D+00 0.00013276 0.00004998 0.00034092 0.00011664    0.0471791 -+++
   139   0   0   F    T  1.05D+00 0.00016509 0.00006250 0.00023626 0.00011664    0.0471791 -+++
   140   0   0   F    T  2.88D+00 0.00010151 0.00004191 0.00027788 0.00011664    0.0471790 ====
 ****************************
 MOLECULAR MECHANICS FUNCTION
 ****************************
 Atomic parameters:
 Center  VDW
      1 1.9080 0.0860000
      2 1.7210 0.2104000
      3 1.9080 0.1094000
      4 1.4870 0.0157000
      5 1.4870 0.0157000
      6 1.8750 0.1700000
      7 0.6000 0.0157000
      8 0.6000 0.0157000
      9 1.6612 0.2100000
     10 0.0000 0.0000000
 Molecular mechanics terms:
 NBDir 3 1      0      0
 HrmStr1  1- 2  431.53 1.3510
 HrmStr1  1- 3  294.15 1.5090
 HrmStr1  1- 9  946.08 1.2030
 HrmStr1  2-10  566.76 0.9680
 HrmStr1  3- 4  358.05 1.0960
 HrmStr1  3- 5  358.05 1.0960
 HrmStr1  3- 6  380.82 1.4520
 HrmStr1  6- 7  506.01 1.0110
 HrmStr1  6- 8  506.01 1.0110
 HrmBnd1  1- 2-10  56.55 107.23
 HrmBnd1  1- 3- 4  46.41 106.89
 HrmBnd1  1- 3- 5  46.41 106.89
 HrmBnd1  1- 3- 6  59.93 110.61
 HrmBnd1  2- 1- 3  67.92 111.72
 HrmBnd1  2- 1- 9  91.40 123.02
 HrmBnd1  3- 1- 9  62.83 125.24
 HrmBnd1  3- 6- 7  52.60 110.71
 HrmBnd1  3- 6- 8  52.60 110.71
 HrmBnd1  4- 3- 5  44.68 106.22
 HrmBnd1  4- 3- 6  52.45 112.94
 HrmBnd1  5- 3- 6  52.45 112.94
 HrmBnd1  7- 6- 8  47.09 108.63
 AmbTrs  3- 1- 2-10   0 180   0   0  0.0000 14.5000  0.0000  0.0000  2.0
 AmbTrs  9- 1- 2-10   0   0   0   0  0.0000 14.5000  0.0000  0.0000  2.0
 AmbTrs  2- 1- 3- 4   0   0   0   0  0.0000 14.5000  0.0000  0.0000  6.0
 AmbTrs  2- 1- 3- 5   0   0   0   0  0.0000 14.5000  0.0000  0.0000  6.0
 AmbTrs  2- 1- 3- 6   0   0   0   0  0.0000 14.5000  0.0000  0.0000  6.0
 AmbTrs  9- 1- 3- 4   0   0   0   0  0.0000 14.5000  0.0000  0.0000  6.0
 AmbTrs  9- 1- 3- 5   0   0   0   0  0.0000 14.5000  0.0000  0.0000  6.0
 AmbTrs  9- 1- 3- 6   0   0   0   0  0.0000 14.5000  0.0000  0.0000  6.0
 AmbTrs  1- 3- 6- 7   0 180   0   0  0.0000 25.6300  0.0000  0.0000  6.0
 AmbTrs  1- 3- 6- 8   0 180   0   0  0.0000 25.6300  0.0000  0.0000  6.0
 AmbTrs  4- 3- 6- 7   0   0   0   0  0.0000 16.9300  0.0000  0.0000  6.0
 AmbTrs  4- 3- 6- 8   0   0   0   0  0.0000 16.9300  0.0000  0.0000  6.0
 AmbTrs  5- 3- 6- 7   0   0   0   0  0.0000 16.9300  0.0000  0.0000  6.0
 AmbTrs  5- 3- 6- 8   0   0   0   0  0.0000 16.9300  0.0000  0.0000  6.0
 NBPair  2- 1 3 1      0      0 -1.000 -1.000
 NBPair  3- 2 3 1      0      0 -1.000 -1.000
 NBPair 10- 3 3 1      0      0 -0.500 -0.167
 NBPair  9- 2 3 1      0      0 -1.000 -1.000
 NBPair 10- 9 3 1      0      0 -0.500 -0.167
 NBPair  3- 1 3 1      0      0 -1.000 -1.000
 NBPair  4- 2 3 1      0      0 -0.500 -0.167
 NBPair  5- 2 3 1      0      0 -0.500 -0.167
 NBPair  6- 2 3 1      0      0 -0.500 -0.167
 NBPair  9- 3 3 1      0      0 -1.000 -1.000
 NBPair  9- 4 3 1      0      0 -0.500 -0.167
 NBPair  9- 5 3 1      0      0 -0.500 -0.167
 NBPair  9- 6 3 1      0      0 -0.500 -0.167
 NBPair  9- 1 3 1      0      0 -1.000 -1.000
 NBPair 10- 1 3 1      0      0 -1.000 -1.000
 NBPair 10- 2 3 1      0      0 -1.000 -1.000
 NBPair  4- 1 3 1      0      0 -1.000 -1.000
 NBPair  5- 1 3 1      0      0 -1.000 -1.000
 NBPair  6- 1 3 1      0      0 -1.000 -1.000
 NBPair  4- 3 3 1      0      0 -1.000 -1.000
 NBPair  5- 4 3 1      0      0 -1.000 -1.000
 NBPair  6- 4 3 1      0      0 -1.000 -1.000
 NBPair  5- 3 3 1      0      0 -1.000 -1.000
 NBPair  6- 5 3 1      0      0 -1.000 -1.000
 NBPair  6- 3 3 1      0      0 -1.000 -1.000
 NBPair  7- 1 3 1      0      0 -0.500 -0.167
 NBPair  8- 1 3 1      0      0 -0.500 -0.167
 NBPair  7- 4 3 1      0      0 -0.500 -0.167
 NBPair  8- 4 3 1      0      0 -0.500 -0.167
 NBPair  7- 5 3 1      0      0 -0.500 -0.167
 NBPair  8- 5 3 1      0      0 -0.500 -0.167
 NBPair  7- 3 3 1      0      0 -1.000 -1.000
 NBPair  8- 3 3 1      0      0 -1.000 -1.000
 NBPair  7- 6 3 1      0      0 -1.000 -1.000
 NBPair  8- 7 3 1      0      0 -1.000 -1.000
 NBPair  8- 6 3 1      0      0 -1.000 -1.000
 Energy per function type:
 Direct Coulomb + vdW (small)                           0.004152830
 Direct Coulomb (large)                                -0.131785352
 Direct vdW (large)                                   268.439966687
 Non-direct Coulomb + vdW (small)                      -0.012186532
 Non-direct Coulomb (large)                             0.138216404
 Non-direct vdW (large)                              -268.439966687
 Harmonic stretch I                                     0.000140275
 Harmonic bend I                                        0.009343489
 Amber torsion                                          0.039297841
 Energy per function class:
        Coulomb              -0.003553121
    Vanderwaals               0.001950472
     Stretching               0.000140275
        Bending               0.009343489
        Torsion               0.039297841
 Energy=    4.717895457E-02 NIter=   0.
 Dipole moment=       0.472636       0.333363      -0.316335
 Leave Link  402 at Sun Nov 26 11:20:28 2023, MaxMem=   134217728 cpu:               0.2 elap:               0.2
 (Enter /home/emanuele/chem_software/gaussian//gdv/l716.exe)
 Dipole        = 4.72635568D-01 3.33363431D-01-3.16335180D-01
 -------------------------------------------------------------------
 Center     Atomic                   Forces (Hartrees/Bohr)
 Number     Number              X              Y              Z
 -------------------------------------------------------------------
      1        6           0.000030407    0.000014499   -0.000051617
      2        8           0.000029385   -0.000027190   -0.000037662
      3        6          -0.000009723    0.000008067   -0.000032258
      4        1          -0.000014085    0.000026693    0.000054684
      5        1          -0.000007665   -0.000047618    0.000016644
      6        7          -0.000065846    0.000003576   -0.000054384
      7        1           0.000033556   -0.000038677    0.000087038
      8        1           0.000101515    0.000029715   -0.000012623
      9        8          -0.000059913   -0.000017581   -0.000009270
     10        1          -0.000037632    0.000048516    0.000039447
 -------------------------------------------------------------------
 Cartesian Forces:  Max     0.000101515 RMS     0.000041907
 Z-matrix is all fixed cartesians, so copy forces.
 Leave Link  716 at Sun Nov 26 11:20:28 2023, MaxMem=   134217728 cpu:               0.0 elap:               0.0
 (Enter /home/emanuele/chem_software/gaussian//gdv/l103.exe)

 GradGradGradGradGradGradGradGradGradGradGradGradGradGradGradGradGradGrad
 Berny optimization.
 Search for a local minimum.
 Step number   1 out of a maximum of    2
 All quantities printed in internal units (Hartrees-Bohrs-Radians)
 RMS Force = .41907D-04 SwitMx=.10000D-02 MixMth= 2
 Mixed Optimization -- En-DIIS/RFO-DIIS
 Second derivative matrix not updated -- unit matrix used.
 ITU=  0
 RFO step:  Lambda=-5.26868351D-08 EMin= 1.00000000D+00
 Linear search not attempted -- first point.
 Variable       Old X    -DE/DX   Delta X   Delta X   Delta X     New X
                                 (Linear)    (Quad)   (Total)
    X1       -1.07352   0.00003   0.00000   0.00003   0.00003  -1.07349
    Y1        0.17072   0.00001   0.00000   0.00001   0.00001   0.17073
    Z1        0.35713  -0.00005   0.00000  -0.00005  -0.00005   0.35708
    X2       -2.20319   0.00003   0.00000   0.00003   0.00003  -2.20316
    Y2        1.43241  -0.00003   0.00000  -0.00003  -0.00003   1.43239
    Z2       -1.55221  -0.00004   0.00000  -0.00004  -0.00004  -1.55224
    X3        1.38866  -0.00001   0.00000  -0.00001  -0.00001   1.38865
    Y3       -0.97399   0.00001   0.00000   0.00001   0.00001  -0.97398
    Z3       -0.60385  -0.00003   0.00000  -0.00003  -0.00003  -0.60388
    X4        0.85524  -0.00001   0.00000  -0.00001  -0.00001   0.85522
    Y4       -2.86078   0.00003   0.00000   0.00003   0.00003  -2.86076
    Z4       -1.27672   0.00005   0.00000   0.00005   0.00005  -1.27666
    X5        1.93563  -0.00001   0.00000  -0.00001  -0.00001   1.93562
    Y5        0.19065  -0.00005   0.00000  -0.00005  -0.00005   0.19060
    Z5       -2.23091   0.00002   0.00000   0.00002   0.00002  -2.23089
    X6        3.29165  -0.00007   0.00000  -0.00007  -0.00007   3.29159
    Y6       -0.89390   0.00000   0.00000   0.00000   0.00000  -0.89389
    Z6        1.38907  -0.00005   0.00000  -0.00005  -0.00005   1.38901
    X7        2.75374   0.00003   0.00000   0.00003   0.00003   2.75377
    Y7       -0.43637  -0.00004   0.00000  -0.00004  -0.00004  -0.43641
    Z7        3.16606   0.00009   0.00000   0.00009   0.00009   3.16615
    X8        4.94002   0.00010   0.00000   0.00010   0.00010   4.94012
    Y8       -1.83039   0.00003   0.00000   0.00003   0.00003  -1.83036
    Z8        1.14768  -0.00001   0.00000  -0.00001  -0.00001   1.14767
    X9       -2.37215  -0.00006   0.00000  -0.00006  -0.00006  -2.37221
    Y9       -1.08388  -0.00002   0.00000  -0.00002  -0.00002  -1.08390
    Z9        1.73665  -0.00001   0.00000  -0.00001  -0.00001   1.73664
   X10       -3.31395  -0.00004   0.00000  -0.00004  -0.00004  -3.31398
   Y10        2.65048   0.00005   0.00000   0.00005   0.00005   2.65052
   Z10       -0.76296   0.00004   0.00000   0.00004   0.00004  -0.76292
         Item               Value     Threshold  Converged?
 Maximum Force            0.000102     0.000450     YES
 RMS     Force            0.000042     0.000300     YES
 Maximum Displacement     0.000102     0.001800     YES
 RMS     Displacement     0.000042     0.001200     YES
 Predicted change in Energy=-2.634341D-08
 Optimization completed.
    -- Stationary point found.
 Largest change from initial coordinates is atom    8       0.680 Angstoms.
 GradGradGradGradGradGradGradGradGradGradGradGradGradGradGradGradGradGrad

 Leave Link  103 at Sun Nov 26 11:20:28 2023, MaxMem=   134217728 cpu:               0.0 elap:               0.0
 (Enter /home/emanuele/chem_software/gaussian//gdv/l202.exe)
                          Input orientation:                          
 ---------------------------------------------------------------------
 Center     Atomic      Atomic             Coordinates (Angstroms)
 Number     Number       Type             X           Y           Z
 ---------------------------------------------------------------------
      1          6    20001002       -0.568082    0.090341    0.188985
      2          8    20001022       -1.165878    0.758001   -0.821392
      3          6    20001001        0.734847   -0.515411   -0.319542
      4          1    20001034        0.452572   -1.513862   -0.675609
      5          1    20001034        1.024291    0.100886   -1.180545
      6          7    20001020        1.741868   -0.473031    0.735063
      7          1    20001029        1.457216   -0.230919    1.675409
      8          1    20001029        2.614148   -0.968601    0.607328
      9          8    20001025       -1.255290   -0.573564    0.918997
     10          1    20001031       -1.753665    1.402571   -0.403743
 ---------------------------------------------------------------------
                    Distance matrix (angstroms):
                    1          2          3          4          5
     1  C    0.000000
     2  O    1.350553   0.000000
     3  C    1.524191   2.342261   0.000000
     4  H    2.088714   2.793205   1.096981   0.000000
     5  H    2.100327   2.314656   1.097691   1.785843   0.000000
     6  N    2.439561   3.520366   1.458794   2.176145   2.124582
     7  H    2.532686   3.754012   2.140697   2.860514   2.907575
     8  H    3.379787   4.394427   2.143885   2.572090   2.620675
     9  O    1.202473   2.193175   2.344782   2.518674   3.171663
    10  H    1.865176   0.967158   3.142998   3.667012   3.164624
                    6          7          8          9         10
     6  N    0.000000
     7  H    1.011877   0.000000
     8  H    1.011325   1.738811   0.000000
     9  O    3.004479   2.836768   3.902017   0.000000
    10  H    4.127167   4.159438   5.071736   2.429636   0.000000
 Symmetry turned off by external request.
 Stoichiometry    C2H5NO2
 Framework group  C1[X(C2H5NO2)]
 Deg. of freedom    24
 Full point group                 C1      NOp   1
 Rotational constants (GHZ):          10.0906150           3.8179275           3.0386716
 Leave Link  202 at Sun Nov 26 11:20:28 2023, MaxMem=   134217728 cpu:               0.0 elap:               0.0
 (Enter /home/emanuele/chem_software/gaussian//gdv/l9999.exe)
 Unable to Open any file for archive entry.
 1\1\GINC-EMANUELE-XPS-13-9343\FOpt\AMBER\ZDO\C2H5N1O2\EMANUELE\26-Nov-
 2023\0\\#p Amber=(SoftFirst,Print) geom=nocrowd nosymm opt=(maxcycle=3
 00)\\Title\\0,1\C,-0.5680824267,0.0903407905,0.1889849741\O,-1.1658782
 985,0.7580013607,-0.8213919812\C,0.7348465663,-0.5154108834,-0.3195423
 546\H,0.4525717677,-1.5138620778,-0.6756090205\H,1.0242905109,0.100886
 0053,-1.1805450442\N,1.7418678027,-0.4730306147,0.735062741\H,1.457216
 0375,-0.2309192557,1.6754090305\H,2.614147813,-0.9686008526,0.60732754
 54\O,-1.2552898187,-0.5735637416,0.9189972057\H,-1.7536649542,1.402571
 2695,-0.4037430963\\Version=ES64L-GDVRevJ.14\HF=0.047179\RMSD=0.000e+0
 0\RMSF=4.191e-05\Dipole=0.4726356,0.3333634,-0.3163352\PG=C01 [X(C2H5N
 1O2)]\\@
 The archive entry for this job was punched.


 ARTHROPOD AXIOM: A COMPUTER SYSTEM IS LIKE A SPIDER'S WEB.
 YOU CANNOT PULL ON ONE END WITHOUT MAKING THE OTHER END MOVE.
     -- GREG WETTSTEIN
 Job cpu time:       0 days  0 hours  0 minutes  0.8 seconds.
 Elapsed time:       0 days  0 hours  0 minutes  0.7 seconds.
 File lengths (MBytes):  RWF=      6 Int=      0 D2E=      0 Chk=      1 Scr=      1
 Normal termination of Gaussian DV at Sun Nov 26 11:20:28 2023.
