 Entering Gaussian System, Link 0=/home/emanuele/chem_software/gaussian//g09/g09
 Input=2_zmat_mm_20.gjf
 Output=2_zmat_mm_20.log
 Initial command:
 /home/emanuele/chem_software/gaussian//gdv/l1.exe "/home/emanuele/chem_software/gaussian/scratch/Gau-6286.inp" -scrdir="/home/emanuele/chem_software/gaussian/scratch/"
 Entering Link 1 = /home/emanuele/chem_software/gaussian//gdv/l1.exe PID=      6288.
  
 Copyright (c) 1988-2020, Gaussian, Inc.  All Rights Reserved.
  
 This is the private, development version of
 the Gaussian(R) DV system of programs. It is based on
 the Gaussian(R) 16 system (copyright 2016, Gaussian, Inc.),
 the Gaussian(R) 09 system (copyright 2009, Gaussian, Inc.),
 the Gaussian(R) 03 system (copyright 2003, Gaussian, Inc.),
 the Gaussian(R) 98 system (copyright 1998, Gaussian, Inc.),
 the Gaussian(R) 94 system (copyright 1995, Gaussian, Inc.),
 the Gaussian 92(TM) system (copyright 1992, Gaussian, Inc.),
 the Gaussian 90(TM) system (copyright 1990, Gaussian, Inc.),
 the Gaussian 88(TM) system (copyright 1988, Gaussian, Inc.),
 the Gaussian 86(TM) system (copyright 1986, Carnegie Mellon
 University), and the Gaussian 82(TM) system (copyright 1983,
 Carnegie Mellon University). Gaussian is a federally registered
 trademark of Gaussian, Inc.
  
 This software contains proprietary and confidential information,
 including trade secrets, belonging to Gaussian, Inc.
  
 This software is provided under written license and may be
 used, copied, transmitted, or stored only in accord with that
 written license.
  
 The following legend is applicable only to US Government
 contracts under FAR:
  
                    RESTRICTED RIGHTS LEGEND
  
 Use, reproduction and disclosure by the US Government is
 subject to restrictions as set forth in subparagraphs (a)
 and (c) of the Commercial Computer Software - Restricted
 Rights clause in FAR 52.227-19.
  
 Gaussian, Inc.
 340 Quinnipiac St., Bldg. 40, Wallingford CT 06492
  
  
 ---------------------------------------------------------------
 Warning -- This program may not be used in any manner that
 competes with the business of Gaussian, Inc. or will provide
 assistance to any competitor of Gaussian, Inc.  The licensee
 of this program is prohibited from giving any competitor of
 Gaussian, Inc. access to this program.  By using this program,
 the user acknowledges that Gaussian, Inc. is engaged in the
 business of creating and licensing software in the field of
 computational chemistry and represents and warrants to the
 licensee that it is not a competitor of Gaussian, Inc. and that
 it will not use this program in any manner prohibited above.
 ---------------------------------------------------------------
  

 Cite this work as:
 Gaussian Development Version, Revision J.14,
 M. J. Frisch, G. W. Trucks, H. B. Schlegel, G. E. Scuseria, 
 M. A. Robb, J. R. Cheeseman, G. Scalmani, V. Barone, 
 G. A. Petersson, H. Nakatsuji, X. Li, A. V. Marenich, M. Caricato, 
 J. Bloino, B. G. Janesko, J. Zheng, R. Gomperts, B. Mennucci, 
 H. P. Hratchian, J. V. Ortiz, A. F. Izmaylov, J. L. Sonnenberg, 
 D. Williams-Young, F. Ding, F. Lipparini, F. Egidi, J. Goings, 
 B. Peng, A. Petrone, T. Henderson, D. Ranasinghe, V. G. Zakrzewski, 
 J. Gao, N. Rega, G. Zheng, W. Liang, M. Hada, M. Ehara, K. Toyota, 
 R. Fukuda, J. Hasegawa, M. Ishida, T. Nakajima, Y. Honda, O. Kitao, 
 H. Nakai, T. Vreven, K. Throssell, J. A. Montgomery, Jr., 
 J. E. Peralta, F. Ogliaro, M. J. Bearpark, J. J. Heyd, 
 E. N. Brothers, K. N. Kudin, V. N. Staroverov, T. A. Keith, 
 R. Kobayashi, J. Normand, K. Raghavachari, A. P. Rendell, 
 J. C. Burant, S. S. Iyengar, J. Tomasi, M. Cossi, J. M. Millam, 
 M. Klene, C. Adamo, R. Cammi, J. W. Ochterski, R. L. Martin, 
 K. Morokuma, O. Farkas, J. B. Foresman, and D. J. Fox, 
 Gaussian, Inc., Wallingford CT, 2020.
 
 ******************************************
 Gaussian DV:  ES64L-GDVRevJ.14 29-Dec-2020
                26-Nov-2023 
 ******************************************
 %mem=1GB
 %nprocshared=1
 Will use up to    1 processors via shared memory.
 %chk=2_zmat_mm_20.chk
 -----------------------------------------------------------------
 #p Amber=(SoftFirst,Print) geom=nocrowd nosymm opt=(maxcycle=300)
 -----------------------------------------------------------------
 1/6=300,10=10,18=4000020,19=15,37=210000000,38=1,56=2,64=203/1,3;
 2/9=110,12=1,15=1,40=1/2;
 3/5=30,11=9,25=1,30=1,41=10030000,43=2,71=1/1;
 4/20=11,22=1001,24=3,119=11/2;
 7/30=1,44=-1/16;
 1/6=300,10=10,18=4000020,19=15,64=203/3(2);
 2/9=110,12=1,15=1/2;
 99//99;
 2/9=110,12=1,15=1/2;
 3/5=30,11=9,25=1,30=1,41=10030000,43=2,71=1/1;
 4/16=2,20=11,22=1001,24=3,119=11/2;
 7/30=1,44=-1/16;
 1/6=300,10=10,18=4000020,19=15,64=203/3(-4);
 2/9=110,12=1,15=1/2;
 99/9=10/99;
 Leave Link    1 at Sun Nov 26 11:20:20 2023, MaxMem=   134217728 cpu:               0.0 elap:               0.0
 (Enter /home/emanuele/chem_software/gaussian//gdv/l101.exe)
 -----
 Title
 -----
 Symbolic Z-matrix:
 Charge =  0 Multiplicity = 1
 C-C-+0.299289        -0.53431  -0.01008  -0.34817 
 O-OH--0.289770       -1.24327  -0.32945   0.79335 
 C-CT--0.035454        0.7672   -0.79506  -0.3378 
 H-HC-+0.090426        0.68181  -1.62495   0.40912 
 H-HC-+0.095387        0.91298  -1.27973  -1.33578 
 N-N3--0.336253        1.8573   -0.084     0.3606 
 H-H-+0.142619         2.11614   0.76855  -0.1337 
 H-H-+0.128282         1.58432   0.17261   1.30726 
 O-O2--0.308037       -0.81518   1.01382  -0.92239 
 H-HO-+0.213510       -2.04497   0.2447    0.93246 
 
 ITRead=  3  3  3  3  3  3  3  3  3  3
 MicOpt=  0  0  0  0  0  0  0  0  0  0
 NAtoms=     10 NQM=        0 NQMF=       0 NMMI=      0 NMMIF=      0
                NMic=      10 NMicF=      0.
                    Isotopes and Nuclear Properties:
 (Nuclear quadrupole moments (NQMom) in fm**2, nuclear magnetic moments (NMagM)
  in nuclear magnetons)

  Atom         1           2           3           4           5           6           7           8           9          10
 IAtWgt=          12          16          12           1           1          14           1           1          16           1
 AtmWgt=  12.0000000  15.9949146  12.0000000   1.0078250   1.0078250  14.0030740   1.0078250   1.0078250  15.9949146   1.0078250
 NucSpn=           0           0           0           1           1           2           1           1           0           1
 AtZEff=  -0.0000000  -0.0000000  -0.0000000  -0.0000000  -0.0000000  -0.0000000  -0.0000000  -0.0000000  -0.0000000  -0.0000000
 NQMom=    0.0000000   0.0000000   0.0000000   0.0000000   0.0000000   2.0440000   0.0000000   0.0000000   0.0000000   0.0000000
 NMagM=    0.0000000   0.0000000   0.0000000   2.7928460   2.7928460   0.4037610   2.7928460   2.7928460   0.0000000   2.7928460
 AtZNuc=   6.0000000   8.0000000   6.0000000   1.0000000   1.0000000   7.0000000   1.0000000   1.0000000   8.0000000   1.0000000
 Generating MM parameters.
 I=    1 IAn=  6 Valence= 5.
          JB=  1 J=    2 IAn=  8 IBT=12 Dist= 1.38D+00
          JB=  2 J=    3 IAn=  6 IBT= 1 Dist= 1.52D+00
          JB=  3 J=    9 IAn=  8 IBT= 2 Dist= 1.21D+00
 I=    2 IAn=  8 Valence= 3.
          JB=  1 J=    1 IAn=  6 IBT=12 Dist= 1.38D+00
          JB=  2 J=   10 IAn=  1 IBT= 1 Dist= 9.96D-01
 Read MM parameter file:
 Include all MM classes

 MM sanity checks:
 All charges sum to:               -0.00000100
 Charges of atoms sum to:          -0.00000100
 WARNING -- The following centers have non-zero partial charges, but zero Vanderwaals
 parameters.  These centers can collapse onto other centers with non-zero charge.
   Center  Layer   Charge
     10 H    R    0.213510
 MMInit generated parameter data with length LenPar=        2069.
 MM Charge=             -0.0000 electrons
 MM Dipole moment (Debye):
    X=              0.0811    Y=             -1.1932    Z=              0.4710  Tot=              1.2854
 MM Quadrupole moment (Debye-Ang):
   XX=              1.0910   YY=              0.5909   ZZ=              0.6571
   XY=              0.7692   XZ=             -1.8206   YZ=              2.5527
 MM Traceless Quadrupole moment (Debye-Ang):
   XX=              0.3113   YY=             -0.1888   ZZ=             -0.1226
   XY=              0.7692   XZ=             -1.8206   YZ=              2.5527
 MM Octapole moment (Debye-Ang**2):
  XXX=             -6.5097  YYY=             -3.9001  ZZZ=              1.4803  XYY=              3.5504
  XXY=              3.1127  XXZ=              2.2653  XZZ=              2.2839  YZZ=             -1.7112
  YYZ=              0.8091  XYZ=             -1.4161
 MM Hexadecapole moment (Debye-Ang**3):
 XXXX=             12.8268 YYYY=              2.8527 ZZZZ=              2.4150 XXXY=              3.4599
 XXXZ=             -8.4983 YYYX=             -0.2526 YYYZ=              1.9298 ZZZX=             -0.6853
 ZZZY=              3.1968 XXYY=              1.9267 XXZZ=              4.2653 YYZZ=              0.2201
 XXYZ=              3.1559 YYXZ=             -1.7629 ZZXY=             -0.4469
 Leave Link  101 at Sun Nov 26 11:20:20 2023, MaxMem=   134217728 cpu:               0.3 elap:               0.3
 (Enter /home/emanuele/chem_software/gaussian//gdv/l103.exe)

 GradGradGradGradGradGradGradGradGradGradGradGradGradGradGradGradGradGrad
 Berny optimization.
 Initialization pass.
 No Z-matrix variables, so optimization will use Cartesian coordinates.
 Trust Radius=1.00D-01 FncErr=1.00D-07 GrdErr=1.00D-07 EigMax=2.50D+02 EigMin=1.00D-04
 Number of steps in this run=      2 maximum allowed number of steps=      2.
 GradGradGradGradGradGradGradGradGradGradGradGradGradGradGradGradGradGrad

 Leave Link  103 at Sun Nov 26 11:20:20 2023, MaxMem=   134217728 cpu:               0.0 elap:               0.0
 (Enter /home/emanuele/chem_software/gaussian//gdv/l202.exe)
                          Input orientation:                          
 ---------------------------------------------------------------------
 Center     Atomic      Atomic             Coordinates (Angstroms)
 Number     Number       Type             X           Y           Z
 ---------------------------------------------------------------------
      1          6    20001002       -0.534312   -0.010081   -0.348169
      2          8    20001022       -1.243269   -0.329450    0.793354
      3          6    20001001        0.767204   -0.795057   -0.337796
      4          1    20001034        0.681811   -1.624952    0.409115
      5          1    20001034        0.912982   -1.279734   -1.335780
      6          7    20001020        1.857297   -0.083995    0.360596
      7          1    20001029        2.116144    0.768552   -0.133695
      8          1    20001029        1.584318    0.172613    1.307255
      9          8    20001025       -0.815179    1.013818   -0.922389
     10          1    20001031       -2.044971    0.244698    0.932461
 ---------------------------------------------------------------------
                    Distance matrix (angstroms):
                    1          2          3          4          5
     1  C    0.000000
     2  O    1.381192   0.000000
     3  C    1.519947   2.353358   0.000000
     4  H    2.158759   2.351999   1.119774   0.000000
     5  H    2.163805   3.175794   1.118988   1.793676   0.000000
     6  N    2.495517   3.140229   1.477045   1.938729   2.280179
     7  H    2.770773   3.653859   2.075131   2.842677   2.662345
     8  H    2.694884   2.917432   2.076115   2.202820   3.089602
     9  O    1.207056   2.220676   2.473401   3.313154   2.901347
    10  H    1.996751   0.995853   3.256220   3.347360   4.027195
                    6          7          8          9         10
     6  N    0.000000
     7  H    1.018902   0.000000
     8  H    1.018100   1.647519   0.000000
     9  O    3.161229   3.045464   3.381793   0.000000
    10  H    3.957621   4.327354   3.649302   2.354655   0.000000
 Symmetry turned off by external request.
 Stoichiometry    C2H5NO2
 Framework group  C1[X(C2H5NO2)]
 Deg. of freedom    24
 Full point group                 C1      NOp   1
 Rotational constants (GHZ):           8.5251839           3.9945495           3.2684444
 Leave Link  202 at Sun Nov 26 11:20:20 2023, MaxMem=   134217728 cpu:               0.0 elap:               0.0
 (Enter /home/emanuele/chem_software/gaussian//gdv/l301.exe)
 Standard basis: Dummy (5D, 7F)
    10 basis functions,    10 primitive gaussians,    10 cartesian basis functions
     7 alpha electrons        7 beta electrons
       nuclear repulsion energy        22.6594110980 Hartrees.
 IExCor=       0 DFT=F Ex=HF Corr=None N6=None ScaHFX=  1.000000
 ScaDFX=  1.000000  1.000000  1.000000  1.000000  1.000000  0.000000
 ScaDFX=  0.000000  0.000000  0.000000  0.000000  0.000000  0.000000
 IRadAn=      5 IRanWt=     -1 IRanGd=            0 ICorTp=0 IEmpDi=  4
 NAtoms=   10 NActive=   10 NUniq=   10 SFac= 1.00D+00 NAtFMM=   60 NAOKFM=F Big=F
 Integral buffers will be    131072 words long.
 Raffenetti 1 integral format.
 Two-electron integral symmetry is turned off.
 Leave Link  301 at Sun Nov 26 11:20:20 2023, MaxMem=   134217728 cpu:               0.0 elap:               0.0
 (Enter /home/emanuele/chem_software/gaussian//gdv/l402.exe)
 AMBER calculation of energy and first derivatives.
 NRF= 0 NRA=   0 NVA=  10 HaveQM=F NVQ=       0
 Convergence limit is  0.750E-04 MaxStp= 10000 StMxLn= 3.00D-04 StpMin= 1.00D-06.
 Convergence criteria             0.00011250 0.00007500 0.00045000 0.00030000
  Step  NS  ND Rises OKQ   Scale  Max. Force  RMS Force Max. Disp.  RMS Disp.     Energy   Flag
     1   0   0   F    T  1.00D+00 0.03910594 0.01516322 0.03910594 0.01516322    0.0982688 ----
     2   0   0   F    F  8.86D-01 0.03910594 0.01516322 0.03465847 0.01343873    0.0932155 ----
     3   0   0   F    T  2.06D+00 0.02365381 0.01117429 0.05940001 0.02860195    0.0917930 ----
     4   0   0   F    F  8.37D-01 0.02365381 0.01117429 0.04971634 0.02393913    0.0861810 ----
     5   0   0   F    T  3.53D+00 0.02500161 0.00976397 0.10610730 0.05254108    0.0847166 ----
     6   0   0   F    F -3.84D-01 0.02500161 0.00976397 0.04073547 0.02017095    0.0828758 ----
     7   0   0   F    T  2.62D+00 0.02476757 0.00809970 0.08037565 0.03237012    0.0815322 ----
     8   0   0   F    F  9.07D-02 0.02476757 0.00809970 0.00728761 0.00293498    0.0787545 ----
     9   0   0   F    T  1.42D+00 0.02681895 0.01112420 0.10144158 0.03530510    0.0787355 ----
    10   0   0   F    F  4.31D-02 0.02681895 0.01112420 0.00437050 0.00152108    0.0759816 ----
    11   0   0   F    T  2.08D+00 0.02209506 0.00879074 0.10139360 0.03682619    0.0759769 ----
    12   0   0   F    F -1.55D-01 0.02209506 0.00879074 0.01570973 0.00570578    0.0739524 ----
    13   0   0   F    T  3.71D+00 0.01325770 0.00589659 0.07405813 0.03112041    0.0738767 ----
    14   0   0   F    F -3.19D-01 0.01325770 0.00589659 0.02362373 0.00992707    0.0728477 ----
    15   0   0   F    T  2.19D+00 0.01654820 0.00569361 0.04779712 0.02119334    0.0725662 ----
    16   0   0   F    F -2.64D-01 0.01654820 0.00569361 0.01263755 0.00560352    0.0718855 ----
    17   0   0   F    T  1.77D+00 0.01089282 0.00491183 0.03262158 0.01558982    0.0717854 ----
    18   0   0   F    F -1.19D-01 0.01089282 0.00491183 0.00388609 0.00185716    0.0712272 ----
    19   0   0   F    T  1.81D+00 0.00826561 0.00422139 0.02642075 0.01373267    0.0712166 ----
    20   0   0   F    F  5.04D-01 0.00826561 0.00422139 0.01332661 0.00692675    0.0705717 ----
    21   0   0   F    T  4.84D+00 0.00763002 0.00280035 0.04251313 0.02065941    0.0704905 ----
    22   0   0   T    F  4.03D-01 0.00763002 0.00280035 0.01711870 0.00831890    0.0707608 ----
    23   0   0   F    T  1.80D+00 0.00895970 0.00263120 0.01619907 0.00831890    0.0702616 ----
    24   0   0   F    F -2.44D-01 0.00895970 0.00263120 0.00395146 0.00202924    0.0701351 ----
    25   0   0   F    T  1.91D+00 0.00605491 0.00197396 0.01197742 0.00628966    0.0701204 ----
    26   0   0   F    F -1.84D-01 0.00605491 0.00197396 0.00219891 0.00115470    0.0700336 ----
    27   0   0   F    T  6.10D+00 0.00164673 0.00072191 0.01347602 0.00513496    0.0700290 ----
    28   0   0   T    F  4.35D-01 0.00164673 0.00072191 0.00585918 0.00223260    0.0700433 ----
    29   0   0   F    T  1.39D+00 0.00196333 0.00090662 0.00589813 0.00223260    0.0700082 ----
    30   0   0   F    F  6.46D-01 0.00196333 0.00090662 0.00381121 0.00144265    0.0699844 ----
    31   0   0   F    T  1.42D+00 0.00330143 0.00109468 0.00936893 0.00367525    0.0699801 ----
    32   0   0   F    F  1.71D-01 0.00330143 0.00109468 0.00160102 0.00062805    0.0699508 ----
    33   0   0   F    T  3.10D+00 0.00157974 0.00073798 0.01087816 0.00430331    0.0699501 ----
    34   0   0   F    F -8.78D-02 0.00157974 0.00073798 0.00095545 0.00037797    0.0699273 ----
    35   0   0   F    T  2.49D+00 0.00151164 0.00073832 0.00979290 0.00392534    0.0699271 ----
    36   0   0   F    F  2.07D-01 0.00151164 0.00073832 0.00202302 0.00081090    0.0699032 ----
    37   0   0   F    T  1.67D+00 0.00278497 0.00096109 0.01214234 0.00473624    0.0699025 ----
    38   0   0   F    F -1.02D-01 0.00278497 0.00096109 0.00123828 0.00048300    0.0698820 ----
    39   0   0   F    T  1.77D+00 0.00193201 0.00085565 0.01173322 0.00425323    0.0698818 ----
    40   0   0   F    F  5.10D-01 0.00193201 0.00085565 0.00598950 0.00217116    0.0698557 ----
    41   0   0   F    T  4.03D+00 0.00150532 0.00066883 0.01964438 0.00642440    0.0698524 ----
    42   0   0   F    F -4.70D-01 0.00150532 0.00066883 0.00923774 0.00302106    0.0698493 ----
    43   0   0   F    T  2.35D+00 0.00135828 0.00060909 0.01020086 0.00340333    0.0698380 ----
    44   0   0   F    F  2.81D-01 0.00135828 0.00060909 0.00286491 0.00095582    0.0698221 ----
    45   0   0   F    T  1.15D+00 0.00270984 0.00097022 0.01285679 0.00435916    0.0698213 ----
    46   0   0   F    F  5.90D-01 0.00270984 0.00097022 0.00758614 0.00257212    0.0697991 ----
    47   0   0   F    T  3.41D+00 0.00154903 0.00068517 0.01996601 0.00693128    0.0697955 ----
    48   0   0   F    F -2.51D-01 0.00154903 0.00068517 0.00500934 0.00173901    0.0697796 ----
    49   0   0   F    T  2.79D+00 0.00154973 0.00063728 0.01372538 0.00519227    0.0697775 ----
    50   0   0   F    F  5.89D-01 0.00154973 0.00063728 0.00808361 0.00305800    0.0697542 ----
    51   0   0   F    T  1.29D+00 0.00370780 0.00117313 0.02144129 0.00825027    0.0697504 ----
    52   0   0   F    F  1.62D-01 0.00370780 0.00117313 0.00347544 0.00133729    0.0697203 ----
    53   0   0   F    T  2.76D+00 0.00313886 0.00084519 0.02449645 0.00958756    0.0697197 ----
    54   0   0   F    F  2.41D-01 0.00313886 0.00084519 0.00590482 0.00231106    0.0696840 ----
    55   0   0   F    T  1.99D+00 0.00309570 0.00110472 0.02882770 0.01189863    0.0696825 ----
    56   0   0   F    F  6.77D-01 0.00309570 0.00110472 0.01952855 0.00806040    0.0696308 ----
    57   0   0   F    T  2.13D+00 0.00435740 0.00142304 0.04495106 0.01995903    0.0696205 ----
    58   0   0   F    F -1.08D-01 0.00435740 0.00142304 0.00483818 0.00214823    0.0695639 ----
    59   0   0   F    T  1.48D+00 0.00539361 0.00163000 0.03805985 0.01781080    0.0695631 ----
    60   0   0   F    F  8.78D-01 0.00539361 0.00163000 0.03340243 0.01563128    0.0694787 ----
    61   0   0   F    F -2.22D-02 0.00539361 0.00163000 0.00073994 0.00034627    0.0694567 ----
    62   0   0   F    T  2.22D+00 0.00463363 0.00174972 0.06951470 0.03309580    0.0694567 ----
    63   0   0   F    F -4.23D-02 0.00463363 0.00174972 0.00294378 0.00140153    0.0693552 ----
    64   0   0   F    T  2.50D+00 0.00513800 0.00160532 0.06523541 0.03169428    0.0693550 ----
    65   0   0   F    F -9.38D-02 0.00513800 0.00160532 0.00612170 0.00297419    0.0692688 ----
    66   0   0   F    T  1.54D+00 0.00434650 0.00201869 0.05496647 0.02872008    0.0692679 ----
    67   0   0   F    F  2.58D-01 0.00434650 0.00201869 0.01419232 0.00741551    0.0691485 ----
    68   0   0   F    F -2.19D-02 0.00434650 0.00201869 0.00031019 0.00016207    0.0691429 --++
    69   0   0   F    T  3.44D+00 0.00406538 0.00166605 0.06690958 0.03597352    0.0691429 ----
    70   0   0   F    F -2.07D-01 0.00406538 0.00166605 0.01388073 0.00746289    0.0690398 ----
    71   0   0   F    T  1.23D+00 0.00531796 0.00247367 0.05033037 0.02851063    0.0690329 ----
    72   0   0   F    F  1.09D+00 0.00531796 0.00247367 0.05476939 0.03102520    0.0688435 ----
    73   0   0   F    F -7.69D-02 0.00531796 0.00247367 0.00421397 0.00238709    0.0687645 ----
    74   0   0   F    T  1.68D+00 0.00937039 0.00317645 0.10302307 0.05714875    0.0687638 ----
    75   0   0   F    F -1.18D-01 0.00937039 0.00317645 0.01212583 0.00672641    0.0685089 ----
    76   0   0   F    T  2.80D+00 0.00827873 0.00378654 0.10305161 0.05042233    0.0685027 ----
    77   0   0   F    F  5.47D-01 0.00827873 0.00378654 0.05638028 0.02758642    0.0677665 ----
    78   0   0   F    F -1.77D-01 0.00827873 0.00378654 0.00995611 0.00487144    0.0676953 ----
    79   0   0   F    T  1.48D+00 0.01834206 0.00639362 0.15713764 0.07313731    0.0676918 ----
    80   0   0   F    F -2.69D-01 0.01834206 0.00639362 0.04224127 0.01966055    0.0670848 ----
    81   0   0   F    F -1.28D-02 0.01834206 0.00639362 0.00054258 0.00025254    0.0669567 ---+
    82   0   0   F    T  2.30D+00 0.01140675 0.00525788 0.12201873 0.05372929    0.0669567 ----
    83   0   0   F    F  2.59D-01 0.01140675 0.00525788 0.03157635 0.01390422    0.0657490 ----
    84   0   0   F    F -6.69D-02 0.01140675 0.00525788 0.00211182 0.00092991    0.0656947 ----
    85   0   0   F    T  3.06D+00 0.01424323 0.00607405 0.16698843 0.06670360    0.0656944 ----
    86   0   0   F    F  4.37D-01 0.01424323 0.00607405 0.07301576 0.02916618    0.0636661 ----
    87   0   0   F    F -1.91D-01 0.01424323 0.00607405 0.01395402 0.00557394    0.0635253 ----
    88   0   0   F    T  1.91D+00 0.02230329 0.00901258 0.22361765 0.09029584    0.0635166 ----
    89   0   0   F    F -3.78D-01 0.02230329 0.00901258 0.08455064 0.03414118    0.0626980 ----
    90   0   0   F    F -3.85D-03 0.02230329 0.00901258 0.00032571 0.00013152    0.0619419 --++
    91   0   0   F    T  2.31D+00 0.01432507 0.00754929 0.13914095 0.05628618    0.0619419 ----
    92   0   0   F    F -2.41D-01 0.01432507 0.00754929 0.03357997 0.01358398    0.0606033 ----
    93   0   0   F    T  2.29D+00 0.01987320 0.00684388 0.10675266 0.04270219    0.0604563 ----
    94   0   0   F    F  1.01D+00 0.01987320 0.00684388 0.10784978 0.04314105    0.0582011 ----
    95   0   0   F    F -8.39D-02 0.01987320 0.00684388 0.00905026 0.00362020    0.0575816 ----
    96   0   0   F    T  3.50D+00 0.01258257 0.00668438 0.19408455 0.08222305    0.0575766 ----
    97   0   0   T    F  4.39D-01 0.01258257 0.00668438 0.08525729 0.03611887    0.0583786 ----
    98   0   0   F    T  2.54D+00 0.01044110 0.00483620 0.08353043 0.03611887    0.0565321 ----
    99   0   0   F    F -3.72D-01 0.01044110 0.00483620 0.03105815 0.01342966    0.0561740 ----
   100   0   0   F    T  1.55D+00 0.01221220 0.00496870 0.05483642 0.02268921    0.0559642 ----
   101   0   0   F    F  9.01D-01 0.01221220 0.00496870 0.04942685 0.02045093    0.0551354 ----
   102   0   0   F    F -8.78D-03 0.01221220 0.00496870 0.00043396 0.00017956    0.0549050 --++
   103   0   0   F    T  3.59D+00 0.01306159 0.00444860 0.12530182 0.04296058    0.0549050 ----
   104   0   0   T    F  4.24D-01 0.01306159 0.00444860 0.05317059 0.01822990    0.0553240 ----
   105   0   0   F    T  2.64D+00 0.00732031 0.00323708 0.05331111 0.01822990    0.0544486 ----
   106   0   0   F    F  2.29D-01 0.00732031 0.00323708 0.01220378 0.00417312    0.0539567 ----
   107   0   0   F    T  2.28D+00 0.00777405 0.00372339 0.06441438 0.02240302    0.0539390 ----
   108   0   0   F    F -3.77D-01 0.00777405 0.00372339 0.02428569 0.00844645    0.0537518 ----
   109   0   0   F    T  2.15D+00 0.00798000 0.00284254 0.03620298 0.01395657    0.0536451 ----
   110   0   0   F    F -2.63D-01 0.00798000 0.00284254 0.00953532 0.00367595    0.0534782 ----
   111   0   0   F    T  1.67D+00 0.00606038 0.00261188 0.02997837 0.01028062    0.0534540 ----
   112   0   0   F    F  1.30D+00 0.00606038 0.00261188 0.03885545 0.01332487    0.0531836 ----
   113   0   0   F    T  2.91D+00 0.00822981 0.00288679 0.06444727 0.02360549    0.0530538 ----
   114   0   0   F    F -2.73D-01 0.00822981 0.00288679 0.01762604 0.00645600    0.0528280 ----
   115   0   0   F    T  3.80D+00 0.00573421 0.00211761 0.04230567 0.01714950    0.0527909 ----
   116   0   0   F    F -3.56D-01 0.00573421 0.00211761 0.01506094 0.00610527    0.0526760 ----
   117   0   0   F    T  1.82D+00 0.00603868 0.00232739 0.02936799 0.01104423    0.0526280 ----
   118   0   0   F    F  4.50D-01 0.00603868 0.00232739 0.01321689 0.00497039    0.0524316 ----
   119   0   0   F    T  2.69D+00 0.00572314 0.00219220 0.04168833 0.01601462    0.0524102 ----
   120   0   0   T    F  4.34D-01 0.00572314 0.00219220 0.01807700 0.00694430    0.0524697 ----
   121   0   0   F    T  2.10D+00 0.00370023 0.00156179 0.01884367 0.00694430    0.0523263 ----
   122   0   0   F    F -5.57D-02 0.00370023 0.00156179 0.00105011 0.00038699    0.0522544 ----
   123   0   0   F    T  1.68D+00 0.00338582 0.00160776 0.01522637 0.00655731    0.0522541 ----
   124   0   0   F    F  1.26D+00 0.00338582 0.00160776 0.01917123 0.00825618    0.0521520 ----
   125   0   0   F    T  3.38D+00 0.00375218 0.00160738 0.03448997 0.01481349    0.0521055 ----
   126   0   0   F    F -3.56D-01 0.00375218 0.00160738 0.01229268 0.00527972    0.0520472 ----
   127   0   0   F    T  2.49D+00 0.00484651 0.00146354 0.02378480 0.00953377    0.0520214 ----
   128   0   0   F    F  5.85D-01 0.00484651 0.00146354 0.01391536 0.00557776    0.0519140 ----
   129   0   0   F    T  2.01D+00 0.00473102 0.00198007 0.03702407 0.01511153    0.0518977 ----
   130   0   0   F    F  1.15D-01 0.00473102 0.00198007 0.00424491 0.00173258    0.0517635 ----
   131   0   0   F    T  3.66D+00 0.00446908 0.00152350 0.04162738 0.01684410    0.0517620 ----
   132   0   0   F    F -3.35D-01 0.00446908 0.00152350 0.01394962 0.00564457    0.0516988 ----
   133   0   0   F    T  2.79D+00 0.00369222 0.00138931 0.02841409 0.01119953    0.0516782 ----
   134   0   0   F    F -3.54D-02 0.00369222 0.00138931 0.00100466 0.00039599    0.0515998 ----
   135   0   0   F    T  1.67D+00 0.00372294 0.00172129 0.02511133 0.01080354    0.0515996 ----
   136   0   0   F    F  2.03D-01 0.00372294 0.00172129 0.00509353 0.00219137    0.0515127 ----
   137   0   0   F    T  2.06D+00 0.00352356 0.00170697 0.03350529 0.01299491    0.0515102 ----
   138   0   0   F    F -2.94D-01 0.00352356 0.00170697 0.00986564 0.00382635    0.0514577 ----
   139   0   0   F    T  2.19D+00 0.00381666 0.00135883 0.02283550 0.00916855    0.0514466 ----
   140   0   0   F    F  5.47D-01 0.00381666 0.00135883 0.01249443 0.00501657    0.0513647 ----
   141   0   0   F    T  1.55D+00 0.00500277 0.00197983 0.03704783 0.01418512    0.0513531 ----
   142   0   0   F    F  7.29D-01 0.00500277 0.00197983 0.02702034 0.01034573    0.0512208 ----
   143   0   0   F    F -1.69D-02 0.00500277 0.00197983 0.00045753 0.00017518    0.0511915 ---+
   144   0   0   F    T  3.46D+00 0.00465158 0.00180557 0.05863826 0.02435567    0.0511915 ----
   145   0   0   F    F -4.40D-01 0.00465158 0.00180557 0.02579157 0.01071265    0.0511507 ----
   146   0   0   F    T  1.80D+00 0.00401827 0.00178204 0.03553694 0.01364302    0.0510993 ----
   147   0   0   F    F  3.66D-01 0.00401827 0.00178204 0.01301887 0.00499809    0.0509892 ----
   148   0   0   F    T  1.45D+00 0.00513164 0.00224706 0.04622194 0.01864111    0.0509805 ----
   149   0   0   F    F  3.37D-01 0.00513164 0.00224706 0.01557675 0.00628204    0.0508388 ----
   150   0   0   F    T  2.42D+00 0.00556804 0.00221663 0.06518832 0.02492315    0.0508287 ----
   151   0   0   F    F -1.53D-01 0.00556804 0.00221663 0.00994243 0.00380124    0.0506833 ----
   152   0   0   F    T  2.25D+00 0.00498504 0.00215921 0.05580610 0.02112191    0.0506785 ----
   153   0   0   F    F  7.26D-01 0.00498504 0.00215921 0.04050773 0.01533167    0.0504557 ----
   154   0   0   F    F -1.95D-02 0.00498504 0.00215921 0.00078984 0.00029895    0.0504089 ---+
   155   0   0   F    T  2.10D+00 0.00699129 0.00288015 0.08907008 0.03615463    0.0504089 ----
   156   0   0   F    F -2.19D-01 0.00699129 0.00288015 0.01946727 0.00790200    0.0502203 ----
   157   0   0   F    T  1.88D+00 0.00583816 0.00267686 0.07665898 0.02825263    0.0502043 ----
   158   0   0   F    F -2.24D-01 0.00583816 0.00267686 0.01714737 0.00631966    0.0500594 ----
   159   0   0   F    T  2.49D+00 0.00391928 0.00205266 0.05719819 0.02193297    0.0500460 ----
   160   0   0   F    F  1.45D-01 0.00391928 0.00205266 0.00830665 0.00318523    0.0498718 ----
   161   0   0   F    T  2.07D+00 0.00688403 0.00236975 0.06795136 0.02511820    0.0498690 ----
   162   0   0   F    F  4.17D-01 0.00688403 0.00236975 0.02833184 0.01047286    0.0496405 ----
   163   0   0   F    T  3.13D+00 0.00730723 0.00226677 0.09812399 0.03559106    0.0496185 ----
   164   0   0   F    F -4.27D-01 0.00730723 0.00226677 0.04189930 0.01519751    0.0495616 ----
   165   0   0   F    T  2.50D+00 0.00457713 0.00198294 0.05047164 0.02039355    0.0494780 ----
   166   0   0   F    F -6.72D-02 0.00457713 0.00198294 0.00338955 0.00136958    0.0493431 ----
   167   0   0   F    T  1.23D+00 0.00710916 0.00271471 0.04753912 0.01902397    0.0493424 ----
   168   0   0   F    F  8.82D-01 0.00710916 0.00271471 0.04191584 0.01677367    0.0491439 ----
   169   0   0   F    F -1.23D-02 0.00710916 0.00271471 0.00051457 0.00020592    0.0490890 ---+
   170   0   0   F    T  2.17D+00 0.00539792 0.00265675 0.08250345 0.03559172    0.0490890 ----
   171   0   0   F    F -2.08D-01 0.00539792 0.00265675 0.01719446 0.00741763    0.0489183 ----
   172   0   0   F    T  4.47D+00 0.00487493 0.00162965 0.05861107 0.02817409    0.0489053 ----
   173   0   0   F    F -3.91D-01 0.00487493 0.00162965 0.02289502 0.01100554    0.0488427 ----
   174   0   0   F    T  1.83D+00 0.00468565 0.00201036 0.03434520 0.01716855    0.0487951 ----
   175   0   0   F    F  1.04D+00 0.00468565 0.00201036 0.03561380 0.01780270    0.0486295 ----
   176   0   0   F    F -1.62D-02 0.00468565 0.00201036 0.00057672 0.00028829    0.0485735 ---+
   177   0   0   F    T  4.20D+00 0.00477919 0.00193512 0.06862911 0.03468295    0.0485735 ----
   178   0   0   T    F  4.84D-01 0.00477919 0.00193512 0.03323794 0.01679739    0.0485956 ----
   179   0   0   F    T  2.32D+00 0.00364620 0.00181213 0.03119198 0.01679739    0.0484581 ----
   180   0   0   F    F  8.28D-01 0.00364620 0.00181213 0.02582939 0.01390955    0.0482985 ----
   181   0   0   F    T  1.70D+00 0.00779526 0.00281055 0.05453839 0.03070693    0.0482603 ----
   182   0   0   F    F -2.37D-01 0.00779526 0.00281055 0.01291638 0.00727235    0.0481206 ----
   183   0   0   F    T  2.07D+00 0.00402552 0.00206809 0.04120364 0.02343458    0.0481052 ----
   184   0   0   F    F  1.20D-02 0.00402552 0.00206809 0.00049313 0.00028047    0.0479678 ---+
   185   0   0   F    T  2.27D+00 0.00586258 0.00208223 0.04312912 0.02371505    0.0479678 ----
   186   0   0   F    F  3.73D-01 0.00586258 0.00208223 0.01610486 0.00885544    0.0477829 ----
   187   0   0   F    T  2.54D+00 0.00580273 0.00235043 0.06397955 0.03257049    0.0477687 ----
   188   0   0   F    F -2.58D-01 0.00580273 0.00235043 0.01649080 0.00839508    0.0476313 ----
   189   0   0   F    T  1.93D+00 0.00587263 0.00229047 0.05123500 0.02417541    0.0476122 ----
   190   0   0   F    F -3.15D-01 0.00587263 0.00229047 0.01615770 0.00762406    0.0475303 ----
   191   0   0   F    T  2.00D+00 0.00454928 0.00181729 0.03945132 0.01655135    0.0475085 ----
   192   0   0   F    F  9.48D-02 0.00454928 0.00181729 0.00374124 0.00156959    0.0474012 ----
   193   0   0   F    T  3.12D+00 0.00342689 0.00147668 0.04821483 0.01812094    0.0474004 ----
   194   0   0   F    F -3.66D-01 0.00342689 0.00147668 0.01765522 0.00663549    0.0473572 ----
   195   0   0   F    T  3.74D+00 0.00227200 0.00101064 0.03370463 0.01148545    0.0473360 ----
   196   0   0   T    F  2.93D-01 0.00227200 0.00101064 0.00986997 0.00336337    0.0474162 ----
   197   0   0   F    T  1.63D+00 0.00217443 0.00079123 0.01093206 0.00336337    0.0473193 ----
   198   0   0   F    F  2.47D-01 0.00217443 0.00079123 0.00269887 0.00083034    0.0473010 ----
   199   0   0   F    T  2.08D+00 0.00211515 0.00075090 0.01447586 0.00419371    0.0473002 ----
   200   0   0   F    F  9.37D-02 0.00211515 0.00075090 0.00135582 0.00039278    0.0472812 ----
   201   0   0   F    T  4.48D+00 0.00138245 0.00049616 0.01538854 0.00458649    0.0472810 ----
   202   0   0   T    F  2.26D-01 0.00138245 0.00049616 0.00348435 0.00103850    0.0473211 ----
   203   0   0   F    T  1.45D+00 0.00112236 0.00038129 0.00344177 0.00103850    0.0472773 ----
   204   0   0   F    F  5.46D-01 0.00112236 0.00038129 0.00187889 0.00056692    0.0472730 ----
   205   0   0   F    T  1.56D+00 0.00111340 0.00043575 0.00548225 0.00160542    0.0472724 ----
   206   0   0   F    F  1.93D+00 0.00111340 0.00043575 0.01055557 0.00309109    0.0472651 ----
   207   0   0   F    T  2.15D+00 0.00143252 0.00062158 0.01536656 0.00469651    0.0472595 ----
   208   0   0   F    F -3.98D-01 0.00143252 0.00062158 0.00611678 0.00186948    0.0472553 ----
   209   0   0   F    T  1.64D+00 0.00123559 0.00053188 0.00857347 0.00282703    0.0472520 ----
   210   0   0   F    F  5.88D-02 0.00123559 0.00053188 0.00050445 0.00016634    0.0472447 ---+
   211   0   0   F    T  1.77D+00 0.00131189 0.00051762 0.00837040 0.00299337    0.0472446 ----
   212   0   0   F    F  2.11D+00 0.00131189 0.00051762 0.01763435 0.00630627    0.0472328 ----
   213   0   0   F    T  1.93D+00 0.00216641 0.00087102 0.02469975 0.00929964    0.0472231 ----
   214   0   0   F    F -4.20D-01 0.00216641 0.00087102 0.01037628 0.00390674    0.0472174 ----
   215   0   0   F    T  2.14D+00 0.00126151 0.00065110 0.01409746 0.00539289    0.0472102 ----
   216   0   0   F    F -1.20D-01 0.00126151 0.00065110 0.00169807 0.00064959    0.0471983 ----
   217   0   0   F    T  1.82D+00 0.00184882 0.00067664 0.01315306 0.00474331    0.0471981 ----
   218   0   0   F    F  9.64D-01 0.00184882 0.00067664 0.01267616 0.00457132    0.0471800 ----
   219   0   0   F    T  4.11D+00 0.00150777 0.00062122 0.02771680 0.00931463    0.0471747 ----
   220   0   0   T    F  3.83D-01 0.00150777 0.00062122 0.01061121 0.00356605    0.0471897 ----
   221   0   0   F    T  1.59D+00 0.00147410 0.00060363 0.01032770 0.00356605    0.0471656 ----
   222   0   0   F    F  1.21D-01 0.00147410 0.00060363 0.00124886 0.00043122    0.0471559 ----
   223   0   0   F    T  1.58D+00 0.00142798 0.00063879 0.01101261 0.00399727    0.0471558 ----
   224   0   0   F    F  6.30D-01 0.00142798 0.00063879 0.00694087 0.00251934    0.0471422 ----
   225   0   0   F    T  2.56D+00 0.00161926 0.00065214 0.01899918 0.00651661    0.0471398 ----
   226   0   0   F    F -2.23D-02 0.00161926 0.00065214 0.00042443 0.00014558    0.0471239 --++
   227   0   0   F    T  3.28D+00 0.00120589 0.00057232 0.01581553 0.00637103    0.0471239 ----
   228   0   0   T    F  4.56D-01 0.00120589 0.00057232 0.00721019 0.00290451    0.0471270 ----
   229   0   0   F    T  1.32D+00 0.00182439 0.00059753 0.00658870 0.00290451    0.0471165 ----
   230   0   0   F    F  5.81D-01 0.00182439 0.00059753 0.00382714 0.00168713    0.0471069 ----
   231   0   0   F    T  2.59D+00 0.00154811 0.00052486 0.01146672 0.00459164    0.0471054 ----
   232   0   0   F    F -2.42D-01 0.00154811 0.00052486 0.00278064 0.00111346    0.0470981 ----
   233   0   0   F    T  4.54D+00 0.00069019 0.00032216 0.00898833 0.00347818    0.0470973 ----
   234   0   0   F    F -3.52D-01 0.00069019 0.00032216 0.00316215 0.00122365    0.0470941 ----
   235   0   0   F    T  1.56D+00 0.00101664 0.00043304 0.00566301 0.00225453    0.0470927 ----
   236   0   0   F    F -9.71D-02 0.00101664 0.00043304 0.00054971 0.00021885    0.0470888 ---+
   237   0   0   F    T  2.09D+00 0.00089550 0.00034522 0.00450670 0.00203568    0.0470887 ----
   238   0   0   F    F -2.85D-01 0.00089550 0.00034522 0.00128491 0.00058040    0.0470865 ----
   239   0   0   F    T  3.55D+00 0.00037203 0.00020724 0.00269243 0.00145529    0.0470861 ----
   240   0   0   F    T  2.35D+00 0.00061547 0.00024972 0.00299481 0.00145529    0.0470836 ----
   241   0   0   F    T  1.50D+00 0.00080227 0.00029303 0.00311775 0.00145529    0.0470810 ----
   242   0   0   F    F -2.12D-01 0.00080227 0.00029303 0.00066084 0.00030846    0.0470795 ----
   243   0   0   F    T  2.80D+00 0.00033216 0.00016983 0.00279604 0.00114682    0.0470794 ----
   244   0   0   F    T  2.09D+00 0.00058148 0.00019790 0.00320762 0.00114682    0.0470782 ----
   245   0   0   F    T  1.82D+00 0.00055831 0.00020261 0.00347385 0.00114682    0.0470768 ----
   246   0   0   F    F -3.37D-01 0.00055831 0.00020261 0.00116973 0.00038616    0.0470763 ----
   247   0   0   F    T  1.59D+00 0.00044672 0.00016575 0.00249352 0.00076066    0.0470761 ----
   248   0   0   F    F  1.72D+00 0.00044672 0.00016575 0.00427679 0.00130466    0.0470750 ----
   249   0   0   F    T  2.73D+00 0.00056167 0.00021199 0.00677035 0.00206532    0.0470743 ----
   250   0   0   F    F -4.02D-01 0.00056167 0.00021199 0.00272326 0.00083074    0.0470737 ----
   251   0   0   F    T  1.31D+00 0.00069073 0.00023365 0.00395635 0.00123458    0.0470732 ----
   252   0   0   F    F  3.63D-01 0.00069073 0.00023365 0.00143429 0.00044757    0.0470718 ----
   253   0   0   F    T  1.95D+00 0.00060152 0.00021718 0.00510708 0.00168215    0.0470717 ----
   254   0   0   F    F  2.63D-01 0.00060152 0.00021718 0.00134496 0.00044300    0.0470700 ----
   255   0   0   F    T  2.57D+00 0.00047794 0.00020830 0.00599273 0.00212514    0.0470700 ----
   256   0   0   F    T  1.25D+00 0.00083831 0.00029565 0.00572319 0.00212514    0.0470683 ----
   257   0   0   F    F  9.57D-02 0.00083831 0.00029565 0.00054745 0.00020328    0.0470665 ---+
   258   0   0   F    T  2.55D+00 0.00050204 0.00021268 0.00565793 0.00232842    0.0470665 ----
   259   0   0   F    F  8.80D-02 0.00050204 0.00021268 0.00049800 0.00020494    0.0470646 ---+
   260   0   0   F    T  2.37D+00 0.00064075 0.00022746 0.00571975 0.00253337    0.0470646 ----
   261   0   0   F    F -1.80D-01 0.00064075 0.00022746 0.00102706 0.00045490    0.0470632 ----
   262   0   0   F    T  1.64D+00 0.00063483 0.00024353 0.00518018 0.00207846    0.0470631 ----
   263   0   0   F    F -1.53D-01 0.00063483 0.00024353 0.00079348 0.00031837    0.0470619 ----
   264   0   0   F    T  1.78D+00 0.00066873 0.00020937 0.00487295 0.00176009    0.0470619 ----
   265   0   0   F    F  4.43D-01 0.00066873 0.00020937 0.00216016 0.00078024    0.0470604 ----
   266   0   0   F    T  2.90D+00 0.00047773 0.00019385 0.00787864 0.00254034    0.0470602 ----
   267   0   0   F    F -3.38D-01 0.00047773 0.00019385 0.00266571 0.00085952    0.0470594 ----
   268   0   0   F    T  1.59D+00 0.00058748 0.00021083 0.00543515 0.00168082    0.0470591 ----
   269   0   0   F    F -7.90D-02 0.00058748 0.00021083 0.00042925 0.00013275    0.0470581 --++
   270   0   0   F    T  1.64D+00 0.00043181 0.00019735 0.00514607 0.00154808    0.0470581 ----
   271   0   0   F    F  4.95D-01 0.00043181 0.00019735 0.00254741 0.00076633    0.0470569 ----
   272   0   0   F    T  2.90D+00 0.00056368 0.00017568 0.00830694 0.00231441    0.0470567 ----
   273   0   0   F    F -3.17D-01 0.00056368 0.00017568 0.00263133 0.00073312    0.0470560 ----
   274   0   0   F    T  1.78D+00 0.00044616 0.00018299 0.00562392 0.00158129    0.0470558 ----
   275   0   0   F    F -2.57D-01 0.00044616 0.00018299 0.00144264 0.00040563    0.0470552 ----
   276   0   0   F    T  1.64D+00 0.00048316 0.00016469 0.00390671 0.00117566    0.0470551 ----
   277   0   0   F    F  4.79D-01 0.00048316 0.00016469 0.00187301 0.00056365    0.0470543 ----
   278   0   0   F    T  2.77D+00 0.00038797 0.00015157 0.00558482 0.00173931    0.0470541 ----
   279   0   0   F    F -2.67D-01 0.00038797 0.00015157 0.00149312 0.00046501    0.0470535 ----
   280   0   0   F    T  2.21D+00 0.00041706 0.00014231 0.00380537 0.00127430    0.0470534 ----
   281   0   0   T    F  4.35D-01 0.00041706 0.00014231 0.00165385 0.00055382    0.0470537 ----
   282   0   0   F    T  2.43D+00 0.00023322 0.00008623 0.00131168 0.00055382    0.0470532 ----
   283   0   0   F    T  2.15D+00 0.00022293 0.00008523 0.00125497 0.00055382    0.0470529 ----
   284   0   0   F    T  1.90D+00 0.00028979 0.00009298 0.00142438 0.00055382    0.0470527 ----
   285   0   0   F    F -4.85D-01 0.00028979 0.00009298 0.00069107 0.00026870    0.0470527 ---+
   286   0   0   F    T  2.83D+00 0.00012276 0.00005750 0.00082404 0.00028512    0.0470526 -+-+
   287   0   0   F    T  1.66D+00 0.00017549 0.00006642 0.00086328 0.00028512    0.0470525 -+-+
   288   0   0   F    F  4.97D-01 0.00017549 0.00006642 0.00042940 0.00014182    0.0470524 -+++
   289   0   0   F    T  3.16D+00 0.00016569 0.00008013 0.00099697 0.00042694    0.0470524 ----
   290   0   0   F    F -4.90D-01 0.00016569 0.00008013 0.00048852 0.00020920    0.0470524 ---+
   291   0   0   F    T  1.63D+00 0.00015819 0.00007080 0.00048319 0.00021774    0.0470522 -+-+
   292   0   0   F    T  1.59D+00 0.00016030 0.00006576 0.00047149 0.00021774    0.0470521 -+-+
   293   0   0   F    F  6.92D-01 0.00016030 0.00006576 0.00032606 0.00015058    0.0470520 -+++
   294   0   0   F    T  2.04D+00 0.00018766 0.00007567 0.00076446 0.00036832    0.0470520 ----
   295   0   0   F    T  3.48D+00 0.00011622 0.00005172 0.00076443 0.00036832    0.0470518 -+--
   296   0   0   F    T  2.42D+00 0.00015226 0.00006179 0.00085256 0.00036832    0.0470516 -+--
   297   0   0   T    F  4.90D-01 0.00015226 0.00006179 0.00041793 0.00018055    0.0470516 -+++
   298   0   0   F    T  1.55D+00 0.00011512 0.00004460 0.00043101 0.00018055    0.0470516 -+++
   299   0   0   F    T  3.02D+00 0.00008767 0.00003669 0.00036984 0.00018055    0.0470515 ====
 ****************************
 MOLECULAR MECHANICS FUNCTION
 ****************************
 Atomic parameters:
 Center  VDW
      1 1.9080 0.0860000
      2 1.7210 0.2104000
      3 1.9080 0.1094000
      4 1.4870 0.0157000
      5 1.4870 0.0157000
      6 1.8750 0.1700000
      7 0.6000 0.0157000
      8 0.6000 0.0157000
      9 1.6612 0.2100000
     10 0.0000 0.0000000
 Molecular mechanics terms:
 NBDir 3 1      0      0
 HrmStr1  1- 2  431.53 1.3510
 HrmStr1  1- 3  294.15 1.5090
 HrmStr1  1- 9  946.08 1.2030
 HrmStr1  2-10  566.76 0.9680
 HrmStr1  3- 4  358.05 1.0960
 HrmStr1  3- 5  358.05 1.0960
 HrmStr1  3- 6  380.82 1.4520
 HrmStr1  6- 7  506.01 1.0110
 HrmStr1  6- 8  506.01 1.0110
 HrmBnd1  1- 2-10  56.55 107.23
 HrmBnd1  1- 3- 4  46.41 106.89
 HrmBnd1  1- 3- 5  46.41 106.89
 HrmBnd1  1- 3- 6  59.93 110.61
 HrmBnd1  2- 1- 3  67.92 111.72
 HrmBnd1  2- 1- 9  91.40 123.02
 HrmBnd1  3- 1- 9  62.83 125.24
 HrmBnd1  3- 6- 7  52.60 110.71
 HrmBnd1  3- 6- 8  52.60 110.71
 HrmBnd1  4- 3- 5  44.68 106.22
 HrmBnd1  4- 3- 6  52.45 112.94
 HrmBnd1  5- 3- 6  52.45 112.94
 HrmBnd1  7- 6- 8  47.09 108.63
 AmbTrs  3- 1- 2-10   0 180   0   0  0.0000 14.5000  0.0000  0.0000  2.0
 AmbTrs  9- 1- 2-10   0   0   0   0  0.0000 14.5000  0.0000  0.0000  2.0
 AmbTrs  2- 1- 3- 4   0   0   0   0  0.0000 14.5000  0.0000  0.0000  6.0
 AmbTrs  2- 1- 3- 5   0   0   0   0  0.0000 14.5000  0.0000  0.0000  6.0
 AmbTrs  2- 1- 3- 6   0   0   0   0  0.0000 14.5000  0.0000  0.0000  6.0
 AmbTrs  9- 1- 3- 4   0   0   0   0  0.0000 14.5000  0.0000  0.0000  6.0
 AmbTrs  9- 1- 3- 5   0   0   0   0  0.0000 14.5000  0.0000  0.0000  6.0
 AmbTrs  9- 1- 3- 6   0   0   0   0  0.0000 14.5000  0.0000  0.0000  6.0
 AmbTrs  1- 3- 6- 7   0 180   0   0  0.0000 25.6300  0.0000  0.0000  6.0
 AmbTrs  1- 3- 6- 8   0 180   0   0  0.0000 25.6300  0.0000  0.0000  6.0
 AmbTrs  4- 3- 6- 7   0   0   0   0  0.0000 16.9300  0.0000  0.0000  6.0
 AmbTrs  4- 3- 6- 8   0   0   0   0  0.0000 16.9300  0.0000  0.0000  6.0
 AmbTrs  5- 3- 6- 7   0   0   0   0  0.0000 16.9300  0.0000  0.0000  6.0
 AmbTrs  5- 3- 6- 8   0   0   0   0  0.0000 16.9300  0.0000  0.0000  6.0
 NBPair  2- 1 3 1      0      0 -1.000 -1.000
 NBPair  3- 2 3 1      0      0 -1.000 -1.000
 NBPair 10- 3 3 1      0      0 -0.500 -0.167
 NBPair  9- 2 3 1      0      0 -1.000 -1.000
 NBPair 10- 9 3 1      0      0 -0.500 -0.167
 NBPair  3- 1 3 1      0      0 -1.000 -1.000
 NBPair  4- 2 3 1      0      0 -0.500 -0.167
 NBPair  5- 2 3 1      0      0 -0.500 -0.167
 NBPair  6- 2 3 1      0      0 -0.500 -0.167
 NBPair  9- 3 3 1      0      0 -1.000 -1.000
 NBPair  9- 4 3 1      0      0 -0.500 -0.167
 NBPair  9- 5 3 1      0      0 -0.500 -0.167
 NBPair  9- 6 3 1      0      0 -0.500 -0.167
 NBPair  9- 1 3 1      0      0 -1.000 -1.000
 NBPair 10- 1 3 1      0      0 -1.000 -1.000
 NBPair 10- 2 3 1      0      0 -1.000 -1.000
 NBPair  4- 1 3 1      0      0 -1.000 -1.000
 NBPair  5- 1 3 1      0      0 -1.000 -1.000
 NBPair  6- 1 3 1      0      0 -1.000 -1.000
 NBPair  4- 3 3 1      0      0 -1.000 -1.000
 NBPair  5- 4 3 1      0      0 -1.000 -1.000
 NBPair  6- 4 3 1      0      0 -1.000 -1.000
 NBPair  5- 3 3 1      0      0 -1.000 -1.000
 NBPair  6- 5 3 1      0      0 -1.000 -1.000
 NBPair  6- 3 3 1      0      0 -1.000 -1.000
 NBPair  7- 1 3 1      0      0 -0.500 -0.167
 NBPair  8- 1 3 1      0      0 -0.500 -0.167
 NBPair  7- 4 3 1      0      0 -0.500 -0.167
 NBPair  8- 4 3 1      0      0 -0.500 -0.167
 NBPair  7- 5 3 1      0      0 -0.500 -0.167
 NBPair  8- 5 3 1      0      0 -0.500 -0.167
 NBPair  7- 3 3 1      0      0 -1.000 -1.000
 NBPair  8- 3 3 1      0      0 -1.000 -1.000
 NBPair  7- 6 3 1      0      0 -1.000 -1.000
 NBPair  8- 7 3 1      0      0 -1.000 -1.000
 NBPair  8- 6 3 1      0      0 -1.000 -1.000
 Energy per function type:
 Direct Coulomb + vdW (small)                           0.003547259
 Direct Coulomb (large)                                -0.129991355
 Direct vdW (large)                                   268.849907112
 Non-direct Coulomb + vdW (small)                      -0.012794431
 Non-direct Coulomb (large)                             0.138022967
 Non-direct vdW (large)                              -268.849907112
 Harmonic stretch I                                     0.000141356
 Harmonic bend I                                        0.010151272
 Amber torsion                                          0.037974435
 Energy per function class:
        Coulomb              -0.002860179
    Vanderwaals               0.001644618
     Stretching               0.000141356
        Bending               0.010151272
        Torsion               0.037974435
 Energy=    4.705150219E-02 NIter=   0.
 Dipole moment=       0.115486      -0.793949       0.045767
 Leave Link  402 at Sun Nov 26 11:20:21 2023, MaxMem=   134217728 cpu:               0.5 elap:               0.5
 (Enter /home/emanuele/chem_software/gaussian//gdv/l716.exe)
 Dipole        = 1.15485542D-01-7.93949371D-01 4.57670174D-02
 -------------------------------------------------------------------
 Center     Atomic                   Forces (Hartrees/Bohr)
 Number     Number              X              Y              Z
 -------------------------------------------------------------------
      1        6           0.000049486    0.000008911   -0.000030017
      2        8           0.000042466    0.000026859   -0.000015980
      3        6           0.000005571    0.000049691    0.000087675
      4        1          -0.000052017    0.000013523   -0.000036674
      5        1           0.000053542    0.000006776   -0.000029839
      6        7          -0.000030507   -0.000033100    0.000014806
      7        1          -0.000026520    0.000035243   -0.000012179
      8        1           0.000017876   -0.000047954   -0.000037500
      9        8          -0.000009189   -0.000055857    0.000027999
     10        1          -0.000050708   -0.000004091    0.000031710
 -------------------------------------------------------------------
 Cartesian Forces:  Max     0.000087675 RMS     0.000036688
 Z-matrix is all fixed cartesians, so copy forces.
 Leave Link  716 at Sun Nov 26 11:20:21 2023, MaxMem=   134217728 cpu:               0.0 elap:               0.0
 (Enter /home/emanuele/chem_software/gaussian//gdv/l103.exe)

 GradGradGradGradGradGradGradGradGradGradGradGradGradGradGradGradGradGrad
 Berny optimization.
 Search for a local minimum.
 Step number   1 out of a maximum of    2
 All quantities printed in internal units (Hartrees-Bohrs-Radians)
 RMS Force = .36688D-04 SwitMx=.10000D-02 MixMth= 2
 Mixed Optimization -- En-DIIS/RFO-DIIS
 Second derivative matrix not updated -- unit matrix used.
 ITU=  0
 RFO step:  Lambda=-4.03796311D-08 EMin= 1.00000000D+00
 Linear search not attempted -- first point.
 Variable       Old X    -DE/DX   Delta X   Delta X   Delta X     New X
                                 (Linear)    (Quad)   (Total)
    X1       -1.25958   0.00005   0.00000   0.00005   0.00005  -1.25953
    Y1       -0.23776   0.00001   0.00000   0.00001   0.00001  -0.23775
    Z1       -0.47403  -0.00003   0.00000  -0.00003  -0.00003  -0.47406
    X2       -2.13901   0.00004   0.00000   0.00004   0.00004  -2.13897
    Y2       -0.34973   0.00003   0.00000   0.00003   0.00003  -0.34970
    Z2        1.91957  -0.00002   0.00000  -0.00002  -0.00002   1.91955
    X3        1.37760   0.00001   0.00000   0.00001   0.00001   1.37761
    Y3       -1.38627   0.00005   0.00000   0.00005   0.00005  -1.38622
    Z3       -0.55155   0.00009   0.00000   0.00009   0.00009  -0.55146
    X4        1.12693  -0.00005   0.00000  -0.00005  -0.00005   1.12687
    Y4       -3.26291   0.00001   0.00000   0.00001   0.00001  -3.26289
    Z4        0.29201  -0.00004   0.00000  -0.00004  -0.00004   0.29197
    X5        1.68882   0.00005   0.00000   0.00005   0.00005   1.68887
    Y5       -1.68127   0.00001   0.00000   0.00001   0.00001  -1.68127
    Z5       -2.57864  -0.00003   0.00000  -0.00003  -0.00003  -2.57867
    X6        3.23934  -0.00003   0.00000  -0.00003  -0.00003   3.23931
    Y6        0.22850  -0.00003   0.00000  -0.00003  -0.00003   0.22847
    Z6        0.69362   0.00001   0.00000   0.00001   0.00001   0.69364
    X7        5.09592  -0.00003   0.00000  -0.00003  -0.00003   5.09589
    Y7       -0.22198   0.00004   0.00000   0.00004   0.00004  -0.22195
    Z7        0.64661  -0.00001   0.00000  -0.00001  -0.00001   0.64660
    X8        2.71535   0.00002   0.00000   0.00002   0.00002   2.71537
    Y8        1.94729  -0.00005   0.00000  -0.00005  -0.00005   1.94724
    Z8        1.34807  -0.00004   0.00000  -0.00004  -0.00004   1.34803
    X9       -1.68251  -0.00001   0.00000  -0.00001  -0.00001  -1.68252
    Y9        1.61622  -0.00006   0.00000  -0.00006  -0.00006   1.61616
    Z9       -1.71815   0.00003   0.00000   0.00003   0.00003  -1.71812
   X10       -3.96073  -0.00005   0.00000  -0.00005  -0.00005  -3.96078
   Y10       -0.28715  -0.00000   0.00000  -0.00000  -0.00000  -0.28716
   Z10        1.79246   0.00003   0.00000   0.00003   0.00003   1.79249
         Item               Value     Threshold  Converged?
 Maximum Force            0.000088     0.000450     YES
 RMS     Force            0.000037     0.000300     YES
 Maximum Displacement     0.000088     0.001800     YES
 RMS     Displacement     0.000037     0.001200     YES
 Predicted change in Energy=-2.018981D-08
 Optimization completed.
    -- Stationary point found.
 Largest change from initial coordinates is atom    7       0.400 Angstoms.
 GradGradGradGradGradGradGradGradGradGradGradGradGradGradGradGradGradGrad

 Leave Link  103 at Sun Nov 26 11:20:21 2023, MaxMem=   134217728 cpu:               0.0 elap:               0.0
 (Enter /home/emanuele/chem_software/gaussian//gdv/l202.exe)
                          Input orientation:                          
 ---------------------------------------------------------------------
 Center     Atomic      Atomic             Coordinates (Angstroms)
 Number     Number       Type             X           Y           Z
 ---------------------------------------------------------------------
      1          6    20001002       -0.666540   -0.125817   -0.250844
      2          8    20001022       -1.131917   -0.185067    1.015792
      3          6    20001001        0.728997   -0.733581   -0.291869
      4          1    20001034        0.596344   -1.726657    0.154523
      5          1    20001034        0.893685   -0.889691   -1.364558
      6          7    20001020        1.714184    0.120919    0.367050
      7          1    20001029        2.696644   -0.117469    0.342170
      8          1    20001029        1.436904    1.030462    0.713367
      9          8    20001025       -0.890346    0.855266   -0.909207
     10          1    20001031       -2.095928   -0.151954    0.948527
 ---------------------------------------------------------------------
                    Distance matrix (angstroms):
                    1          2          3          4          5
     1  C    0.000000
     2  O    1.350723   0.000000
     3  C    1.522690   2.339625   0.000000
     4  H    2.078915   2.470864   1.096842   0.000000
     5  H    2.063533   3.204001   1.096428   1.759696   0.000000
     6  N    2.471946   2.935095   1.461142   2.169854   2.166337
     7  H    3.415076   3.887957   2.157136   2.652538   2.599982
     8  H    2.586728   2.857938   2.150228   2.936078   2.880945
     9  O    1.202520   2.201424   2.351130   3.163557   2.536727
    10  H    1.866099   0.966922   3.139598   3.218456   3.851287
                    6          7          8          9         10
     6  N    0.000000
     7  H    1.011274   0.000000
     8  H    1.011973   1.744270   0.000000
     9  O    2.991935   3.921562   2.842451   0.000000
    10  H    3.863875   4.830901   3.732869   2.432919   0.000000
 Symmetry turned off by external request.
 Stoichiometry    C2H5NO2
 Framework group  C1[X(C2H5NO2)]
 Deg. of freedom    24
 Full point group                 C1      NOp   1
 Rotational constants (GHZ):           8.5763529           4.2165444           3.4979016
 Leave Link  202 at Sun Nov 26 11:20:21 2023, MaxMem=   134217728 cpu:               0.0 elap:               0.0
 (Enter /home/emanuele/chem_software/gaussian//gdv/l9999.exe)
 Unable to Open any file for archive entry.
 1\1\GINC-EMANUELE-XPS-13-9343\FOpt\AMBER\ZDO\C2H5N1O2\EMANUELE\26-Nov-
 2023\0\\#p Amber=(SoftFirst,Print) geom=nocrowd nosymm opt=(maxcycle=3
 00)\\Title\\0,1\C,-0.6665403184,-0.1258167451,-0.2508436788\O,-1.13191
 69184,-0.1850666887,1.0157920814\C,0.7289966343,-0.7335810822,-0.29186
 85885\H,0.5963437847,-1.7266567149,0.1545232298\H,0.8936851353,-0.8896
 907576,-1.3645580305\N,1.7141838386,0.1209185744,0.3670496789\H,2.6966
 436622,-0.1174686528,0.3421701614\H,1.436903509,1.0304623633,0.7133668
 487\O,-0.8903459667,0.8552657211,-0.9092069264\H,-2.0959283607,-0.1519
 540175,0.9485272239\\Version=ES64L-GDVRevJ.14\HF=0.0470515\RMSD=0.000e
 +00\RMSF=3.669e-05\Dipole=0.1154855,-0.7939494,0.045767\PG=C01 [X(C2H5
 N1O2)]\\@
 The archive entry for this job was punched.


 ALTHOUGH J.J. COULD DIAGNOSE THE FAULTS OF AN
 APPARATUS WITH UNCANNY ACCURACY, IT WAS JUST AS
 WELL NOT TO LET HIM HANDLE IT.
   -- GEORGE THOMPSON, ABOUT HIS FATHER
 Job cpu time:       0 days  0 hours  0 minutes  1.0 seconds.
 Elapsed time:       0 days  0 hours  0 minutes  1.0 seconds.
 File lengths (MBytes):  RWF=      6 Int=      0 D2E=      0 Chk=      1 Scr=      1
 Normal termination of Gaussian DV at Sun Nov 26 11:20:21 2023.
