 Entering Gaussian System, Link 0=/home/emanuele/chem_software/gaussian//g09/g09
 Input=2_zmat_mm_0.gjf
 Output=2_zmat_mm_0.log
 Initial command:
 /home/emanuele/chem_software/gaussian//gdv/l1.exe "/home/emanuele/chem_software/gaussian/scratch/Gau-6278.inp" -scrdir="/home/emanuele/chem_software/gaussian/scratch/"
 Entering Link 1 = /home/emanuele/chem_software/gaussian//gdv/l1.exe PID=      6280.
  
 Copyright (c) 1988-2020, Gaussian, Inc.  All Rights Reserved.
  
 This is the private, development version of
 the Gaussian(R) DV system of programs. It is based on
 the Gaussian(R) 16 system (copyright 2016, Gaussian, Inc.),
 the Gaussian(R) 09 system (copyright 2009, Gaussian, Inc.),
 the Gaussian(R) 03 system (copyright 2003, Gaussian, Inc.),
 the Gaussian(R) 98 system (copyright 1998, Gaussian, Inc.),
 the Gaussian(R) 94 system (copyright 1995, Gaussian, Inc.),
 the Gaussian 92(TM) system (copyright 1992, Gaussian, Inc.),
 the Gaussian 90(TM) system (copyright 1990, Gaussian, Inc.),
 the Gaussian 88(TM) system (copyright 1988, Gaussian, Inc.),
 the Gaussian 86(TM) system (copyright 1986, Carnegie Mellon
 University), and the Gaussian 82(TM) system (copyright 1983,
 Carnegie Mellon University). Gaussian is a federally registered
 trademark of Gaussian, Inc.
  
 This software contains proprietary and confidential information,
 including trade secrets, belonging to Gaussian, Inc.
  
 This software is provided under written license and may be
 used, copied, transmitted, or stored only in accord with that
 written license.
  
 The following legend is applicable only to US Government
 contracts under FAR:
  
                    RESTRICTED RIGHTS LEGEND
  
 Use, reproduction and disclosure by the US Government is
 subject to restrictions as set forth in subparagraphs (a)
 and (c) of the Commercial Computer Software - Restricted
 Rights clause in FAR 52.227-19.
  
 Gaussian, Inc.
 340 Quinnipiac St., Bldg. 40, Wallingford CT 06492
  
  
 ---------------------------------------------------------------
 Warning -- This program may not be used in any manner that
 competes with the business of Gaussian, Inc. or will provide
 assistance to any competitor of Gaussian, Inc.  The licensee
 of this program is prohibited from giving any competitor of
 Gaussian, Inc. access to this program.  By using this program,
 the user acknowledges that Gaussian, Inc. is engaged in the
 business of creating and licensing software in the field of
 computational chemistry and represents and warrants to the
 licensee that it is not a competitor of Gaussian, Inc. and that
 it will not use this program in any manner prohibited above.
 ---------------------------------------------------------------
  

 Cite this work as:
 Gaussian Development Version, Revision J.14,
 M. J. Frisch, G. W. Trucks, H. B. Schlegel, G. E. Scuseria, 
 M. A. Robb, J. R. Cheeseman, G. Scalmani, V. Barone, 
 G. A. Petersson, H. Nakatsuji, X. Li, A. V. Marenich, M. Caricato, 
 J. Bloino, B. G. Janesko, J. Zheng, R. Gomperts, B. Mennucci, 
 H. P. Hratchian, J. V. Ortiz, A. F. Izmaylov, J. L. Sonnenberg, 
 D. Williams-Young, F. Ding, F. Lipparini, F. Egidi, J. Goings, 
 B. Peng, A. Petrone, T. Henderson, D. Ranasinghe, V. G. Zakrzewski, 
 J. Gao, N. Rega, G. Zheng, W. Liang, M. Hada, M. Ehara, K. Toyota, 
 R. Fukuda, J. Hasegawa, M. Ishida, T. Nakajima, Y. Honda, O. Kitao, 
 H. Nakai, T. Vreven, K. Throssell, J. A. Montgomery, Jr., 
 J. E. Peralta, F. Ogliaro, M. J. Bearpark, J. J. Heyd, 
 E. N. Brothers, K. N. Kudin, V. N. Staroverov, T. A. Keith, 
 R. Kobayashi, J. Normand, K. Raghavachari, A. P. Rendell, 
 J. C. Burant, S. S. Iyengar, J. Tomasi, M. Cossi, J. M. Millam, 
 M. Klene, C. Adamo, R. Cammi, J. W. Ochterski, R. L. Martin, 
 K. Morokuma, O. Farkas, J. B. Foresman, and D. J. Fox, 
 Gaussian, Inc., Wallingford CT, 2020.
 
 ******************************************
 Gaussian DV:  ES64L-GDVRevJ.14 29-Dec-2020
                26-Nov-2023 
 ******************************************
 %mem=1GB
 %nprocshared=1
 Will use up to    1 processors via shared memory.
 %chk=2_zmat_mm_0.chk
 -----------------------------------------------------------------
 #p Amber=(SoftFirst,Print) geom=nocrowd nosymm opt=(maxcycle=300)
 -----------------------------------------------------------------
 1/6=300,10=10,18=4000020,19=15,37=210000000,38=1,56=2,64=203/1,3;
 2/9=110,12=1,15=1,40=1/2;
 3/5=30,11=9,25=1,30=1,41=10030000,43=2,71=1/1;
 4/20=11,22=1001,24=3,119=11/2;
 7/30=1,44=-1/16;
 1/6=300,10=10,18=4000020,19=15,64=203/3(2);
 2/9=110,12=1,15=1/2;
 99//99;
 2/9=110,12=1,15=1/2;
 3/5=30,11=9,25=1,30=1,41=10030000,43=2,71=1/1;
 4/16=2,20=11,22=1001,24=3,119=11/2;
 7/30=1,44=-1/16;
 1/6=300,10=10,18=4000020,19=15,64=203/3(-4);
 2/9=110,12=1,15=1/2;
 99/9=10/99;
 Leave Link    1 at Sun Nov 26 11:20:18 2023, MaxMem=   134217728 cpu:               0.0 elap:               0.0
 (Enter /home/emanuele/chem_software/gaussian//gdv/l101.exe)
 -----
 Title
 -----
 Symbolic Z-matrix:
 Charge =  0 Multiplicity = 1
 C-C-+0.299289        -0.47288   0.15138  -0.06333 
 O-OH--0.289770       -1.60637  -0.61986   0.10336 
 C-CT--0.035454        0.73255  -0.76533  -0.14612 
 H-HC-+0.090426        0.74054  -1.38889   0.78407 
 H-HC-+0.095387        0.61593  -1.48865  -0.99246 
 N-N3--0.336253        2.01214  -0.08148   0.13041 
 H-H-+0.142619         2.2496    0.56714  -0.61897 
 H-H-+0.128282         1.9566    0.45954   0.99353 
 O-O2--0.308037       -0.52996   1.32574   0.21178 
 H-HO-+0.213510       -2.41614  -0.08317   0.32268 
 
 ITRead=  3  3  3  3  3  3  3  3  3  3
 MicOpt=  0  0  0  0  0  0  0  0  0  0
 NAtoms=     10 NQM=        0 NQMF=       0 NMMI=      0 NMMIF=      0
                NMic=      10 NMicF=      0.
                    Isotopes and Nuclear Properties:
 (Nuclear quadrupole moments (NQMom) in fm**2, nuclear magnetic moments (NMagM)
  in nuclear magnetons)

  Atom         1           2           3           4           5           6           7           8           9          10
 IAtWgt=          12          16          12           1           1          14           1           1          16           1
 AtmWgt=  12.0000000  15.9949146  12.0000000   1.0078250   1.0078250  14.0030740   1.0078250   1.0078250  15.9949146   1.0078250
 NucSpn=           0           0           0           1           1           2           1           1           0           1
 AtZEff=  -0.0000000  -0.0000000  -0.0000000  -0.0000000  -0.0000000  -0.0000000  -0.0000000  -0.0000000  -0.0000000  -0.0000000
 NQMom=    0.0000000   0.0000000   0.0000000   0.0000000   0.0000000   2.0440000   0.0000000   0.0000000   0.0000000   0.0000000
 NMagM=    0.0000000   0.0000000   0.0000000   2.7928460   2.7928460   0.4037610   2.7928460   2.7928460   0.0000000   2.7928460
 AtZNuc=   6.0000000   8.0000000   6.0000000   1.0000000   1.0000000   7.0000000   1.0000000   1.0000000   8.0000000   1.0000000
 Generating MM parameters.
 I=    1 IAn=  6 Valence= 5.
          JB=  1 J=    2 IAn=  8 IBT=12 Dist= 1.38D+00
          JB=  2 J=    3 IAn=  6 IBT= 1 Dist= 1.52D+00
          JB=  3 J=    9 IAn=  8 IBT= 2 Dist= 1.21D+00
 I=    2 IAn=  8 Valence= 3.
          JB=  1 J=    1 IAn=  6 IBT=12 Dist= 1.38D+00
          JB=  2 J=   10 IAn=  1 IBT= 1 Dist= 9.96D-01
 Read MM parameter file:
 Include all MM classes

 MM sanity checks:
 All charges sum to:               -0.00000100
 Charges of atoms sum to:          -0.00000100
 WARNING -- The following centers have non-zero partial charges, but zero Vanderwaals
 parameters.  These centers can collapse onto other centers with non-zero charge.
   Center  Layer   Charge
     10 H    R    0.213510
 MMInit generated parameter data with length LenPar=        2069.
 MM Charge=             -0.0000 electrons
 MM Dipole moment (Debye):
    X=             -0.1618    Y=             -1.3182    Z=             -0.3291  Tot=              1.3682
 MM Quadrupole moment (Debye-Ang):
   XX=              1.9084   YY=             -1.0020   ZZ=              1.5892
   XY=              0.6783   XZ=             -0.5489   YZ=             -0.1247
 MM Traceless Quadrupole moment (Debye-Ang):
   XX=              1.0765   YY=             -1.8339   ZZ=              0.7573
   XY=              0.6783   XZ=             -0.5489   YZ=             -0.1247
 MM Octapole moment (Debye-Ang**2):
  XXX=             -9.1542  YYY=             -5.5248  ZZZ=              0.2188  XYY=              4.1059
  XXY=              4.2893  XXZ=              0.8249  XZZ=              1.9965  YZZ=             -0.6961
  YYZ=             -0.9505  XYZ=              0.2466
 MM Hexadecapole moment (Debye-Ang**3):
 XXXX=             25.8842 YYYY=             -0.8691 ZZZZ=              1.3170 XXXY=              5.1587
 XXXZ=             -5.9307 YYYX=             -0.0433 YYYZ=             -0.1377 ZZZX=              0.6161
 ZZZY=              0.5408 XXYY=              0.2994 XXZZ=              4.4287 YYZZ=              1.6042
 XXYZ=             -0.1337 YYXZ=              0.1959 ZZXY=              0.2527
 Leave Link  101 at Sun Nov 26 11:20:18 2023, MaxMem=   134217728 cpu:               0.3 elap:               0.3
 (Enter /home/emanuele/chem_software/gaussian//gdv/l103.exe)

 GradGradGradGradGradGradGradGradGradGradGradGradGradGradGradGradGradGrad
 Berny optimization.
 Initialization pass.
 No Z-matrix variables, so optimization will use Cartesian coordinates.
 Trust Radius=1.00D-01 FncErr=1.00D-07 GrdErr=1.00D-07 EigMax=2.50D+02 EigMin=1.00D-04
 Number of steps in this run=      2 maximum allowed number of steps=      2.
 GradGradGradGradGradGradGradGradGradGradGradGradGradGradGradGradGradGrad

 Leave Link  103 at Sun Nov 26 11:20:18 2023, MaxMem=   134217728 cpu:               0.0 elap:               0.0
 (Enter /home/emanuele/chem_software/gaussian//gdv/l202.exe)
                          Input orientation:                          
 ---------------------------------------------------------------------
 Center     Atomic      Atomic             Coordinates (Angstroms)
 Number     Number       Type             X           Y           Z
 ---------------------------------------------------------------------
      1          6    20001002       -0.472878    0.151375   -0.063330
      2          8    20001022       -1.606368   -0.619859    0.103361
      3          6    20001001        0.732551   -0.765327   -0.146120
      4          1    20001034        0.740544   -1.388891    0.784073
      5          1    20001034        0.615930   -1.488650   -0.992461
      6          7    20001020        2.012138   -0.081477    0.130407
      7          1    20001029        2.249599    0.567137   -0.618971
      8          1    20001029        1.956604    0.459539    0.993526
      9          8    20001025       -0.529956    1.325740    0.211784
     10          1    20001031       -2.416138   -0.083174    0.322683
 ---------------------------------------------------------------------
                    Distance matrix (angstroms):
                    1          2          3          4          5
     1  C    0.000000
     2  O    1.381082   0.000000
     3  C    1.516659   2.356681   0.000000
     4  H    2.136096   2.561791   1.119891   0.000000
     5  H    2.176803   2.625687   1.119415   1.783691   0.000000
     6  N    2.503409   3.658439   1.476977   1.937411   2.278237
     7  H    2.809533   4.098683   2.073761   2.841096   2.652288
     8  H    2.667263   3.827827   2.073016   2.222468   3.088202
     9  O    1.207509   2.226157   2.468720   3.051378   3.268647
    10  H    1.995064   0.995922   3.255665   3.447088   3.591435
                    6          7          8          9         10
     6  N    0.000000
     7  H    1.019144   0.000000
     8  H    1.020175   1.642428   0.000000
     9  O    2.906738   2.998593   2.746708   0.000000
    10  H    4.432449   4.804031   4.457066   2.356909   0.000000
 Symmetry turned off by external request.
 Stoichiometry    C2H5NO2
 Framework group  C1[X(C2H5NO2)]
 Deg. of freedom    24
 Full point group                 C1      NOp   1
 Rotational constants (GHZ):          10.0548961           3.8489454           2.8991752
 Leave Link  202 at Sun Nov 26 11:20:18 2023, MaxMem=   134217728 cpu:               0.0 elap:               0.0
 (Enter /home/emanuele/chem_software/gaussian//gdv/l301.exe)
 Standard basis: Dummy (5D, 7F)
    10 basis functions,    10 primitive gaussians,    10 cartesian basis functions
     7 alpha electrons        7 beta electrons
       nuclear repulsion energy        22.5806441160 Hartrees.
 IExCor=       0 DFT=F Ex=HF Corr=None N6=None ScaHFX=  1.000000
 ScaDFX=  1.000000  1.000000  1.000000  1.000000  1.000000  0.000000
 ScaDFX=  0.000000  0.000000  0.000000  0.000000  0.000000  0.000000
 IRadAn=      5 IRanWt=     -1 IRanGd=            0 ICorTp=0 IEmpDi=  4
 NAtoms=   10 NActive=   10 NUniq=   10 SFac= 1.00D+00 NAtFMM=   60 NAOKFM=F Big=F
 Integral buffers will be    131072 words long.
 Raffenetti 1 integral format.
 Two-electron integral symmetry is turned off.
 Leave Link  301 at Sun Nov 26 11:20:18 2023, MaxMem=   134217728 cpu:               0.1 elap:               0.0
 (Enter /home/emanuele/chem_software/gaussian//gdv/l402.exe)
 AMBER calculation of energy and first derivatives.
 NRF= 0 NRA=   0 NVA=  10 HaveQM=F NVQ=       0
 Convergence limit is  0.750E-04 MaxStp= 10000 StMxLn= 3.00D-04 StpMin= 1.00D-06.
 Convergence criteria             0.00011250 0.00007500 0.00045000 0.00030000
  Step  NS  ND Rises OKQ   Scale  Max. Force  RMS Force Max. Disp.  RMS Disp.     Energy   Flag
     1   0   0   F    T  1.00D+00 0.04543625 0.01468926 0.04543625 0.01468926    0.1017353 ----
     2   0   0   F    F  6.96D-01 0.04543625 0.01468926 0.03160963 0.01021920    0.0971883 ----
     3   0   0   F    T  2.12D+00 0.01972688 0.00977511 0.05158007 0.02490846    0.0962747 ----
     4   0   0   F    F  9.39D-01 0.01972688 0.00977511 0.04842935 0.02338695    0.0917831 ----
     5   0   0   F    T  2.66D+00 0.02669879 0.01074434 0.10146806 0.04829541    0.0904234 ----
     6   0   0   F    F -3.37D-01 0.02669879 0.01074434 0.03424024 0.01629721    0.0881720 ----
     7   0   0   F    T  1.87D+00 0.02930708 0.00971996 0.07735872 0.03199820    0.0873122 ----
     8   0   0   F    F -2.07D-01 0.02930708 0.00971996 0.01604587 0.00663712    0.0853417 ----
     9   0   0   F    T  1.33D+00 0.02308238 0.00984130 0.06906695 0.02536108    0.0851943 ----
    10   0   0   F    F  1.02D+00 0.02308238 0.00984130 0.07021431 0.02578239    0.0822773 ----
    11   0   0   F    F -3.36D-02 0.02308238 0.00984130 0.00235927 0.00086631    0.0812992 ----
    12   0   0   F    T  3.77D+00 0.01481525 0.00798068 0.12908718 0.05027716    0.0812980 ----
    13   0   0   F    F -4.79D-01 0.01481525 0.00798068 0.06184790 0.02408866    0.0811494 ----
    14   0   0   F    T  3.21D+00 0.01452877 0.00572146 0.05939352 0.02618850    0.0793803 ----
    15   0   0   F    F -2.78D-01 0.01452877 0.00572146 0.01651516 0.00728206    0.0784173 ----
    16   0   0   F    T  1.22D+00 0.02502707 0.00743117 0.04483649 0.01890644    0.0782553 ----
    17   0   0   F    F  3.87D-01 0.02502707 0.00743117 0.01734503 0.00731397    0.0769491 ----
    18   0   0   F    T  2.36D+00 0.01260972 0.00574780 0.06547478 0.02622041    0.0768370 ----
    19   0   0   F    F -2.25D-01 0.01260972 0.00574780 0.01473304 0.00590008    0.0760000 ----
    20   0   0   F    T  3.18D+00 0.00821418 0.00409024 0.04822100 0.02032033    0.0759205 ----
    21   0   0   F    F -1.79D-01 0.00821418 0.00409024 0.00862555 0.00363481    0.0752980 ----
    22   0   0   F    T  3.44D+00 0.00916772 0.00311795 0.04357770 0.01668552    0.0752672 ----
    23   0   0   T    F  3.62D-01 0.00916772 0.00311795 0.01577750 0.00604107    0.0756425 ----
    24   0   0   F    T  1.50D+00 0.00851250 0.00250284 0.01322802 0.00604107    0.0750858 ----
    25   0   0   F    F  2.56D-01 0.00851250 0.00250284 0.00338517 0.00154596    0.0749162 ----
    26   0   0   F    T  2.13D+00 0.00534890 0.00210125 0.02009396 0.00758703    0.0749089 ----
    27   0   0   F    F  8.80D-02 0.00534890 0.00210125 0.00176861 0.00066779    0.0747560 ----
    28   0   0   F    T  4.60D+00 0.00258410 0.00125754 0.02416060 0.00825482    0.0747550 ----
    29   0   0   T    F  4.44D-01 0.00258410 0.00125754 0.01073390 0.00366739    0.0747827 ----
    30   0   0   F    T  1.51D+00 0.00462981 0.00133617 0.01045233 0.00366739    0.0747064 ----
    31   0   0   F    F  2.94D-02 0.00462981 0.00133617 0.00030746 0.00010788    0.0746648 --++
    32   0   0   F    T  1.81D+00 0.00338718 0.00113724 0.00972894 0.00377527    0.0746648 ----
    33   0   0   F    F -5.27D-02 0.00338718 0.00113724 0.00051308 0.00019910    0.0746316 ---+
    34   0   0   F    T  5.77D+00 0.00119923 0.00048555 0.00826275 0.00357617    0.0746315 ----
    35   0   0   F    F -3.92D-01 0.00119923 0.00048555 0.00323877 0.00140176    0.0746242 ----
    36   0   0   F    T  1.55D+00 0.00226613 0.00068199 0.00552939 0.00217441    0.0746191 ----
    37   0   0   F    F -8.94D-02 0.00226613 0.00068199 0.00049450 0.00019446    0.0746093 ---+
    38   0   0   F    T  1.84D+00 0.00136548 0.00055422 0.00532076 0.00197995    0.0746092 ----
    39   0   0   F    T  3.31D+00 0.00078704 0.00037959 0.00464618 0.00197995    0.0746003 ----
    40   0   0   F    F  3.10D-01 0.00078704 0.00037959 0.00143880 0.00061314    0.0745911 ----
    41   0   0   F    T  2.37D+00 0.00097485 0.00047289 0.00616464 0.00259308    0.0745905 ----
    42   0   0   F    F -2.91D-01 0.00097485 0.00047289 0.00179546 0.00075524    0.0745858 ----
    43   0   0   F    T  1.70D+00 0.00132055 0.00045570 0.00559160 0.00183784    0.0745849 ----
    44   0   0   F    T  1.69D+00 0.00096345 0.00044431 0.00580578 0.00183784    0.0745794 ----
    45   0   0   F    F  1.50D+00 0.00096345 0.00044431 0.00872568 0.00276215    0.0745710 ----
    46   0   0   F    T  2.70D+00 0.00106329 0.00051834 0.01622341 0.00459999    0.0745663 ----
    47   0   0   F    F  6.48D-01 0.00106329 0.00051834 0.01050480 0.00297854    0.0745511 ----
    48   0   0   F    T  1.12D+00 0.00386235 0.00103634 0.02612219 0.00757853    0.0745482 ----
    49   0   0   F    F  1.40D+00 0.00386235 0.00103634 0.03646280 0.01057853    0.0745202 ----
    50   0   0   F    F -1.29D-02 0.00386235 0.00103634 0.00046961 0.00013624    0.0745065 ---+
    51   0   0   F    T  1.82D+00 0.00274856 0.00126029 0.06357244 0.01802082    0.0745065 ----
    52   0   0   F    T  2.40D+00 0.00319468 0.00112563 0.06059548 0.01802082    0.0744609 ----
    53   0   0   F    F  1.81D+00 0.00319468 0.00112563 0.10957680 0.03258765    0.0743882 ----
    54   0   0   F    F -2.03D-01 0.00319468 0.00112563 0.02221745 0.00660737    0.0743503 ----
    55   0   0   F    F -2.43D-02 0.00319468 0.00112563 0.00053958 0.00016047    0.0743474 ---+
    56   0   0   F    T  1.54D+00 0.00770089 0.00232755 0.14910440 0.04416157    0.0743474 ----
    57   0   0   F    F -1.65D-01 0.00770089 0.00232755 0.02459527 0.00728460    0.0742325 ----
    58   0   0   F    T  1.39D+00 0.00715246 0.00285817 0.11868362 0.03687697    0.0742259 ----
    59   0   0   F    F  1.20D+00 0.00715246 0.00285817 0.14291580 0.04440631    0.0739544 ----
    60   0   0   F    F -2.46D-01 0.00715246 0.00285817 0.03510130 0.01090656    0.0738681 ----
    61   0   0   F    F -1.14D-02 0.00715246 0.00285817 0.00039891 0.00012395    0.0738548 --++
    62   0   0   F    T  2.28D+00 0.00991509 0.00421980 0.21319567 0.07050067    0.0738548 ----
    63   0   0   F    F  8.16D-01 0.00991509 0.00421980 0.17390529 0.05750792    0.0730459 ----
    64   0   0   F    F -4.35D-01 0.00991509 0.00421980 0.07561283 0.02500405    0.0730215 ----
    65   0   0   F    T  1.74D+00 0.01827516 0.00637658 0.31967079 0.10300455    0.0729351 ----
    66   0   0   F    F -3.78D-01 0.01827516 0.00637658 0.12072205 0.03889915    0.0725895 ----
    67   0   0   F    F -8.67D-03 0.01827516 0.00637658 0.00104609 0.00033707    0.0721894 ----
    68   0   0   F    T  1.67D+00 0.01703732 0.00688283 0.18154766 0.06444247    0.0721894 ----
    69   0   0   F    F  5.21D+00 0.01703732 0.00688283 0.94512391 0.33548282    0.0704298 ----
    70   0   0   T    F  2.47D-01 0.01703732 0.00688283 0.23309980 0.08274151    0.1030219 ----
    71   0   0   F    F -6.28D-02 0.01703732 0.00688283 0.01463225 0.00519389    0.0695887 ----
    72   0   0   F    F -6.84D-02 0.01703732 0.00688283 0.00100040 0.00035510    0.0695844 ----
    73   0   0   F    T  3.76D+00 0.01519372 0.00853813 0.35897100 0.14234520    0.0695844 ----
    74   0   0   F    F -3.87D-01 0.01519372 0.00853813 0.13874864 0.05501894    0.0681898 ----
    75   0   0   F    F -1.51D-02 0.01519372 0.00853813 0.00209121 0.00082924    0.0669486 ----
    76   0   0   F    T  1.73D+00 0.02296647 0.01034552 0.23631859 0.08815550    0.0669484 ----
    77   0   0   F    F  4.80D-02 0.02296647 0.01034552 0.01134464 0.00423197    0.0638019 ----
    78   0   0   F    F -2.93D-02 0.02296647 0.01034552 0.00033222 0.00012393    0.0637944 --++
    79   0   0   F    T  1.46D+00 0.03087607 0.01284678 0.24445159 0.09226354    0.0637944 ----
    80   0   0   F    F  3.11D-01 0.03087607 0.01284678 0.07592514 0.02865648    0.0594120 ----
    81   0   0   F    F -1.01D-01 0.03087607 0.01284678 0.00766719 0.00289383    0.0591857 ----
    82   0   0   F    T  7.75D+00 0.01746857 0.00874345 0.33193533 0.11802619    0.0591827 ----
    83   0   0   T    F  3.65D-01 0.01746857 0.00874345 0.12127363 0.04312124    0.0642938 ----
    84   0   0   F    T  2.08D+00 0.02096687 0.00922557 0.12266454 0.04312124    0.0560112 ----
    85   0   0   F    F -1.17D-01 0.02096687 0.00922557 0.01430241 0.00502784    0.0536978 ----
    86   0   0   F    T  1.81D+00 0.02381131 0.00857315 0.10309546 0.03809340    0.0536565 ----
    87   0   0   F    F -3.66D-01 0.02381131 0.00857315 0.03769946 0.01392982    0.0528073 ----
    88   0   0   F    T  2.64D+00 0.01407397 0.00514422 0.05230771 0.02416359    0.0523916 ----
    89   0   0   F    F -1.91D-01 0.01407397 0.00514422 0.01001340 0.00462570    0.0515942 ----
    90   0   0   F    T  2.39D+00 0.00973992 0.00444945 0.05507671 0.01953789    0.0515472 ----
    91   0   0   F    F  1.40D-01 0.00973992 0.00444945 0.00770342 0.00273271    0.0507440 ----
    92   0   0   F    T  1.59D+00 0.01892370 0.00556968 0.06256180 0.02227060    0.0507315 ----
    93   0   0   F    F -3.45D-01 0.01892370 0.00556968 0.02161451 0.00769428    0.0503820 ----
    94   0   0   F    T  2.39D+00 0.00841047 0.00347799 0.03528042 0.01457632    0.0502442 ----
    95   0   0   F    F  2.20D-01 0.00841047 0.00347799 0.00774433 0.00319961    0.0497399 ----
    96   0   0   F    T  1.86D+00 0.01420917 0.00411785 0.05028215 0.01777593    0.0497235 ----
    97   0   0   F    F  2.41D-01 0.01420917 0.00411785 0.01210692 0.00428008    0.0491472 ----
    98   0   0   F    T  1.90D+00 0.01027271 0.00431846 0.05392702 0.02205602    0.0491239 ----
    99   0   0   F    F -3.69D-01 0.01027271 0.00431846 0.01989308 0.00813622    0.0489038 ----
   100   0   0   F    T  1.59D+00 0.00876916 0.00370934 0.03688348 0.01391980    0.0487868 ----
   101   0   0   F    F  7.28D-01 0.00876916 0.00370934 0.02683370 0.01012702    0.0483374 ----
   102   0   0   F    T  2.59D+00 0.00906397 0.00346221 0.05562694 0.02404681    0.0482481 ----
   103   0   0   F    F -3.38D-01 0.00906397 0.00346221 0.01881359 0.00813287    0.0480216 ----
   104   0   0   F    T  2.95D+00 0.00752655 0.00241648 0.03546565 0.01591394    0.0479351 ----
   105   0   0   T    F  3.11D-01 0.00752655 0.00241648 0.01102646 0.00494773    0.0482511 ----
   106   0   0   F    T  1.61D+00 0.00419345 0.00169561 0.01199144 0.00494773    0.0478547 ----
   107   0   0   F    F  1.32D+00 0.00419345 0.00169561 0.01581345 0.00652470    0.0477458 ----
   108   0   0   F    T  2.10D+00 0.00716211 0.00216414 0.02683476 0.01147243    0.0476940 ----
   109   0   0   F    F -2.38D-01 0.00716211 0.00216414 0.00638717 0.00273065    0.0475924 ----
   110   0   0   F    T  1.77D+00 0.00655086 0.00197373 0.02009578 0.00874178    0.0475813 ----
   111   0   0   F    F -4.03D-01 0.00655086 0.00197373 0.00809899 0.00352311    0.0475475 ----
   112   0   0   F    T  2.96D+00 0.00357377 0.00105647 0.01141813 0.00521867    0.0475195 ----
   113   0   0   F    F -5.00D-01 0.00357377 0.00105647 0.00570880 0.00260921    0.0475194 ----
   114   0   0   F    T  2.32D+00 0.00128250 0.00073089 0.00591617 0.00260946    0.0474947 ----
   115   0   0   F    F -1.17D-01 0.00128250 0.00073089 0.00069452 0.00030633    0.0474786 ----
   116   0   0   F    T  1.16D+00 0.00311033 0.00091630 0.00519617 0.00230313    0.0474783 ----
   117   0   0   F    F  1.19D-01 0.00311033 0.00091630 0.00061839 0.00027409    0.0474622 ---+
   118   0   0   F    T  2.69D+00 0.00116678 0.00056973 0.00719644 0.00257722    0.0474620 ----
   119   0   0   F    F -1.10D-01 0.00116678 0.00056973 0.00079116 0.00028333    0.0474505 ---+
   120   0   0   F    T  1.90D+00 0.00159054 0.00059704 0.00748893 0.00229389    0.0474503 ----
   121   0   0   F    F -1.39D-01 0.00159054 0.00059704 0.00104469 0.00031999    0.0474418 ----
   122   0   0   F    T  1.00D+00 0.00207848 0.00073969 0.00696098 0.00199509    0.0474416 ----
   123   0   0   F    F  1.95D+00 0.00207848 0.00073969 0.01360519 0.00389938    0.0474280 ----
   124   0   0   F    T  2.55D+00 0.00203749 0.00076298 0.02073873 0.00589447    0.0474176 ----
   125   0   0   F    F -3.05D-01 0.00203749 0.00076298 0.00632602 0.00179801    0.0474051 ----
   126   0   0   F    T  2.21D+00 0.00205585 0.00066011 0.01350776 0.00409646    0.0474021 ----
   127   0   0   F    F -3.86D-01 0.00205585 0.00066011 0.00521510 0.00158157    0.0473967 ----
   128   0   0   F    T  1.20D+00 0.00184427 0.00068561 0.00788440 0.00251489    0.0473932 ----
   129   0   0   F    F  1.76D+00 0.00184427 0.00068561 0.01391236 0.00443763    0.0473793 ----
   130   0   0   F    T  1.71D+00 0.00215981 0.00094936 0.02248896 0.00695252    0.0473697 ----
   131   0   0   F    F  5.58D-01 0.00215981 0.00094936 0.01255995 0.00388294    0.0473378 ----
   132   0   0   F    T  2.00D+00 0.00328813 0.00111650 0.03446624 0.01083546    0.0473331 ----
   133   0   0   F    F -4.48D-01 0.00328813 0.00111650 0.01543399 0.00485212    0.0473263 ----
   134   0   0   F    T  1.75D+00 0.00184277 0.00091266 0.01804548 0.00598334    0.0473124 ----
   135   0   0   F    F  8.58D-01 0.00184277 0.00091266 0.01549155 0.00513653    0.0472809 ----
   136   0   0   F    T  2.85D+00 0.00282291 0.00094604 0.03492724 0.01111987    0.0472728 ----
   137   0   0   F    F -4.73D-01 0.00282291 0.00094604 0.01653430 0.00526407    0.0472691 ----
   138   0   0   F    T  2.79D+00 0.00212654 0.00067052 0.01862347 0.00585581    0.0472528 ----
   139   0   0   F    F -4.00D-01 0.00212654 0.00067052 0.00745620 0.00234446    0.0472465 ----
   140   0   0   F    T  1.00D+00 0.00199152 0.00085235 0.01091922 0.00351134    0.0472415 ----
   141   0   0   F    F  2.68D+00 0.00199152 0.00085235 0.02928538 0.00941743    0.0472227 ----
   142   0   0   F    F -3.77D-02 0.00199152 0.00085235 0.00110516 0.00035539    0.0472020 ----
   143   0   0   F    T  5.24D+00 0.00181864 0.00069227 0.03763672 0.01257338    0.0472019 ----
   144   0   0   T    F  2.68D-01 0.00181864 0.00069227 0.01007660 0.00336631    0.0472707 ----
   145   0   0   F    T  2.65D+00 0.00154882 0.00050033 0.00887045 0.00336631    0.0471918 ----
   146   0   0   T    F  4.24D-01 0.00154882 0.00050033 0.00375794 0.00142613    0.0471954 ----
   147   0   0   F    T  1.54D+00 0.00083959 0.00040725 0.00364599 0.00142613    0.0471876 ----
   148   0   0   F    F  1.28D+00 0.00083959 0.00040725 0.00466003 0.00182277    0.0471817 ----
   149   0   0   F    T  3.38D+00 0.00109626 0.00039390 0.00854347 0.00324890    0.0471789 ----
   150   0   0   F    F -4.56D-01 0.00109626 0.00039390 0.00389240 0.00148020    0.0471777 ----
   151   0   0   F    T  2.36D+00 0.00079938 0.00032804 0.00453282 0.00176870    0.0471747 ----
   152   0   0   F    F -2.57D-01 0.00079938 0.00032804 0.00116409 0.00045423    0.0471722 ----
   153   0   0   F    T  1.34D+00 0.00109127 0.00036117 0.00335942 0.00131447    0.0471718 ----
   154   0   0   F    F  2.69D-01 0.00109127 0.00036117 0.00090281 0.00035325    0.0471687 ----
   155   0   0   F    T  2.46D+00 0.00079756 0.00028783 0.00441074 0.00166772    0.0471685 ----
   156   0   0   F    T  3.19D+00 0.00047283 0.00023159 0.00441066 0.00166772    0.0471656 ----
   157   0   0   F    F -2.93D-01 0.00047283 0.00023159 0.00129391 0.00048924    0.0471642 ----
   158   0   0   F    T  1.41D+00 0.00094200 0.00029261 0.00302873 0.00117848    0.0471639 ----
   159   0   0   F    T  2.12D+00 0.00049459 0.00022933 0.00314015 0.00117848    0.0471620 ----
   160   0   0   F    F  2.89D-01 0.00049459 0.00022933 0.00090846 0.00034094    0.0471598 ----
   161   0   0   F    T  2.72D+00 0.00043223 0.00020368 0.00438873 0.00151942    0.0471597 ----
   162   0   0   F    F -1.53D-01 0.00043223 0.00020368 0.00067124 0.00023239    0.0471583 ---+
   163   0   0   F    T  3.05D+00 0.00042362 0.00017609 0.00382071 0.00128703    0.0471582 ----
   164   0   0   F    F  1.51D-01 0.00042362 0.00017609 0.00057864 0.00019492    0.0471566 ---+
   165   0   0   F    T  2.79D+00 0.00048503 0.00019081 0.00405846 0.00148195    0.0471566 ----
   166   0   0   T    F  3.81D-01 0.00048503 0.00019081 0.00154562 0.00056438    0.0471576 ----
   167   0   0   F    T  1.68D+00 0.00042477 0.00014443 0.00163436 0.00056438    0.0471560 ----
   168   0   0   F    F  9.62D-01 0.00042477 0.00014443 0.00157271 0.00054310    0.0471553 ----
   169   0   0   F    T  2.06D+00 0.00036367 0.00017778 0.00308017 0.00110748    0.0471550 ----
   170   0   0   F    F  3.27D-01 0.00036367 0.00017778 0.00100592 0.00036168    0.0471538 ----
   171   0   0   F    T  3.42D+00 0.00038780 0.00015324 0.00387431 0.00146916    0.0471537 ----
   172   0   0   F    F -2.05D-01 0.00038780 0.00015324 0.00079589 0.00030181    0.0471528 ----
   173   0   0   F    T  2.62D+00 0.00035370 0.00015161 0.00317656 0.00116735    0.0471528 ----
   174   0   0   F    T  1.18D+00 0.00068913 0.00022531 0.00302465 0.00116735    0.0471518 ----
   175   0   0   F    F  7.65D-01 0.00068913 0.00022531 0.00231261 0.00089254    0.0471504 ----
   176   0   0   F    T  1.68D+00 0.00050583 0.00023200 0.00553211 0.00205990    0.0471501 ----
   177   0   0   F    F  2.13D+00 0.00050583 0.00023200 0.01178526 0.00438828    0.0471479 ----
   178   0   0   F    T  4.59D+00 0.00055276 0.00026432 0.01714459 0.00644817    0.0471459 ----
   179   0   0   F    F -3.02D-01 0.00055276 0.00026432 0.00517890 0.00194781    0.0471432 ----
   180   0   0   F    T  1.61D+00 0.00086127 0.00037380 0.01226763 0.00450036    0.0471425 ----
   181   0   0   F    F  5.35D-01 0.00086127 0.00037380 0.00656601 0.00240873    0.0471380 ----
   182   0   0   F    T  1.43D+00 0.00139703 0.00049452 0.01862052 0.00690910    0.0471374 ----
   183   0   0   F    F  3.67D-01 0.00139703 0.00049452 0.00683847 0.00253740    0.0471307 ----
   184   0   0   F    T  2.42D+00 0.00099296 0.00043919 0.02604746 0.00944649    0.0471302 ----
   185   0   0   F    F  2.93D-01 0.00099296 0.00043919 0.00763481 0.00276887    0.0471219 ----
   186   0   0   F    T  2.06D+00 0.00117279 0.00052792 0.03375198 0.01221537    0.0471214 ----
   187   0   0   F    F  1.01D+00 0.00117279 0.00052792 0.03402354 0.01231365    0.0471079 ----
   188   0   0   F    F -4.10D-02 0.00117279 0.00052792 0.00139577 0.00050515    0.0471030 ----
   189   0   0   F    T  1.31D+00 0.00262613 0.00092265 0.06722580 0.02402387    0.0471030 ----
   190   0   0   F    F -3.65D-02 0.00262613 0.00092265 0.00245335 0.00087673    0.0470864 ----
   191   0   0   F    T  7.13D+00 0.00155217 0.00067874 0.06717640 0.02314714    0.0470863 ----
   192   0   0   T    F  3.04D-01 0.00155217 0.00067874 0.02040145 0.00702978    0.0471440 ----
   193   0   0   F    T  1.66D+00 0.00286254 0.00075294 0.02033618 0.00702978    0.0470715 ----
   194   0   0   F    F -1.32D-01 0.00286254 0.00075294 0.00267741 0.00092552    0.0470595 ----
   195   0   0   F    T  1.37D+00 0.00193742 0.00076397 0.01793509 0.00610426    0.0470592 ----
   196   0   0   F    F  2.17D+00 0.00193742 0.00076397 0.03885254 0.01322356    0.0470389 ----
   197   0   0   F    F -1.33D-02 0.00193742 0.00076397 0.00051710 0.00017600    0.0470210 ---+
   198   0   0   F    T  2.94D+00 0.00320283 0.00096355 0.05467969 0.01915182    0.0470210 ----
   199   0   0   F    F -4.92D-01 0.00320283 0.00096355 0.02687965 0.00941473    0.0470186 ----
   200   0   0   F    T  1.94D+00 0.00237533 0.00081443 0.02572358 0.00973710    0.0470005 ----
   201   0   0   F    F -2.37D-01 0.00237533 0.00081443 0.00608973 0.00230513    0.0469873 ----
   202   0   0   F    T  1.50D+00 0.00203871 0.00079379 0.01835227 0.00743196    0.0469858 ----
   203   0   0   F    F  1.51D+00 0.00203871 0.00079379 0.02771261 0.01122254    0.0469632 ----
   204   0   0   F    T  1.76D+00 0.00308161 0.00114413 0.04515896 0.01865450    0.0469507 ----
   205   0   0   F    F  3.72D-01 0.00308161 0.00114413 0.01677855 0.00693097    0.0469059 ----
   206   0   0   F    T  2.28D+00 0.00390741 0.00119781 0.06156161 0.02558548    0.0469022 ----
   207   0   0   T    F  4.40D-01 0.00390741 0.00119781 0.02710129 0.01126350    0.0469182 ----
   208   0   0   F    T  2.09D+00 0.00197443 0.00090058 0.02729887 0.01126350    0.0468803 ----
   209   0   0   F    F  4.94D-01 0.00197443 0.00090058 0.01349215 0.00556686    0.0468468 ----
   210   0   0   F    T  2.06D+00 0.00270675 0.00111936 0.04084555 0.01683036    0.0468428 ----
   211   0   0   F    F  4.40D-01 0.00270675 0.00111936 0.01796061 0.00740065    0.0467929 ----
   212   0   0   F    T  1.89D+00 0.00317831 0.00136528 0.05897078 0.02423101    0.0467879 ----
   213   0   0   F    F -2.90D-01 0.00317831 0.00136528 0.01708202 0.00701898    0.0467562 ----
   214   0   0   F    T  1.81D+00 0.00323477 0.00124157 0.04195302 0.01721204    0.0467492 ----
   215   0   0   F    F -1.29D-01 0.00323477 0.00124157 0.00540200 0.00221628    0.0467139 ----
   216   0   0   F    T  3.04D+00 0.00163810 0.00091195 0.03694250 0.01499576    0.0467131 ----
   217   0   0   F    F -1.09D-01 0.00163810 0.00091195 0.00403990 0.00163988    0.0466804 ----
   218   0   0   F    T  2.67D+00 0.00216568 0.00087356 0.03392110 0.01335588    0.0466799 ----
   219   0   0   T    F  4.65D-01 0.00216568 0.00087356 0.01576862 0.00620863    0.0466849 ----
   220   0   0   F    T  1.35D+00 0.00233153 0.00082943 0.01620827 0.00620863    0.0466656 ----
   221   0   0   F    F  8.79D-01 0.00233153 0.00082943 0.01425051 0.00545871    0.0466451 ----
   222   0   0   F    T  2.20D+00 0.00263409 0.00089728 0.03186897 0.01166734    0.0466393 ----
   223   0   0   F    F  2.72D-01 0.00263409 0.00089728 0.00868059 0.00317800    0.0466074 ----
   224   0   0   F    T  1.96D+00 0.00345606 0.00105754 0.04223451 0.01484534    0.0466059 ----
   225   0   0   F    F -4.93D-01 0.00345606 0.00105754 0.02082443 0.00731974    0.0466055 ----
   226   0   0   F    T  2.54D+00 0.00137624 0.00066051 0.02261277 0.00752560    0.0465891 ----
   227   0   0   F    F -3.29D-01 0.00137624 0.00066051 0.00742899 0.00247239    0.0465806 ----
   228   0   0   F    T  2.42D+00 0.00131674 0.00055222 0.01606438 0.00505321    0.0465779 ----
   229   0   0   F    F  1.96D-01 0.00131674 0.00055222 0.00314864 0.00099043    0.0465651 ----
   230   0   0   F    T  1.34D+00 0.00285279 0.00080465 0.01967448 0.00604364    0.0465648 ----
   231   0   0   F    F  1.09D-01 0.00285279 0.00080465 0.00215248 0.00066120    0.0465504 ----
   232   0   0   F    T  1.64D+00 0.00173233 0.00075970 0.02146701 0.00670484    0.0465502 ----
   233   0   0   F    F  1.87D-01 0.00173233 0.00075970 0.00401065 0.00125266    0.0465339 ----
   234   0   0   F    T  3.84D+00 0.00152696 0.00053363 0.02413581 0.00795750    0.0465335 ----
   235   0   0   F    F -4.35D-01 0.00152696 0.00053363 0.01049817 0.00346121    0.0465297 ----
   236   0   0   F    T  1.00D+00 0.00260148 0.00077231 0.01359288 0.00449629    0.0465243 ----
   237   0   0   F    F  5.36D-01 0.00260148 0.00077231 0.00728835 0.00241086    0.0465120 ----
   238   0   0   F    T  3.84D+00 0.00157720 0.00048810 0.01936479 0.00690715    0.0465103 ----
   239   0   0   F    F -4.79D-01 0.00157720 0.00048810 0.00927215 0.00330724    0.0465092 ----
   240   0   0   F    T  2.01D+00 0.00149563 0.00048284 0.00913997 0.00359990    0.0465031 ----
   241   0   0   F    F -3.95D-01 0.00149563 0.00048284 0.00360925 0.00142155    0.0465007 ----
   242   0   0   F    T  1.33D+00 0.00123448 0.00045320 0.00541695 0.00217835    0.0464989 ----
   243   0   0   F    F  1.58D+00 0.00123448 0.00045320 0.00857720 0.00344920    0.0464923 ----
   244   0   0   F    T  2.40D+00 0.00170590 0.00053113 0.01441415 0.00562755    0.0464883 ----
   245   0   0   F    F -4.24D-01 0.00170590 0.00053113 0.00611320 0.00238671    0.0464857 ----
   246   0   0   F    T  2.25D+00 0.00119835 0.00040788 0.00847592 0.00324084    0.0464825 ----
   247   0   0   F    F -4.23D-01 0.00119835 0.00040788 0.00358737 0.00137166    0.0464810 ----
   248   0   0   F    T  1.48D+00 0.00089087 0.00037302 0.00531460 0.00186918    0.0464793 ----
   249   0   0   F    F  4.73D-01 0.00089087 0.00037302 0.00251239 0.00088362    0.0464752 ----
   250   0   0   F    T  3.17D+00 0.00079063 0.00029745 0.00832314 0.00275280    0.0464747 ----
   251   0   0   F    F -4.73D-01 0.00079063 0.00029745 0.00393631 0.00130190    0.0464743 ----
   252   0   0   F    T  1.64D+00 0.00096740 0.00029300 0.00428787 0.00145090    0.0464725 ----
   253   0   0   F    F -3.60D-01 0.00096740 0.00029300 0.00154262 0.00052198    0.0464716 ----
   254   0   0   F    T  2.56D+00 0.00050128 0.00017529 0.00293967 0.00092892    0.0464711 ----
   255   0   0   F    F  2.68D-01 0.00050128 0.00017529 0.00078752 0.00024885    0.0464697 ---+
   256   0   0   F    T  1.79D+00 0.00064860 0.00022856 0.00396184 0.00117777    0.0464696 ----
   257   0   0   F    F -2.47D-01 0.00064860 0.00022856 0.00097679 0.00029038    0.0464687 ---+
   258   0   0   F    T  1.59D+00 0.00065646 0.00020295 0.00295239 0.00088739    0.0464686 ----
   259   0   0   F    T  1.83D+00 0.00043634 0.00018005 0.00303504 0.00088739    0.0464676 ----
   260   0   0   F    F  7.05D-01 0.00043634 0.00018005 0.00214017 0.00062575    0.0464664 ----
   261   0   0   F    T  1.89D+00 0.00057822 0.00023055 0.00526556 0.00151314    0.0464661 ----
   262   0   0   F    F -2.99D-01 0.00057822 0.00023055 0.00157624 0.00045296    0.0464653 ----
   263   0   0   F    T  1.47D+00 0.00062523 0.00021225 0.00348652 0.00106019    0.0464651 ----
   264   0   0   F    F  1.11D-01 0.00062523 0.00021225 0.00038867 0.00011819    0.0464640 --++
   265   0   0   F    T  3.33D+00 0.00033348 0.00014281 0.00356229 0.00117837    0.0464640 ----
   266   0   0   F    F -2.38D-01 0.00033348 0.00014281 0.00084687 0.00028014    0.0464633 ---+
   267   0   0   F    T  1.38D+00 0.00060801 0.00018892 0.00272355 0.00089824    0.0464632 ----
   268   0   0   F    F -1.22D-01 0.00060801 0.00018892 0.00033178 0.00010942    0.0464626 --++
   269   0   0   F    T  2.07D+00 0.00042240 0.00013979 0.00217964 0.00078882    0.0464626 ----
   270   0   0   F    T  2.61D+00 0.00026603 0.00011229 0.00204614 0.00078882    0.0464620 ----
   271   0   0   F    F -3.36D-01 0.00026603 0.00011229 0.00068726 0.00026495    0.0464618 ---+
   272   0   0   F    T  1.32D+00 0.00036612 0.00013476 0.00136742 0.00052387    0.0464617 ----
   273   0   0   F    F  4.34D-01 0.00036612 0.00013476 0.00059279 0.00022710    0.0464613 ---+
   274   0   0   F    T  1.42D+00 0.00028931 0.00014360 0.00186489 0.00075097    0.0464612 ----
   275   0   0   F    F  1.13D+00 0.00028931 0.00014360 0.00210808 0.00084890    0.0464605 ----
   276   0   0   F    T  3.24D+00 0.00035722 0.00013655 0.00388717 0.00159987    0.0464603 ----
   277   0   0   F    F -4.20D-01 0.00035722 0.00013655 0.00163445 0.00067270    0.0464600 ----
   278   0   0   F    T  2.22D+00 0.00033809 0.00012272 0.00235489 0.00092717    0.0464597 ----
   279   0   0   F    F -3.86D-01 0.00033809 0.00012272 0.00090820 0.00035758    0.0464596 ----
   280   0   0   F    T  1.34D+00 0.00034636 0.00012132 0.00141176 0.00056959    0.0464594 ----
   281   0   0   F    F  1.80D+00 0.00034636 0.00012132 0.00254724 0.00102771    0.0464590 ----
   282   0   0   F    T  1.68D+00 0.00053532 0.00017947 0.00402662 0.00159730    0.0464586 ----
   283   0   0   F    F  7.85D-01 0.00053532 0.00017947 0.00316087 0.00125387    0.0464574 ----
   284   0   0   F    T  1.85D+00 0.00056071 0.00022743 0.00740548 0.00285116    0.0464572 ----
   285   0   0   F    F  1.54D-01 0.00056071 0.00022743 0.00114077 0.00043920    0.0464555 ----
   286   0   0   F    T  1.42D+00 0.00085280 0.00027821 0.00848600 0.00329037    0.0464555 ----
   287   0   0   F    F  1.30D-01 0.00085280 0.00027821 0.00110128 0.00042701    0.0464537 ----
   288   0   0   F    T  2.02D+00 0.00070767 0.00024511 0.00981238 0.00371738    0.0464536 ----
   289   0   0   F    F  7.94D-01 0.00070767 0.00024511 0.00778755 0.00295028    0.0464510 ----
   290   0   0   F    T  3.07D+00 0.00050354 0.00026192 0.01786017 0.00666766    0.0464504 ----
   291   0   0   F    F -4.16D-01 0.00050354 0.00026192 0.00742726 0.00277279    0.0464495 ----
   292   0   0   F    T  1.54D+00 0.00074194 0.00028717 0.01021893 0.00389487    0.0464485 ----
   293   0   0   F    T  2.46D+00 0.00047858 0.00022867 0.01023533 0.00389487    0.0464466 ----
   294   0   0   F    F -3.12D-01 0.00047858 0.00022867 0.00319346 0.00121521    0.0464455 ----
   295   0   0   F    T  3.11D+00 0.00038409 0.00016255 0.00696871 0.00267966    0.0464452 ----
   296   0   0   F    F -3.34D-01 0.00038409 0.00016255 0.00232654 0.00089462    0.0464446 ----
   297   0   0   F    T  3.38D+00 0.00026521 0.00012593 0.00462729 0.00178504    0.0464444 ----
   298   0   0   F    F -4.32D-01 0.00026521 0.00012593 0.00199812 0.00077080    0.0464442 ----
   299   0   0   F    T  1.15D+00 0.00047051 0.00016151 0.00275697 0.00101424    0.0464440 ----
   300   0   0   F    F  1.10D+00 0.00047051 0.00016151 0.00303406 0.00111617    0.0464433 ----
   301   0   0   F    T  2.09D+00 0.00045990 0.00017212 0.00573782 0.00213041    0.0464430 ----
   302   0   0   F    F -1.74D-01 0.00045990 0.00017212 0.00099758 0.00037039    0.0464423 ----
   303   0   0   F    T  4.40D+00 0.00026675 0.00010667 0.00460776 0.00176002    0.0464423 ----
   304   0   0   T    F  4.04D-01 0.00026675 0.00010667 0.00186060 0.00071069    0.0464426 ----
   305   0   0   F    T  2.42D+00 0.00024561 0.00008923 0.00191177 0.00071069    0.0464420 ----
   306   0   0   F    F -1.95D-01 0.00024561 0.00008923 0.00037196 0.00013827    0.0464417 --++
   307   0   0   F    T  1.05D+00 0.00033579 0.00012043 0.00157807 0.00057242    0.0464417 ----
   308   0   0   F    F  2.04D+00 0.00033579 0.00012043 0.00321697 0.00116690    0.0464413 ----
   309   0   0   F    T  2.20D+00 0.00030031 0.00014333 0.00482538 0.00173932    0.0464410 ----
   310   0   0   F    F  1.67D-01 0.00030031 0.00014333 0.00080440 0.00028995    0.0464403 ---+
   311   0   0   F    T  2.48D+00 0.00036203 0.00014384 0.00549645 0.00202927    0.0464402 ----
   312   0   0   F    F -2.76D-01 0.00036203 0.00014384 0.00151565 0.00055957    0.0464398 ----
   313   0   0   F    T  2.46D+00 0.00032019 0.00012243 0.00380533 0.00146970    0.0464397 ----
   314   0   0   F    F -3.35D-01 0.00032019 0.00012243 0.00127575 0.00049272    0.0464394 ----
   315   0   0   F    T  1.29D+00 0.00045224 0.00013698 0.00256514 0.00097698    0.0464393 ----
   316   0   0   F    F  9.77D-01 0.00045224 0.00013698 0.00250643 0.00095462    0.0464388 ----
   317   0   0   F    T  2.84D+00 0.00031071 0.00012765 0.00495286 0.00193159    0.0464386 ----
   318   0   0   F    T  2.18D+00 0.00029497 0.00014778 0.00476731 0.00193159    0.0464379 ----
   319   0   0   F    F  1.56D-01 0.00029497 0.00014778 0.00074184 0.00030058    0.0464370 ----
   320   0   0   F    T  1.46D+00 0.00072130 0.00018810 0.00555342 0.00223217    0.0464370 ----
   321   0   0   F    F  1.08D-01 0.00072130 0.00018810 0.00059892 0.00024073    0.0464362 ---+
   322   0   0   F    T  2.17D+00 0.00054048 0.00016542 0.00588766 0.00247290    0.0464362 ----
   323   0   0   F    F -2.77D-01 0.00054048 0.00016542 0.00163198 0.00068545    0.0464356 ----
   324   0   0   F    T  2.99D+00 0.00034062 0.00011787 0.00406044 0.00178745    0.0464355 ----
   325   0   0   F    T  2.32D+00 0.00037919 0.00013542 0.00402797 0.00178745    0.0464349 ----
   326   0   0   F    F -2.12D-01 0.00037919 0.00013542 0.00085330 0.00037866    0.0464344 ----
   327   0   0   F    T  1.22D+00 0.00044573 0.00016030 0.00300975 0.00140879    0.0464343 ----
   328   0   0   F    F  6.10D-01 0.00044573 0.00016030 0.00183658 0.00085966    0.0464337 ----
   329   0   0   F    T  2.48D+00 0.00037179 0.00015124 0.00474915 0.00226845    0.0464336 ----
   330   0   0   F    F -1.23D-01 0.00037179 0.00015124 0.00058525 0.00027955    0.0464328 ---+
   331   0   0   F    T  2.11D+00 0.00042246 0.00015349 0.00414319 0.00198890    0.0464328 ----
   332   0   0   F    F -8.51D-02 0.00042246 0.00015349 0.00035240 0.00016916    0.0464321 --++
   333   0   0   F    T  1.61D+00 0.00061959 0.00016664 0.00388049 0.00181974    0.0464321 ----
   334   0   0   F    F -1.95D-01 0.00061959 0.00016664 0.00075570 0.00035438    0.0464316 ----
   335   0   0   F    T  2.37D+00 0.00030724 0.00012033 0.00327877 0.00146535    0.0464316 ----
   336   0   0   F    F  2.67D-01 0.00030724 0.00012033 0.00087453 0.00039085    0.0464310 ----
   337   0   0   F    T  2.45D+00 0.00036660 0.00013230 0.00408333 0.00185620    0.0464309 ----
   338   0   0   F    F -9.15D-02 0.00036660 0.00013230 0.00037343 0.00016976    0.0464304 --++
   339   0   0   F    T  1.10D+00 0.00065335 0.00018897 0.00369241 0.00168645    0.0464304 ----
   340   0   0   F    F  7.21D-01 0.00065335 0.00018897 0.00266248 0.00121604    0.0464295 ----
   341   0   0   F    T  2.78D+00 0.00046890 0.00015525 0.00639855 0.00290249    0.0464294 ----
   342   0   0   F    F -3.39D-01 0.00046890 0.00015525 0.00216704 0.00098301    0.0464289 ----
   343   0   0   F    T  3.00D+00 0.00025995 0.00012049 0.00408280 0.00191948    0.0464287 ----
   344   0   0   F    F -2.84D-01 0.00025995 0.00012049 0.00115888 0.00054484    0.0464283 ----
   345   0   0   F    T  1.65D+00 0.00034142 0.00013651 0.00289264 0.00137464    0.0464282 ----
   346   0   0   F    F -1.29D-01 0.00034142 0.00013651 0.00037308 0.00017730    0.0464278 --++
   347   0   0   F    T  1.84D+00 0.00023444 0.00011911 0.00251979 0.00119735    0.0464278 ----
   348   0   0   F    T  5.66D+00 0.00014545 0.00006556 0.00233026 0.00119735    0.0464274 -+--
   349   0   0   T    F  4.02D-01 0.00014545 0.00006556 0.00093576 0.00048082    0.0464276 -+--
   350   0   0   F    T  1.31D+00 0.00020662 0.00008560 0.00090185 0.00048082    0.0464273 ----
   351   0   0   F    T  3.39D+00 0.00019755 0.00006193 0.00098182 0.00048082    0.0464271 -+--
   352   0   0   T    F  4.74D-01 0.00019755 0.00006193 0.00046562 0.00022802    0.0464271 -+-+
   353   0   0   F    T  2.07D+00 0.00010100 0.00004503 0.00061015 0.00022802    0.0464270 ++-+
   354   0   0   F    T  3.62D+00 0.00008360 0.00004151 0.00051495 0.00022802    0.0464269 ++-+
   355   0   0   T    T  1.00D+00 0.00026455 0.00010490 0.00026455 0.00010490    0.0464269 --++
   356   0   0   T    F  5.00D-01 0.00026455 0.00010490 0.00013228 0.00005245    0.0464272 --++
   357   0   0   T    F  5.00D-01 0.00026455 0.00010490 0.00006614 0.00002622    0.0464270 --++
   358   0   0   T    F  5.00D-01 0.00026455 0.00010490 0.00003307 0.00001311    0.0464270 --++
   359   0   0   T    F  5.00D-01 0.00026455 0.00010490 0.00001653 0.00000656    0.0464269 --++
   360   0   0   T    F  5.00D-01 0.00026455 0.00010490 0.00000827 0.00000328    0.0464269 --++
   361   0   0   T    F  5.00D-01 0.00026455 0.00010490 0.00000413 0.00000164    0.0464269 --++
   362   0   0   T    F  5.00D-01 0.00026455 0.00010490 0.00000207 0.00000082    0.0464269 --++
   363   0   0   T    F  5.00D-01 0.00026455 0.00010490 0.00000103 0.00000041    0.0464269 --++
   364   0   0   T    F  5.00D-01 0.00026455 0.00010490 0.00000052 0.00000020    0.0464269 --++
   365   0   0   T    T  1.00D+00 0.00008374 0.00004169 0.00006785 0.00003287    0.0464269 ++++
   366   0   0   F    T  1.00D+00 0.00007316 0.00003434 0.00007745 0.00003383    0.0464269 ====
 ****************************
 MOLECULAR MECHANICS FUNCTION
 ****************************
 Atomic parameters:
 Center  VDW
      1 1.9080 0.0860000
      2 1.7210 0.2104000
      3 1.9080 0.1094000
      4 1.4870 0.0157000
      5 1.4870 0.0157000
      6 1.8750 0.1700000
      7 0.6000 0.0157000
      8 0.6000 0.0157000
      9 1.6612 0.2100000
     10 0.0000 0.0000000
 Molecular mechanics terms:
 NBDir 3 1      0      0
 HrmStr1  1- 2  431.53 1.3510
 HrmStr1  1- 3  294.15 1.5090
 HrmStr1  1- 9  946.08 1.2030
 HrmStr1  2-10  566.76 0.9680
 HrmStr1  3- 4  358.05 1.0960
 HrmStr1  3- 5  358.05 1.0960
 HrmStr1  3- 6  380.82 1.4520
 HrmStr1  6- 7  506.01 1.0110
 HrmStr1  6- 8  506.01 1.0110
 HrmBnd1  1- 2-10  56.55 107.23
 HrmBnd1  1- 3- 4  46.41 106.89
 HrmBnd1  1- 3- 5  46.41 106.89
 HrmBnd1  1- 3- 6  59.93 110.61
 HrmBnd1  2- 1- 3  67.92 111.72
 HrmBnd1  2- 1- 9  91.40 123.02
 HrmBnd1  3- 1- 9  62.83 125.24
 HrmBnd1  3- 6- 7  52.60 110.71
 HrmBnd1  3- 6- 8  52.60 110.71
 HrmBnd1  4- 3- 5  44.68 106.22
 HrmBnd1  4- 3- 6  52.45 112.94
 HrmBnd1  5- 3- 6  52.45 112.94
 HrmBnd1  7- 6- 8  47.09 108.63
 AmbTrs  3- 1- 2-10   0 180   0   0  0.0000 14.5000  0.0000  0.0000  2.0
 AmbTrs  9- 1- 2-10   0   0   0   0  0.0000 14.5000  0.0000  0.0000  2.0
 AmbTrs  2- 1- 3- 4   0   0   0   0  0.0000 14.5000  0.0000  0.0000  6.0
 AmbTrs  2- 1- 3- 5   0   0   0   0  0.0000 14.5000  0.0000  0.0000  6.0
 AmbTrs  2- 1- 3- 6   0   0   0   0  0.0000 14.5000  0.0000  0.0000  6.0
 AmbTrs  9- 1- 3- 4   0   0   0   0  0.0000 14.5000  0.0000  0.0000  6.0
 AmbTrs  9- 1- 3- 5   0   0   0   0  0.0000 14.5000  0.0000  0.0000  6.0
 AmbTrs  9- 1- 3- 6   0   0   0   0  0.0000 14.5000  0.0000  0.0000  6.0
 AmbTrs  1- 3- 6- 7   0 180   0   0  0.0000 25.6300  0.0000  0.0000  6.0
 AmbTrs  1- 3- 6- 8   0 180   0   0  0.0000 25.6300  0.0000  0.0000  6.0
 AmbTrs  4- 3- 6- 7   0   0   0   0  0.0000 16.9300  0.0000  0.0000  6.0
 AmbTrs  4- 3- 6- 8   0   0   0   0  0.0000 16.9300  0.0000  0.0000  6.0
 AmbTrs  5- 3- 6- 7   0   0   0   0  0.0000 16.9300  0.0000  0.0000  6.0
 AmbTrs  5- 3- 6- 8   0   0   0   0  0.0000 16.9300  0.0000  0.0000  6.0
 NBPair  2- 1 3 1      0      0 -1.000 -1.000
 NBPair  3- 2 3 1      0      0 -1.000 -1.000
 NBPair 10- 3 3 1      0      0 -0.500 -0.167
 NBPair  9- 2 3 1      0      0 -1.000 -1.000
 NBPair 10- 9 3 1      0      0 -0.500 -0.167
 NBPair  3- 1 3 1      0      0 -1.000 -1.000
 NBPair  4- 2 3 1      0      0 -0.500 -0.167
 NBPair  5- 2 3 1      0      0 -0.500 -0.167
 NBPair  6- 2 3 1      0      0 -0.500 -0.167
 NBPair  9- 3 3 1      0      0 -1.000 -1.000
 NBPair  9- 4 3 1      0      0 -0.500 -0.167
 NBPair  9- 5 3 1      0      0 -0.500 -0.167
 NBPair  9- 6 3 1      0      0 -0.500 -0.167
 NBPair  9- 1 3 1      0      0 -1.000 -1.000
 NBPair 10- 1 3 1      0      0 -1.000 -1.000
 NBPair 10- 2 3 1      0      0 -1.000 -1.000
 NBPair  4- 1 3 1      0      0 -1.000 -1.000
 NBPair  5- 1 3 1      0      0 -1.000 -1.000
 NBPair  6- 1 3 1      0      0 -1.000 -1.000
 NBPair  4- 3 3 1      0      0 -1.000 -1.000
 NBPair  5- 4 3 1      0      0 -1.000 -1.000
 NBPair  6- 4 3 1      0      0 -1.000 -1.000
 NBPair  5- 3 3 1      0      0 -1.000 -1.000
 NBPair  6- 5 3 1      0      0 -1.000 -1.000
 NBPair  6- 3 3 1      0      0 -1.000 -1.000
 NBPair  7- 1 3 1      0      0 -0.500 -0.167
 NBPair  8- 1 3 1      0      0 -0.500 -0.167
 NBPair  7- 4 3 1      0      0 -0.500 -0.167
 NBPair  8- 4 3 1      0      0 -0.500 -0.167
 NBPair  7- 5 3 1      0      0 -0.500 -0.167
 NBPair  8- 5 3 1      0      0 -0.500 -0.167
 NBPair  7- 3 3 1      0      0 -1.000 -1.000
 NBPair  8- 3 3 1      0      0 -1.000 -1.000
 NBPair  7- 6 3 1      0      0 -1.000 -1.000
 NBPair  8- 7 3 1      0      0 -1.000 -1.000
 NBPair  8- 6 3 1      0      0 -1.000 -1.000
 Energy per function type:
 Direct Coulomb + vdW (small)                           0.003902383
 Direct Coulomb (large)                                -0.131924218
 Direct vdW (large)                                   268.381006305
 Non-direct Coulomb + vdW (small)                      -0.012116377
 Non-direct Coulomb (large)                             0.138192338
 Non-direct vdW (large)                              -268.381006305
 Harmonic stretch I                                     0.000129590
 Harmonic bend I                                        0.010341903
 Amber torsion                                          0.037901281
 Energy per function class:
        Coulomb              -0.003790003
    Vanderwaals               0.001844129
     Stretching               0.000129590
        Bending               0.010341903
        Torsion               0.037901281
 Energy=    4.642690026E-02 NIter=   0.
 Dipole moment=       0.429860       0.131176      -0.480294
 Leave Link  402 at Sun Nov 26 11:20:19 2023, MaxMem=   134217728 cpu:               0.6 elap:               0.6
 (Enter /home/emanuele/chem_software/gaussian//gdv/l716.exe)
 Dipole        = 4.29859765D-01 1.31175924D-01-4.80293773D-01
 -------------------------------------------------------------------
 Center     Atomic                   Forces (Hartrees/Bohr)
 Number     Number              X              Y              Z
 -------------------------------------------------------------------
      1        6          -0.000010112   -0.000054000    0.000073161
      2        8          -0.000038738    0.000046008    0.000000363
      3        6           0.000046888    0.000039841   -0.000006245
      4        1          -0.000022412   -0.000032677   -0.000020567
      5        1          -0.000000755   -0.000052461   -0.000017459
      6        7           0.000006421   -0.000019580    0.000041734
      7        1          -0.000013867    0.000033863    0.000021123
      8        1          -0.000035848    0.000001064   -0.000037639
      9        8           0.000031698    0.000056128   -0.000043837
     10        1           0.000036724   -0.000018186   -0.000010633
 -------------------------------------------------------------------
 Cartesian Forces:  Max     0.000073161 RMS     0.000034345
 Z-matrix is all fixed cartesians, so copy forces.
 Leave Link  716 at Sun Nov 26 11:20:19 2023, MaxMem=   134217728 cpu:               0.0 elap:               0.0
 (Enter /home/emanuele/chem_software/gaussian//gdv/l103.exe)

 GradGradGradGradGradGradGradGradGradGradGradGradGradGradGradGradGradGrad
 Berny optimization.
 Search for a local minimum.
 Step number   1 out of a maximum of    2
 All quantities printed in internal units (Hartrees-Bohrs-Radians)
 RMS Force = .34345D-04 SwitMx=.10000D-02 MixMth= 2
 Mixed Optimization -- En-DIIS/RFO-DIIS
 Second derivative matrix not updated -- unit matrix used.
 ITU=  0
 RFO step:  Lambda=-3.53873501D-08 EMin= 1.00000000D+00
 Linear search not attempted -- first point.
 Variable       Old X    -DE/DX   Delta X   Delta X   Delta X     New X
                                 (Linear)    (Quad)   (Total)
    X1       -1.00137  -0.00001   0.00000  -0.00001  -0.00001  -1.00138
    Y1       -0.11811  -0.00005   0.00000  -0.00005  -0.00005  -0.11816
    Z1        1.11407   0.00007   0.00000   0.00007   0.00007   1.11414
    X2       -2.50611  -0.00004   0.00000  -0.00004  -0.00004  -2.50615
    Y2       -0.01190   0.00005   0.00000   0.00005   0.00005  -0.01185
    Z2       -0.94457   0.00000   0.00000   0.00000   0.00000  -0.94457
    X3        1.45337   0.00005   0.00000   0.00005   0.00005   1.45342
    Y3       -1.43263   0.00004   0.00000   0.00004   0.00004  -1.43259
    Z3        0.38636  -0.00001   0.00000  -0.00001  -0.00001   0.38636
    X4        2.11291  -0.00002   0.00000  -0.00002  -0.00002   2.11289
    Y4       -2.23976  -0.00003   0.00000  -0.00003  -0.00003  -2.23979
    Z4        2.17885  -0.00002   0.00000  -0.00002  -0.00002   2.17882
    X5        0.88979  -0.00000   0.00000  -0.00000  -0.00000   0.88979
    Y5       -3.00117  -0.00005   0.00000  -0.00005  -0.00005  -3.00123
    Z5       -0.84762  -0.00002   0.00000  -0.00002  -0.00002  -0.84764
    X6        3.23116   0.00001   0.00000   0.00001   0.00001   3.23117
    Y6        0.38650  -0.00002   0.00000  -0.00002  -0.00002   0.38648
    Z6       -0.67983   0.00004   0.00000   0.00004   0.00004  -0.67979
    X7        4.92943  -0.00001   0.00000  -0.00001  -0.00001   4.92942
    Y7       -0.19609   0.00003   0.00000   0.00003   0.00003  -0.19606
    Z7       -1.33603   0.00002   0.00000   0.00002   0.00002  -1.33601
    X8        2.69394  -0.00004   0.00000  -0.00004  -0.00004   2.69391
    Y8        2.19734   0.00000   0.00000   0.00000   0.00000   2.19734
    Z8       -0.97324  -0.00004   0.00000  -0.00004  -0.00004  -0.97328
    X9       -1.94172   0.00003   0.00000   0.00003   0.00003  -1.94169
    Y9       -0.59522   0.00006   0.00000   0.00006   0.00006  -0.59516
    Z9        3.12704  -0.00004   0.00000  -0.00004  -0.00004   3.12700
   X10       -3.65929   0.00004   0.00000   0.00004   0.00004  -3.65925
   Y10        1.37599  -0.00002   0.00000  -0.00002  -0.00002   1.37597
   Z10       -0.65506  -0.00001   0.00000  -0.00001  -0.00001  -0.65507
         Item               Value     Threshold  Converged?
 Maximum Force            0.000073     0.000450     YES
 RMS     Force            0.000034     0.000300     YES
 Maximum Displacement     0.000073     0.001800     YES
 RMS     Displacement     0.000034     0.001200     YES
 Predicted change in Energy=-1.769367D-08
 Optimization completed.
    -- Stationary point found.
 Largest change from initial coordinates is atom    9       1.156 Angstoms.
 GradGradGradGradGradGradGradGradGradGradGradGradGradGradGradGradGradGrad

 Leave Link  103 at Sun Nov 26 11:20:19 2023, MaxMem=   134217728 cpu:               0.0 elap:               0.0
 (Enter /home/emanuele/chem_software/gaussian//gdv/l202.exe)
                          Input orientation:                          
 ---------------------------------------------------------------------
 Center     Atomic      Atomic             Coordinates (Angstroms)
 Number     Number       Type             X           Y           Z
 ---------------------------------------------------------------------
      1          6    20001002       -0.529900   -0.062499    0.589540
      2          8    20001022       -1.326176   -0.006297   -0.499844
      3          6    20001001        0.769091   -0.758118    0.204454
      4          1    20001034        1.118103   -1.185228    1.152995
      5          1    20001034        0.470859   -1.588153   -0.448542
      6          7    20001020        1.709857    0.204527   -0.359751
      7          1    20001029        2.608543   -0.103766   -0.706997
      8          1    20001029        1.425573    1.162781   -0.515018
      9          8    20001025       -1.027512   -0.314977    1.654759
     10          1    20001031       -1.936411    0.728143   -0.346644
 ---------------------------------------------------------------------
                    Distance matrix (angstroms):
                    1          2          3          4          5
     1  C    0.000000
     2  O    1.350546   0.000000
     3  C    1.523008   2.334827   0.000000
     4  H    2.072177   3.177461   1.097253   0.000000
     5  H    2.099226   2.394627   1.097408   1.773752   0.000000
     6  N    2.447237   3.046567   1.459470   2.137754   2.180987
     7  H    3.395958   3.941373   2.154646   2.617354   2.615320
     8  H    2.558366   2.989832   2.153709   2.896542   2.912651
     9  O    1.202520   2.196998   2.351072   2.369128   2.879230
    10  H    1.865430   0.967088   3.135669   3.903840   3.342239
                    6          7          8          9         10
     6  N    0.000000
     7  H    1.011563   0.000000
     8  H    1.011522   1.743678   0.000000
     9  O    3.438215   4.340898   3.592956   0.000000
    10  H    3.683697   4.634494   3.394142   2.433066   0.000000
 Symmetry turned off by external request.
 Stoichiometry    C2H5NO2
 Framework group  C1[X(C2H5NO2)]
 Deg. of freedom    24
 Full point group                 C1      NOp   1
 Rotational constants (GHZ):           9.5036324           3.8927560           3.1075331
 Leave Link  202 at Sun Nov 26 11:20:19 2023, MaxMem=   134217728 cpu:               0.0 elap:               0.0
 (Enter /home/emanuele/chem_software/gaussian//gdv/l9999.exe)
 Unable to Open any file for archive entry.
 1\1\GINC-EMANUELE-XPS-13-9343\FOpt\AMBER\ZDO\C2H5N1O2\EMANUELE\26-Nov-
 2023\0\\#p Amber=(SoftFirst,Print) geom=nocrowd nosymm opt=(maxcycle=3
 00)\\Title\\0,1\C,-0.5298997762,-0.0624992828,0.589539962\O,-1.3261761
 79,-0.0062965353,-0.4998444827\C,0.7690908419,-0.7581175248,0.20445393
 31\H,1.1181030267,-1.1852282578,1.152995257\H,0.4708587641,-1.58815312
 98,-0.4485420296\N,1.7098573414,0.2045272169,-0.3597506402\H,2.6085426
 023,-0.1037659342,-0.7069965057\H,1.4255730907,1.1627812828,-0.5150182
 27\O,-1.0275123039,-0.3149773765,1.6547585304\H,-1.936411408,0.7281425
 416,-0.3466437973\\Version=ES64L-GDVRevJ.14\HF=0.0464269\RMSD=0.000e+0
 0\RMSF=3.434e-05\Dipole=0.4298598,0.1311759,-0.4802938\PG=C01 [X(C2H5N
 1O2)]\\@
 The archive entry for this job was punched.


 Age does not diminish the extreme disappointment of
 having a scoop of ice cream fall from the cone.
 -- Jim Fiebig
 Job cpu time:       0 days  0 hours  0 minutes  1.1 seconds.
 Elapsed time:       0 days  0 hours  0 minutes  1.0 seconds.
 File lengths (MBytes):  RWF=      6 Int=      0 D2E=      0 Chk=      1 Scr=      1
 Normal termination of Gaussian DV at Sun Nov 26 11:20:19 2023.
