 Entering Gaussian System, Link 0=/home/emanuele/chem_software/gaussian//g09/g09
 Input=3_qm.gjf
 Output=3_qm.log
 Initial command:
 /home/emanuele/chem_software/gaussian//gdv/l1.exe "/home/emanuele/chem_software/gaussian/scratch/Gau-21686.inp" -scrdir="/home/emanuele/chem_software/gaussian/scratch/"
 Entering Link 1 = /home/emanuele/chem_software/gaussian//gdv/l1.exe PID=     21688.
  
 Copyright (c) 1988-2020, Gaussian, Inc.  All Rights Reserved.
  
 This is the private, development version of
 the Gaussian(R) DV system of programs. It is based on
 the Gaussian(R) 16 system (copyright 2016, Gaussian, Inc.),
 the Gaussian(R) 09 system (copyright 2009, Gaussian, Inc.),
 the Gaussian(R) 03 system (copyright 2003, Gaussian, Inc.),
 the Gaussian(R) 98 system (copyright 1998, Gaussian, Inc.),
 the Gaussian(R) 94 system (copyright 1995, Gaussian, Inc.),
 the Gaussian 92(TM) system (copyright 1992, Gaussian, Inc.),
 the Gaussian 90(TM) system (copyright 1990, Gaussian, Inc.),
 the Gaussian 88(TM) system (copyright 1988, Gaussian, Inc.),
 the Gaussian 86(TM) system (copyright 1986, Carnegie Mellon
 University), and the Gaussian 82(TM) system (copyright 1983,
 Carnegie Mellon University). Gaussian is a federally registered
 trademark of Gaussian, Inc.
  
 This software contains proprietary and confidential information,
 including trade secrets, belonging to Gaussian, Inc.
  
 This software is provided under written license and may be
 used, copied, transmitted, or stored only in accord with that
 written license.
  
 The following legend is applicable only to US Government
 contracts under FAR:
  
                    RESTRICTED RIGHTS LEGEND
  
 Use, reproduction and disclosure by the US Government is
 subject to restrictions as set forth in subparagraphs (a)
 and (c) of the Commercial Computer Software - Restricted
 Rights clause in FAR 52.227-19.
  
 Gaussian, Inc.
 340 Quinnipiac St., Bldg. 40, Wallingford CT 06492
  
  
 ---------------------------------------------------------------
 Warning -- This program may not be used in any manner that
 competes with the business of Gaussian, Inc. or will provide
 assistance to any competitor of Gaussian, Inc.  The licensee
 of this program is prohibited from giving any competitor of
 Gaussian, Inc. access to this program.  By using this program,
 the user acknowledges that Gaussian, Inc. is engaged in the
 business of creating and licensing software in the field of
 computational chemistry and represents and warrants to the
 licensee that it is not a competitor of Gaussian, Inc. and that
 it will not use this program in any manner prohibited above.
 ---------------------------------------------------------------
  

 Cite this work as:
 Gaussian Development Version, Revision J.14,
 M. J. Frisch, G. W. Trucks, H. B. Schlegel, G. E. Scuseria, 
 M. A. Robb, J. R. Cheeseman, G. Scalmani, V. Barone, 
 G. A. Petersson, H. Nakatsuji, X. Li, A. V. Marenich, M. Caricato, 
 J. Bloino, B. G. Janesko, J. Zheng, R. Gomperts, B. Mennucci, 
 H. P. Hratchian, J. V. Ortiz, A. F. Izmaylov, J. L. Sonnenberg, 
 D. Williams-Young, F. Ding, F. Lipparini, F. Egidi, J. Goings, 
 B. Peng, A. Petrone, T. Henderson, D. Ranasinghe, V. G. Zakrzewski, 
 J. Gao, N. Rega, G. Zheng, W. Liang, M. Hada, M. Ehara, K. Toyota, 
 R. Fukuda, J. Hasegawa, M. Ishida, T. Nakajima, Y. Honda, O. Kitao, 
 H. Nakai, T. Vreven, K. Throssell, J. A. Montgomery, Jr., 
 J. E. Peralta, F. Ogliaro, M. J. Bearpark, J. J. Heyd, 
 E. N. Brothers, K. N. Kudin, V. N. Staroverov, T. A. Keith, 
 R. Kobayashi, J. Normand, K. Raghavachari, A. P. Rendell, 
 J. C. Burant, S. S. Iyengar, J. Tomasi, M. Cossi, J. M. Millam, 
 M. Klene, C. Adamo, R. Cammi, J. W. Ochterski, R. L. Martin, 
 K. Morokuma, O. Farkas, J. B. Foresman, and D. J. Fox, 
 Gaussian, Inc., Wallingford CT, 2020.
 
 ******************************************
 Gaussian DV:  ES64L-GDVRevJ.14 29-Dec-2020
                 1-Jan-2024 
 ******************************************
 %mem=1GB
 %nprocshared=4
 Will use up to    4 processors via shared memory.
 %chk=3_qm.chk
 -------------------------------------------------------------------
 #p nosymm geom=nocrowd opt=(modredundant,maxcycle=100) PBEPBE/6-31G
 -------------------------------------------------------------------
 1/6=100,18=120,19=15,26=3,37=210000000,38=1/1,3;
 2/9=110,12=1,15=1,40=1/2;
 3/5=1,6=6,11=2,25=1,30=1,71=1,74=10009/1,2,3;
 4//1;
 5/5=2,38=5/2;
 6/7=2,8=2,9=2,10=2,28=1/1;
 7/30=1/1,2,3,16;
 1/6=100,18=20,19=15,26=3/3(2);
 2/9=110,12=1,15=1/2;
 99//99;
 2/9=110,12=1,15=1/2;
 3/5=1,6=6,11=2,25=1,30=1,71=1,74=10009/1,2,3;
 4/5=5,16=3,69=1/1;
 5/5=2,38=5/2;
 7/30=1/1,2,3,16;
 1/6=100,18=20,19=15,26=3/3(-5);
 2/9=110,12=1,15=1/2;
 6/7=2,8=2,9=2,10=2,19=2,28=1/1;
 99/9=1/99;
 Leave Link    1 at Mon Jan  1 12:36:07 2024, MaxMem=   134217728 cpu:               0.2 elap:               0.1
 (Enter /home/emanuele/chem_software/gaussian//gdv/l101.exe)
 -----
 Title
 -----
 Symbolic Z-matrix:
 Charge =  0 Multiplicity = 1
 C                    -0.53685   0.10417   0.01464 
 O                    -1.63632  -0.67637  -0.06827 
 C                     0.72601  -0.7177    0.10528 
 H                     0.71699  -1.15712   1.11445 
 H                     0.64338  -1.5538   -0.59228 
 N                     1.88901   0.09773  -0.1951 
 H                     1.74816   1.04081   0.14593 
 H                     2.72354  -0.27843   0.23189 
 O                    -0.58681   1.30563   0.04628 
 H                    -2.40509  -0.08851  -0.07785 
 
 The following ModRedundant input section has been read:
 D       9       1       2      10 S  10 36.000                                
 
 ITRead=  0  0  0  0  0  0  0  0  0  0
 MicOpt= -1 -1 -1 -1 -1 -1 -1 -1 -1 -1
 NAtoms=     10 NQM=       10 NQMF=       0 NMMI=      0 NMMIF=      0
                NMic=       0 NMicF=      0.
                    Isotopes and Nuclear Properties:
 (Nuclear quadrupole moments (NQMom) in fm**2, nuclear magnetic moments (NMagM)
  in nuclear magnetons)

  Atom         1           2           3           4           5           6           7           8           9          10
 IAtWgt=          12          16          12           1           1          14           1           1          16           1
 AtmWgt=  12.0000000  15.9949146  12.0000000   1.0078250   1.0078250  14.0030740   1.0078250   1.0078250  15.9949146   1.0078250
 NucSpn=           0           0           0           1           1           2           1           1           0           1
 AtZEff=  -0.0000000  -0.0000000  -0.0000000  -0.0000000  -0.0000000  -0.0000000  -0.0000000  -0.0000000  -0.0000000  -0.0000000
 NQMom=    0.0000000   0.0000000   0.0000000   0.0000000   0.0000000   2.0440000   0.0000000   0.0000000   0.0000000   0.0000000
 NMagM=    0.0000000   0.0000000   0.0000000   2.7928460   2.7928460   0.4037610   2.7928460   2.7928460   0.0000000   2.7928460
 AtZNuc=   6.0000000   8.0000000   6.0000000   1.0000000   1.0000000   7.0000000   1.0000000   1.0000000   8.0000000   1.0000000
 Leave Link  101 at Mon Jan  1 12:36:07 2024, MaxMem=   134217728 cpu:               0.8 elap:               0.3
 (Enter /home/emanuele/chem_software/gaussian//gdv/l103.exe)

 GradGradGradGradGradGradGradGradGradGradGradGradGradGradGradGradGradGrad
 Berny optimization.
 Initialization pass.
                           ----------------------------
                           !    Initial Parameters    !
                           ! (Angstroms and Degrees)  !
 --------------------------                            --------------------------
 ! Name  Definition              Value          Derivative Info.                !
 --------------------------------------------------------------------------------
 ! R1    R(1,2)                  1.3509         estimate D2E/DX2                !
 ! R2    R(1,3)                  1.5095         estimate D2E/DX2                !
 ! R3    R(1,9)                  1.2029         estimate D2E/DX2                !
 ! R4    R(2,10)                 0.9678         estimate D2E/DX2                !
 ! R5    R(3,4)                  1.1007         estimate D2E/DX2                !
 ! R6    R(3,5)                  1.092          estimate D2E/DX2                !
 ! R7    R(3,6)                  1.4518         estimate D2E/DX2                !
 ! R8    R(6,7)                  1.0127         estimate D2E/DX2                !
 ! R9    R(6,8)                  1.0101         estimate D2E/DX2                !
 ! A1    A(2,1,3)              111.7154         estimate D2E/DX2                !
 ! A2    A(2,1,9)              123.0182         estimate D2E/DX2                !
 ! A3    A(3,1,9)              125.2388         estimate D2E/DX2                !
 ! A4    A(1,2,10)             107.2257         estimate D2E/DX2                !
 ! A5    A(1,3,4)              105.4003         estimate D2E/DX2                !
 ! A6    A(1,3,5)              108.3736         estimate D2E/DX2                !
 ! A7    A(1,3,6)              110.6071         estimate D2E/DX2                !
 ! A8    A(4,3,5)              106.2232         estimate D2E/DX2                !
 ! A9    A(4,3,6)              114.8648         estimate D2E/DX2                !
 ! A10   A(5,3,6)              111.0079         estimate D2E/DX2                !
 ! A11   A(3,6,7)              109.9968         estimate D2E/DX2                !
 ! A12   A(3,6,8)              111.4207         estimate D2E/DX2                !
 ! A13   A(7,6,8)              108.6253         estimate D2E/DX2                !
 ! D1    D(3,1,2,10)           177.195          estimate D2E/DX2                !
 ! D2    D(9,1,2,10)            -0.9857         Scan                            !
 ! D3    D(2,1,3,4)            -71.8288         estimate D2E/DX2                !
 ! D4    D(2,1,3,5)             41.552          estimate D2E/DX2                !
 ! D5    D(2,1,3,6)            163.4539         estimate D2E/DX2                !
 ! D6    D(9,1,3,4)            106.3034         estimate D2E/DX2                !
 ! D7    D(9,1,3,5)           -140.3158         estimate D2E/DX2                !
 ! D8    D(9,1,3,6)            -18.4139         estimate D2E/DX2                !
 ! D9    D(1,3,6,7)             34.6533         estimate D2E/DX2                !
 ! D10   D(1,3,6,8)            155.1742         estimate D2E/DX2                !
 ! D11   D(4,3,6,7)            -84.4877         estimate D2E/DX2                !
 ! D12   D(4,3,6,8)             36.0331         estimate D2E/DX2                !
 ! D13   D(5,3,6,7)            154.9936         estimate D2E/DX2                !
 ! D14   D(5,3,6,8)            -84.4855         estimate D2E/DX2                !
 --------------------------------------------------------------------------------
 Trust Radius=3.00D-01 FncErr=1.00D-07 GrdErr=1.00D-06 EigMax=2.50D+02 EigMin=1.00D-04
 Number of optimizations in scan=  11
 Number of steps in this run=    100 maximum allowed number of steps=    100.
 GradGradGradGradGradGradGradGradGradGradGradGradGradGradGradGradGradGrad

 Leave Link  103 at Mon Jan  1 12:36:07 2024, MaxMem=   134217728 cpu:               0.0 elap:               0.0
 (Enter /home/emanuele/chem_software/gaussian//gdv/l202.exe)
                          Input orientation:                          
 ---------------------------------------------------------------------
 Center     Atomic      Atomic             Coordinates (Angstroms)
 Number     Number       Type             X           Y           Z
 ---------------------------------------------------------------------
      1          6           0       -0.536850    0.104174    0.014636
      2          8           0       -1.636322   -0.676373   -0.068268
      3          6           0        0.726013   -0.717700    0.105280
      4          1           0        0.716994   -1.157121    1.114447
      5          1           0        0.643380   -1.553795   -0.592281
      6          7           0        1.889013    0.097733   -0.195097
      7          1           0        1.748159    1.040807    0.145925
      8          1           0        2.723536   -0.278432    0.231888
      9          8           0       -0.586810    1.305633    0.046275
     10          1           0       -2.405088   -0.088514   -0.077854
 ---------------------------------------------------------------------
                    Distance matrix (angstroms):
                    1          2          3          4          5
     1  C    0.000000
     2  O    1.350913   0.000000
     3  C    1.509475   2.369062   0.000000
     4  H    2.091070   2.677318   1.100723   0.000000
     5  H    2.123712   2.498299   1.092005   1.753764   0.000000
     6  N    2.434921   3.611553   1.451801   2.159443   2.106395
     7  H    2.473011   3.801223   2.034400   2.613852   2.915038
     8  H    3.289940   4.388258   2.049167   2.361613   2.575433
     9  O    1.202913   2.245650   2.412646   2.984301   3.177648
    10  H    1.880424   0.967818   3.198938   3.508689   3.421234
                    6          7          8          9         10
     6  N    0.000000
     7  H    1.012682   0.000000
     8  H    1.010072   1.642906   0.000000
     9  O    2.765318   2.352051   3.674521   0.000000
    10  H    4.299737   4.309861   5.141478   2.294600   0.000000
 Symmetry turned off by external request.
 Stoichiometry    C2H5NO2
 Framework group  C1[X(C2H5NO2)]
 Deg. of freedom    24
 Full point group                 C1      NOp   1
 Rotational constants (GHZ):          10.4489861           3.9571341           2.9518000
 Leave Link  202 at Mon Jan  1 12:36:07 2024, MaxMem=   134217728 cpu:               0.1 elap:               0.0
 (Enter /home/emanuele/chem_software/gaussian//gdv/l301.exe)
 Standard basis: 6-31G (6D, 7F)
 Ernie: Thresh=  0.10000D-02 Tol=  0.10000D-05 Strict=F.
    55 basis functions,   130 primitive gaussians,    55 cartesian basis functions
    20 alpha electrons       20 beta electrons
       nuclear repulsion energy       179.9791115102 Hartrees.
 IExCor=   10009 DFT=T Ex=PBE Corr=PBE N6=None ScaHFX=  0.000000
 ScaDFX=  1.000000  1.000000  1.000000  1.000000  1.000000  0.000000
 ScaDFX=  0.000000  0.000000  0.000000  0.000000  0.000000  0.000000
 IRadAn=      5 IRanWt=     -1 IRanGd=            0 ICorTp=0 IEmpDi=  4
 NAtoms=   10 NActive=   10 NUniq=   10 SFac= 1.00D+00 NAtFMM=   60 NAOKFM=F Big=F
 Integral buffers will be    131072 words long.
 Raffenetti 2 integral format.
 Two-electron integral symmetry is turned off.
 Leave Link  301 at Mon Jan  1 12:36:07 2024, MaxMem=   134217728 cpu:               0.2 elap:               0.1
 (Enter /home/emanuele/chem_software/gaussian//gdv/l302.exe)
 NPDir=0 NMtPBC=     1 NCelOv=     1 NCel=       1 NClECP=     1 NCelD=      1
         NCelK=      1 NCelE2=     1 NClLst=     1 CellRange=     0.0.
 One-electron integrals computed using PRISM.
 NBasis=    55 RedAO= T EigKep=  5.66D-03  NBF=    55
 NBsUse=    55 1.00D-06 EigRej= -1.00D+00 NBFU=    55
 Precomputing XC quadrature grid using
 IXCGrd= 4 IRadAn=           5 IRanWt=          -1 IRanGd=           0 AccXCQ= 0.00D+00.
 Generated NRdTot=       0 NPtTot=      218924 NUsed=           0 NTot=          64
 NSgBfM=    55    55    55    55    55 MxSgAt=    10 MxSgA2=    10 SizInc=   0.000
 NMBTot=     1903 MaxBatPerAtom=       84 MaxMicBPerAtom=      198.
 Leave Link  302 at Mon Jan  1 12:36:08 2024, MaxMem=   134217728 cpu:               0.7 elap:               0.2
 (Enter /home/emanuele/chem_software/gaussian//gdv/l303.exe)
 DipDrv:  MaxL=1.
 Leave Link  303 at Mon Jan  1 12:36:08 2024, MaxMem=   134217728 cpu:               0.2 elap:               0.0
 (Enter /home/emanuele/chem_software/gaussian//gdv/l401.exe)
 ExpMin= 1.61D-01 ExpMax= 5.48D+03 ExpMxC= 8.25D+02 IAcc=3 IRadAn=         5 AccDes= 0.00D+00
 Harris functional with IExCor=10009 and IRadAn=       5 diagonalized for initial guess.
 HarFok:  IExCor=   10009 AccDes= 0.00D+00 IRadAn=         5 IDoV= 1 UseB2=F ITyADJ=14 ICtDFT=  3500011
 FoFCou: FMM=F IPFlag=           0 FMFlag=      100000 FMFlg1=           0
         NFxFlg=           0 DoJE=T BraDBF=F KetDBF=T FulRan=T
         wScrn=  0.000000 ICntrl=       500 IOpCl=  0 I1Cent=   200000004 NGrid=           0
         NMat0=    1 NMatS0=      1 NMatT0=    0 NMatD0=    1 NMtDS0=    0 NMtDT0=    0
 Symmetry not used in FoFCou.
 Harris En= -284.094167280963    
 JPrj=0 DoOrth=F DoCkMO=F.
 Leave Link  401 at Mon Jan  1 12:36:08 2024, MaxMem=   134217728 cpu:               2.4 elap:               0.7
 (Enter /home/emanuele/chem_software/gaussian//gdv/l502.exe)
 Keep J ints in memory in canonical form, NReq=4700713.
 FoFCou: FMM=F IPFlag=           0 FMFlag=           0 FMFlg1=           0
         NFxFlg=           0 DoJE=F BraDBF=F KetDBF=F FulRan=T
         wScrn=  0.000000 ICntrl=       600 IOpCl=  0 I1Cent=           0 NGrid=           0
         NMat0=    1 NMatS0=   1540 NMatT0=    0 NMatD0=    1 NMtDS0=    0 NMtDT0=    0
 Symmetry not used in FoFCou.
 Two-electron integral symmetry not used.
 Closed shell SCF:
 Using DIIS extrapolation, IDIIS=  1040.
 NGot=   134217728 LenX=   133023731 LenY=   133020265
 Requested convergence on RMS density matrix=1.00D-08 within 128 cycles.
 Requested convergence on MAX density matrix=1.00D-06.
 Requested convergence on             energy=1.00D-06.
 No special actions if energy rises.
 Integral accuracy reduced to 1.0D-05 until final iterations.

 Cycle   1  Pass 0  IDiag  1:
 E= -283.851103811744    
 DIIS: error= 4.55D-02 at cycle   1 NSaved=   1.
 NSaved= 1 IEnMin= 1 EnMin= -283.851103811744     IErMin= 1 ErrMin= 4.55D-02
 ErrMax= 4.55D-02  0.00D+00 EMaxC= 1.00D-01 BMatC= 1.73D-01 BMatP= 1.73D-01
 IDIUse=3 WtCom= 5.45D-01 WtEn= 4.55D-01
 Coeff-Com:  0.100D+01
 Coeff-En:   0.100D+01
 Coeff:      0.100D+01
 Gap=     0.036 Goal=   None    Shift=    0.000
 GapD=    0.036 DampG=0.250 DampE=0.500 DampFc=0.2500 IDamp=-1.
 Damping current iteration by 2.50D-01
 RMSDP=2.37D-02 MaxDP=2.45D-01              OVMax= 2.91D-01

 Cycle   2  Pass 0  IDiag  1:
 E= -283.901317743674     Delta-E=       -0.050213931931 Rises=F Damp=T
 DIIS: error= 1.71D-02 at cycle   2 NSaved=   2.
 NSaved= 2 IEnMin= 2 EnMin= -283.901317743674     IErMin= 2 ErrMin= 1.71D-02
 ErrMax= 1.71D-02  0.00D+00 EMaxC= 1.00D-01 BMatC= 1.74D-02 BMatP= 1.73D-01
 IDIUse=3 WtCom= 8.29D-01 WtEn= 1.71D-01
 Coeff-Com: -0.251D+00 0.125D+01
 Coeff-En:   0.881D-01 0.912D+00
 Coeff:     -0.193D+00 0.119D+01
 Gap=     0.085 Goal=   None    Shift=    0.000
 RMSDP=6.36D-03 MaxDP=6.77D-02 DE=-5.02D-02 OVMax= 2.42D-01

 Cycle   3  Pass 0  IDiag  1:
 E= -283.949667404943     Delta-E=       -0.048349661269 Rises=F Damp=F
 DIIS: error= 3.63D-02 at cycle   3 NSaved=   3.
 NSaved= 3 IEnMin= 3 EnMin= -283.949667404943     IErMin= 2 ErrMin= 1.71D-02
 ErrMax= 3.63D-02  0.00D+00 EMaxC= 1.00D-01 BMatC= 6.47D-02 BMatP= 1.74D-02
 IDIUse=2 WtCom= 0.00D+00 WtEn= 1.00D+00
 EnCoef did     7 forward-backward iterations
 Coeff-En:   0.104D+00 0.707D-01 0.825D+00
 Coeff:      0.104D+00 0.707D-01 0.825D+00
 Gap=     0.155 Goal=   None    Shift=    0.000
 RMSDP=1.49D-02 MaxDP=1.85D-01 DE=-4.83D-02 OVMax= 3.57D-01

 Cycle   4  Pass 0  IDiag  1:
 E= -283.619143461240     Delta-E=        0.330523943703 Rises=F Damp=F
 DIIS: error= 1.09D-01 at cycle   4 NSaved=   4.
 NSaved= 4 IEnMin= 3 EnMin= -283.949667404943     IErMin= 2 ErrMin= 1.71D-02
 ErrMax= 1.09D-01  0.00D+00 EMaxC= 1.00D-01 BMatC= 4.77D-01 BMatP= 1.74D-02
 IDIUse=2 WtCom= 0.00D+00 WtEn= 1.00D+00
 EnCoef did     1 forward-backward iterations
 Coeff-En:   0.368D-01 0.000D+00 0.778D+00 0.185D+00
 Coeff:      0.368D-01 0.000D+00 0.778D+00 0.185D+00
 Gap=     0.186 Goal=   None    Shift=    0.000
 RMSDP=8.92D-03 MaxDP=1.11D-01 DE= 3.31D-01 OVMax= 2.04D-01

 Cycle   5  Pass 0  IDiag  1:
 E= -283.969051555089     Delta-E=       -0.349908093849 Rises=F Damp=F
 DIIS: error= 3.01D-02 at cycle   5 NSaved=   5.
 NSaved= 5 IEnMin= 5 EnMin= -283.969051555089     IErMin= 2 ErrMin= 1.71D-02
 ErrMax= 3.01D-02  0.00D+00 EMaxC= 1.00D-01 BMatC= 4.36D-02 BMatP= 1.74D-02
 IDIUse=2 WtCom= 0.00D+00 WtEn= 1.00D+00
 Coeff-En:   0.000D+00 0.000D+00 0.424D+00 0.000D+00 0.576D+00
 Coeff:      0.000D+00 0.000D+00 0.424D+00 0.000D+00 0.576D+00
 Gap=     0.137 Goal=   None    Shift=    0.000
 RMSDP=3.35D-03 MaxDP=4.91D-02 DE=-3.50D-01 OVMax= 8.02D-02

 Cycle   6  Pass 0  IDiag  1:
 E= -284.002773987010     Delta-E=       -0.033722431921 Rises=F Damp=F
 DIIS: error= 6.19D-03 at cycle   6 NSaved=   6.
 NSaved= 6 IEnMin= 6 EnMin= -284.002773987010     IErMin= 6 ErrMin= 6.19D-03
 ErrMax= 6.19D-03  0.00D+00 EMaxC= 1.00D-01 BMatC= 1.79D-03 BMatP= 1.74D-02
 IDIUse=3 WtCom= 9.38D-01 WtEn= 6.19D-02
 Coeff-Com: -0.652D-01 0.124D+00 0.224D+00-0.513D-01 0.430D+00 0.338D+00
 Coeff-En:   0.000D+00 0.000D+00 0.000D+00 0.000D+00 0.000D+00 0.100D+01
 Coeff:     -0.612D-01 0.117D+00 0.210D+00-0.481D-01 0.403D+00 0.379D+00
 Gap=     0.143 Goal=   None    Shift=    0.000
 RMSDP=6.46D-04 MaxDP=1.05D-02 DE=-3.37D-02 OVMax= 8.76D-03

 Cycle   7  Pass 0  IDiag  1:
 E= -284.004127398428     Delta-E=       -0.001353411418 Rises=F Damp=F
 DIIS: error= 1.16D-03 at cycle   7 NSaved=   7.
 NSaved= 7 IEnMin= 7 EnMin= -284.004127398428     IErMin= 7 ErrMin= 1.16D-03
 ErrMax= 1.16D-03  0.00D+00 EMaxC= 1.00D-01 BMatC= 6.54D-05 BMatP= 1.79D-03
 IDIUse=3 WtCom= 9.88D-01 WtEn= 1.16D-02
 Coeff-Com: -0.177D-01 0.315D-01 0.595D-01-0.201D-01 0.137D+00 0.226D+00
 Coeff-Com:  0.584D+00
 Coeff-En:   0.000D+00 0.000D+00 0.000D+00 0.000D+00 0.000D+00 0.000D+00
 Coeff-En:   0.100D+01
 Coeff:     -0.175D-01 0.312D-01 0.588D-01-0.199D-01 0.135D+00 0.224D+00
 Coeff:      0.589D+00
 Gap=     0.143 Goal=   None    Shift=    0.000
 RMSDP=1.44D-04 MaxDP=1.68D-03 DE=-1.35D-03 OVMax= 2.01D-03

 Cycle   8  Pass 0  IDiag  1:
 E= -284.004179953339     Delta-E=       -0.000052554912 Rises=F Damp=F
 DIIS: error= 2.16D-04 at cycle   8 NSaved=   8.
 NSaved= 8 IEnMin= 8 EnMin= -284.004179953339     IErMin= 8 ErrMin= 2.16D-04
 ErrMax= 2.16D-04  0.00D+00 EMaxC= 1.00D-01 BMatC= 3.16D-06 BMatP= 6.54D-05
 IDIUse=3 WtCom= 9.98D-01 WtEn= 2.16D-03
 Coeff-Com:  0.328D-02-0.596D-02 0.215D-02-0.121D-02 0.982D-02 0.790D-01
 Coeff-Com:  0.318D+00 0.595D+00
 Coeff-En:   0.000D+00 0.000D+00 0.000D+00 0.000D+00 0.000D+00 0.000D+00
 Coeff-En:   0.000D+00 0.100D+01
 Coeff:      0.328D-02-0.595D-02 0.215D-02-0.121D-02 0.980D-02 0.788D-01
 Coeff:      0.318D+00 0.596D+00
 Gap=     0.143 Goal=   None    Shift=    0.000
 RMSDP=3.03D-05 MaxDP=3.75D-04 DE=-5.26D-05 OVMax= 3.27D-04

 Cycle   9  Pass 0  IDiag  1:
 E= -284.004182942898     Delta-E=       -0.000002989559 Rises=F Damp=F
 DIIS: error= 1.25D-05 at cycle   9 NSaved=   9.
 NSaved= 9 IEnMin= 9 EnMin= -284.004182942898     IErMin= 9 ErrMin= 1.25D-05
 ErrMax= 1.25D-05  0.00D+00 EMaxC= 1.00D-01 BMatC= 1.51D-08 BMatP= 3.16D-06
 IDIUse=1 WtCom= 1.00D+00 WtEn= 0.00D+00
 Coeff-Com:  0.856D-03-0.111D-02 0.229D-03-0.129D-03 0.103D-02 0.173D-01
 Coeff-Com:  0.831D-01 0.174D+00 0.725D+00
 Coeff:      0.856D-03-0.111D-02 0.229D-03-0.129D-03 0.103D-02 0.173D-01
 Coeff:      0.831D-01 0.174D+00 0.725D+00
 Gap=     0.143 Goal=   None    Shift=    0.000
 RMSDP=3.69D-06 MaxDP=2.36D-05 DE=-2.99D-06 OVMax= 3.01D-05

 Initial convergence to 1.0D-05 achieved.  Increase integral accuracy.
 Cycle  10  Pass 1  IDiag  1:
 E= -284.004187388350     Delta-E=       -0.000004445452 Rises=F Damp=F
 DIIS: error= 5.06D-06 at cycle   1 NSaved=   1.
 NSaved= 1 IEnMin= 1 EnMin= -284.004187388350     IErMin= 1 ErrMin= 5.06D-06
 ErrMax= 5.06D-06  0.00D+00 EMaxC= 1.00D-01 BMatC= 2.71D-09 BMatP= 2.71D-09
 IDIUse=1 WtCom= 1.00D+00 WtEn= 0.00D+00
 Coeff-Com:  0.100D+01
 Coeff:      0.100D+01
 Gap=     0.143 Goal=   None    Shift=    0.000
 RMSDP=3.69D-06 MaxDP=2.36D-05 DE=-4.45D-06 OVMax= 2.53D-05

 Cycle  11  Pass 1  IDiag  1:
 E= -284.004187385661     Delta-E=        0.000000002689 Rises=F Damp=F
 DIIS: error= 9.32D-06 at cycle   2 NSaved=   2.
 NSaved= 2 IEnMin= 1 EnMin= -284.004187388350     IErMin= 1 ErrMin= 5.06D-06
 ErrMax= 9.32D-06  0.00D+00 EMaxC= 1.00D-01 BMatC= 5.96D-09 BMatP= 2.71D-09
 IDIUse=1 WtCom= 1.00D+00 WtEn= 0.00D+00
 Coeff-Com:  0.601D+00 0.399D+00
 Coeff:      0.601D+00 0.399D+00
 Gap=     0.143 Goal=   None    Shift=    0.000
 RMSDP=1.46D-06 MaxDP=1.72D-05 DE= 2.69D-09 OVMax= 1.57D-05

 Cycle  12  Pass 1  IDiag  1:
 E= -284.004187391020     Delta-E=       -0.000000005359 Rises=F Damp=F
 DIIS: error= 2.19D-06 at cycle   3 NSaved=   3.
 NSaved= 3 IEnMin= 3 EnMin= -284.004187391020     IErMin= 3 ErrMin= 2.19D-06
 ErrMax= 2.19D-06  0.00D+00 EMaxC= 1.00D-01 BMatC= 2.84D-10 BMatP= 2.71D-09
 IDIUse=1 WtCom= 1.00D+00 WtEn= 0.00D+00
 Coeff-Com:  0.327D+00 0.247D+00 0.425D+00
 Coeff:      0.327D+00 0.247D+00 0.425D+00
 Gap=     0.143 Goal=   None    Shift=    0.000
 RMSDP=4.17D-07 MaxDP=6.40D-06 DE=-5.36D-09 OVMax= 9.71D-06

 Cycle  13  Pass 1  IDiag  1:
 E= -284.004187391169     Delta-E=       -0.000000000149 Rises=F Damp=F
 DIIS: error= 1.51D-06 at cycle   4 NSaved=   4.
 NSaved= 4 IEnMin= 4 EnMin= -284.004187391169     IErMin= 4 ErrMin= 1.51D-06
 ErrMax= 1.51D-06  0.00D+00 EMaxC= 1.00D-01 BMatC= 9.97D-11 BMatP= 2.84D-10
 IDIUse=1 WtCom= 1.00D+00 WtEn= 0.00D+00
 Coeff-Com:  0.106D+00 0.964D-01 0.348D+00 0.449D+00
 Coeff:      0.106D+00 0.964D-01 0.348D+00 0.449D+00
 Gap=     0.143 Goal=   None    Shift=    0.000
 RMSDP=1.96D-07 MaxDP=2.70D-06 DE=-1.49D-10 OVMax= 4.92D-06

 Cycle  14  Pass 1  IDiag  1:
 E= -284.004187391240     Delta-E=       -0.000000000071 Rises=F Damp=F
 DIIS: error= 4.19D-07 at cycle   5 NSaved=   5.
 NSaved= 5 IEnMin= 5 EnMin= -284.004187391240     IErMin= 5 ErrMin= 4.19D-07
 ErrMax= 4.19D-07  0.00D+00 EMaxC= 1.00D-01 BMatC= 1.14D-11 BMatP= 9.97D-11
 IDIUse=1 WtCom= 1.00D+00 WtEn= 0.00D+00
 Coeff-Com:  0.515D-02 0.155D-01 0.147D+00 0.310D+00 0.522D+00
 Coeff:      0.515D-02 0.155D-01 0.147D+00 0.310D+00 0.522D+00
 Gap=     0.143 Goal=   None    Shift=    0.000
 RMSDP=5.82D-08 MaxDP=7.03D-07 DE=-7.11D-11 OVMax= 1.05D-06

 Cycle  15  Pass 1  IDiag  1:
 E= -284.004187391250     Delta-E=       -0.000000000010 Rises=F Damp=F
 DIIS: error= 6.60D-08 at cycle   6 NSaved=   6.
 NSaved= 6 IEnMin= 6 EnMin= -284.004187391250     IErMin= 6 ErrMin= 6.60D-08
 ErrMax= 6.60D-08  0.00D+00 EMaxC= 1.00D-01 BMatC= 2.36D-13 BMatP= 1.14D-11
 IDIUse=1 WtCom= 1.00D+00 WtEn= 0.00D+00
 Coeff-Com:  0.368D-03 0.569D-02 0.670D-01 0.151D+00 0.283D+00 0.493D+00
 Coeff:      0.368D-03 0.569D-02 0.670D-01 0.151D+00 0.283D+00 0.493D+00
 Gap=     0.143 Goal=   None    Shift=    0.000
 RMSDP=1.22D-08 MaxDP=1.25D-07 DE=-9.78D-12 OVMax= 1.64D-07

 Cycle  16  Pass 1  IDiag  1:
 E= -284.004187391250     Delta-E=       -0.000000000000 Rises=F Damp=F
 DIIS: error= 2.37D-08 at cycle   7 NSaved=   7.
 NSaved= 7 IEnMin= 7 EnMin= -284.004187391250     IErMin= 7 ErrMin= 2.37D-08
 ErrMax= 2.37D-08  0.00D+00 EMaxC= 1.00D-01 BMatC= 3.67D-14 BMatP= 2.36D-13
 IDIUse=1 WtCom= 1.00D+00 WtEn= 0.00D+00
 Coeff-Com: -0.367D-03 0.203D-02 0.287D-01 0.653D-01 0.131D+00 0.317D+00
 Coeff-Com:  0.456D+00
 Coeff:     -0.367D-03 0.203D-02 0.287D-01 0.653D-01 0.131D+00 0.317D+00
 Coeff:      0.456D+00
 Gap=     0.143 Goal=   None    Shift=    0.000
 RMSDP=3.66D-09 MaxDP=3.72D-08 DE=-1.14D-13 OVMax= 5.19D-08

 SCF Done:  E(RPBE-PBE) =  -284.004187391     A.U. after   16 cycles
            NFock= 16  Conv=0.37D-08     -V/T= 2.0040
 KE= 2.828669380632D+02 PE=-1.026522799436D+03 EE= 2.796725624715D+02
 Leave Link  502 at Mon Jan  1 12:36:15 2024, MaxMem=   134217728 cpu:              24.4 elap:               6.9
 (Enter /home/emanuele/chem_software/gaussian//gdv/l601.exe)
 Copying SCF densities to generalized density rwf, IOpCl= 0 IROHF=0.

 **********************************************************************

            Population analysis using the SCF Density.

 **********************************************************************

 Alpha  occ. eigenvalues --      -18.82348     -18.77534     -13.97630     -10.03307      -9.93269
 Alpha  occ. eigenvalues --       -1.05039      -0.96249      -0.81873      -0.66701      -0.55720
 Alpha  occ. eigenvalues --       -0.47745      -0.44302      -0.42425      -0.39740      -0.38172
 Alpha  occ. eigenvalues --       -0.35810      -0.33438      -0.28324      -0.24012      -0.17687
 Alpha virt. eigenvalues --       -0.03408       0.03977       0.06266       0.10563       0.13621
 Alpha virt. eigenvalues --        0.14128       0.18881       0.20070       0.25560       0.32190
 Alpha virt. eigenvalues --        0.49787       0.52370       0.54892       0.58524       0.63914
 Alpha virt. eigenvalues --        0.64910       0.68021       0.72965       0.75778       0.78417
 Alpha virt. eigenvalues --        0.83864       0.86168       0.87444       0.90129       0.91413
 Alpha virt. eigenvalues --        0.92742       0.95703       0.99926       1.04360       1.08154
 Alpha virt. eigenvalues --        1.14357       1.29543       1.58698       1.69096       1.83861
          Condensed to atoms (all electrons):
               1          2          3          4          5          6
     1  C    4.866057   0.154675   0.159242  -0.030441  -0.020108  -0.039846
     2  O    0.154675   8.362489  -0.132271   0.003086   0.005400   0.002017
     3  C    0.159242  -0.132271   5.410743   0.343186   0.344277   0.287055
     4  H   -0.030441   0.003086   0.343186   0.627998  -0.052275  -0.056772
     5  H   -0.020108   0.005400   0.344277  -0.052275   0.563810  -0.050520
     6  N   -0.039846   0.002017   0.287055  -0.056772  -0.050520   6.896220
     7  H   -0.004593   0.000755  -0.056970   0.001298   0.005805   0.317217
     8  H    0.006591  -0.000085  -0.037366  -0.006092   0.000225   0.315923
     9  O    0.516080  -0.118030  -0.118642  -0.000661   0.002442  -0.003494
    10  H   -0.010506   0.217765   0.013527  -0.000559  -0.000372  -0.000229
               7          8          9         10
     1  C   -0.004593   0.006591   0.516080  -0.010506
     2  O    0.000755  -0.000085  -0.118030   0.217765
     3  C   -0.056970  -0.037366  -0.118642   0.013527
     4  H    0.001298  -0.006092  -0.000661  -0.000559
     5  H    0.005805   0.000225   0.002442  -0.000372
     6  N    0.317217   0.315923  -0.003494  -0.000229
     7  H    0.455047  -0.036030   0.019938  -0.000043
     8  H   -0.036030   0.474499   0.000332   0.000007
     9  O    0.019938   0.000332   8.049361   0.007405
    10  H   -0.000043   0.000007   0.007405   0.397083
 Mulliken charges:
               1
     1  C    0.402849
     2  O   -0.495802
     3  C   -0.212783
     4  H    0.171232
     5  H    0.201314
     6  N   -0.667572
     7  H    0.297575
     8  H    0.281996
     9  O   -0.354733
    10  H    0.375922
 Sum of Mulliken charges =  -0.00000
 Mulliken charges with hydrogens summed into heavy atoms:
               1
     1  C    0.402849
     2  O   -0.119880
     3  C    0.159764
     6  N   -0.088000
     9  O   -0.354733
 Electronic spatial extent (au):  <R**2>=            416.6924
 Charge=             -0.0000 electrons
 Dipole moment (field-independent basis, Debye):
    X=             -0.3660    Y=             -1.1905    Z=              1.7107  Tot=              2.1161
 Quadrupole moment (field-independent basis, Debye-Ang):
   XX=            -22.7811   YY=            -33.0365   ZZ=            -30.3991
   XY=             -1.3141   XZ=              4.0071   YZ=              0.1584
 Traceless Quadrupole moment (field-independent basis, Debye-Ang):
   XX=              5.9578   YY=             -4.2976   ZZ=             -1.6602
   XY=             -1.3141   XZ=              4.0071   YZ=              0.1584
 Octapole moment (field-independent basis, Debye-Ang**2):
  XXX=            -14.3107  YYY=             -1.8153  ZZZ=              1.7946  XYY=              6.2675
  XXY=              3.4078  XXZ=              8.1736  XZZ=             -4.7178  YZZ=              0.2677
  YYZ=             -0.0888  XYZ=              0.9063
 Hexadecapole moment (field-independent basis, Debye-Ang**3):
 XXXX=           -240.1789 YYYY=           -138.8258 ZZZZ=            -35.6159 XXXY=             -6.3383
 XXXZ=             22.4364 YYYX=              4.2932 YYYZ=              1.5451 ZZZX=              4.2628
 ZZZY=              0.4290 XXYY=            -78.1044 XXZZ=            -66.0383 YYZZ=            -27.1527
 XXYZ=              0.7071 YYXZ=              0.8279 ZZXY=             -0.7605
 N-N= 1.799791115102D+02 E-N=-1.026522800275D+03  KE= 2.828669380632D+02
 No NMR shielding tensors so no spin-rotation constants.
 Leave Link  601 at Mon Jan  1 12:36:15 2024, MaxMem=   134217728 cpu:               0.4 elap:               0.1
 (Enter /home/emanuele/chem_software/gaussian//gdv/l701.exe)
 ... and contract with generalized density number  0.
 Compute integral first derivatives.
 Leave Link  701 at Mon Jan  1 12:36:15 2024, MaxMem=   134217728 cpu:               0.3 elap:               0.1
 (Enter /home/emanuele/chem_software/gaussian//gdv/l702.exe)
 L702 exits ... SP integral derivatives will be done elsewhere.
 Leave Link  702 at Mon Jan  1 12:36:16 2024, MaxMem=   134217728 cpu:               0.1 elap:               0.0
 (Enter /home/emanuele/chem_software/gaussian//gdv/l703.exe)
 Integral derivatives from FoFJK, PRISM(SPDF).
 Compute integral first derivatives, UseDBF=F ICtDFT=           0.
 Calling FoFJK, ICntrl=      2527 FMM=F ISym2X=0 I1Cent= 0 IOpClX= 0 NMat=1 NMatS=1 NMatT=0.
 FoFJK:  IHMeth= 1 ICntrl=    2527 DoSepK=F KAlg= 0 I1Cent=           0 FoldK=F
 IRaf=         0 NMat=       1 IRICut=       1 DoRegI=T DoRafI=F ISym2E= 0 IDoP0=0 IntGTp=1.
 FoFCou: FMM=F IPFlag=           0 FMFlag=      100000 FMFlg1=         800
         NFxFlg=           0 DoJE=F BraDBF=F KetDBF=F FulRan=T
         wScrn=  0.000000 ICntrl=      2527 IOpCl=  0 I1Cent=           0 NGrid=           0
         NMat0=    1 NMatS0=      1 NMatT0=    0 NMatD0=    1 NMtDS0=    0 NMtDT0=    0
 Symmetry not used in FoFCou.
 Leave Link  703 at Mon Jan  1 12:36:17 2024, MaxMem=   134217728 cpu:               5.1 elap:               1.4
 (Enter /home/emanuele/chem_software/gaussian//gdv/l716.exe)
 Dipole        =-1.43988374D-01-4.68368933D-01 6.73042054D-01
 -------------------------------------------------------------------
 Center     Atomic                   Forces (Hartrees/Bohr)
 Number     Number              X              Y              Z
 -------------------------------------------------------------------
      1        6           0.028013322   -0.049315475   -0.001738117
      2        8          -0.006374856   -0.027942083   -0.001031046
      3        6          -0.003546193    0.000397077   -0.004068071
      4        1          -0.000507227   -0.005481730    0.009320645
      5        1          -0.001185793   -0.006534529   -0.004777089
      6        7          -0.002043709   -0.000019789    0.002233754
      7        1          -0.002578517    0.014267242   -0.001301373
      8        1           0.012282482   -0.006214479   -0.000193135
      9        8          -0.001313682    0.070566420    0.002326296
     10        1          -0.022745827    0.010277346   -0.000771864
 -------------------------------------------------------------------
 Cartesian Forces:  Max     0.070566420 RMS     0.018508164
 Leave Link  716 at Mon Jan  1 12:36:17 2024, MaxMem=   134217728 cpu:               0.2 elap:               0.0
 (Enter /home/emanuele/chem_software/gaussian//gdv/l103.exe)

 GradGradGradGradGradGradGradGradGradGradGradGradGradGradGradGradGradGrad
 Berny optimization.
 FormGI is forming the generalized inverse of G from B-inverse, IUseBI=4.
 Internal  Forces:  Max     0.070596940 RMS     0.014536187
 Search for a local minimum.
 Step number   1 out of a maximum of  100 on scan point     1 out of    11
 All quantities printed in internal units (Hartrees-Bohrs-Radians)
 RMS Force = .14742D-01 SwitMx=.10000D-02 MixMth= 1
 Mixed Optimization -- RFO/linear search
 Second derivative matrix not updated -- first step.
 ITU=  0
     Eigenvalues ---    0.00641   0.01007   0.01302   0.04206   0.05224
     Eigenvalues ---    0.06483   0.09827   0.13119   0.16000   0.16000
     Eigenvalues ---    0.16000   0.21891   0.24987   0.25000   0.31403
     Eigenvalues ---    0.33602   0.34582   0.38010   0.45526   0.45961
     Eigenvalues ---    0.53825   0.54828   1.033731000.000001000.00000
     Eigenvalues --- 1000.000001000.000001000.000001000.000001000.00000
     Eigenvalues --- 1000.000001000.000001000.000001000.000001000.00000
     Eigenvalues --- 1000.00000
 RFO step:  Lambda=-1.18065638D-02 EMin= 6.40605360D-03
 Linear search not attempted -- first point.
 Iteration  1 RMS(Cart)=  0.04541248 RMS(Int)=  0.00162395
 Iteration  2 RMS(Cart)=  0.00124629 RMS(Int)=  0.00103841
 Iteration  3 RMS(Cart)=  0.00000127 RMS(Int)=  0.00103841
 Iteration  4 RMS(Cart)=  0.00000000 RMS(Int)=  0.00103841
 Fixing frozen coordinates.
 Iteration  1 RMS(Cart)=  0.00000153 RMS(Int)=  0.00000180
 Iteration  2 RMS(Cart)=  0.00000058 RMS(Int)=  0.00000200
 ITry= 1 IFail=0 DXMaxC= 1.39D-01 DCOld= 1.00D+10 DXMaxT= 3.00D-01 DXLimC= 3.00D+00 Rises=F
 Variable       Old X    -DE/DX   Delta X   Delta X   Delta X     New X
                                 (Linear)    (Quad)   (Total)
    R1        2.55286   0.03402   0.00000   0.06074   0.06074   2.61359
    R2        2.85250   0.00405   0.00000   0.01243   0.01243   2.86493
    R3        2.27318   0.07060   0.00000   0.06752   0.06752   2.34070
    R4        1.82891   0.02432   0.00000   0.04421   0.04421   1.87312
    R5        2.08006   0.01074   0.00000   0.03087   0.03087   2.11094
    R6        2.06359   0.00814   0.00000   0.02277   0.02277   2.08636
    R7        2.74351   0.01049   0.00000   0.02678   0.02678   2.77029
    R8        1.91369   0.01321   0.00000   0.02828   0.02828   1.94197
    R9        1.90876   0.01238   0.00000   0.02626   0.02626   1.93502
    A1        1.94980  -0.00150   0.00000  -0.00577  -0.00578   1.94402
    A2        2.14707   0.00262   0.00000   0.00997   0.00996   2.15704
    A3        2.18583  -0.00113   0.00000  -0.00433  -0.00434   2.18149
    A4        1.87144   0.01038   0.00000   0.06040   0.06040   1.93185
    A5        1.83958   0.00133   0.00000   0.00657   0.00663   1.84621
    A6        1.89148   0.00072   0.00000  -0.00128  -0.00129   1.89018
    A7        1.93046  -0.00386   0.00000  -0.01671  -0.01669   1.91376
    A8        1.85394  -0.00109   0.00000  -0.00560  -0.00563   1.84831
    A9        2.00477   0.00168   0.00000   0.01185   0.01186   2.01663
   A10        1.93745   0.00130   0.00000   0.00508   0.00502   1.94247
   A11        1.91981   0.00390   0.00000   0.04505   0.04236   1.96217
   A12        1.94466   0.00426   0.00000   0.04657   0.04393   1.98858
   A13        1.89587   0.00082   0.00000   0.04672   0.04245   1.93832
    D1        3.09264   0.00002   0.00000  -0.00480  -0.00482   3.08781
    D2       -0.01720   0.00030   0.00000   0.00000   0.00000  -0.01720
    D3       -1.25365   0.00038   0.00000   0.00534   0.00533  -1.24832
    D4        0.72522   0.00010   0.00000   0.00152   0.00149   0.72671
    D5        2.85281  -0.00023   0.00000  -0.00346  -0.00345   2.84936
    D6        1.85534   0.00018   0.00000   0.00073   0.00073   1.85608
    D7       -2.44897  -0.00011   0.00000  -0.00309  -0.00310  -2.45208
    D8       -0.32138  -0.00044   0.00000  -0.00808  -0.00805  -0.32943
    D9        0.60481  -0.00301   0.00000  -0.05840  -0.05943   0.54538
   D10        2.70830   0.00342   0.00000   0.06098   0.06199   2.77029
   D11       -1.47459  -0.00304   0.00000  -0.06273  -0.06372  -1.53831
   D12        0.62890   0.00339   0.00000   0.05665   0.05770   0.68660
   D13        2.70515  -0.00381   0.00000  -0.06776  -0.06881   2.63634
   D14       -1.47455   0.00262   0.00000   0.05161   0.05262  -1.42193
         Item               Value     Threshold  Converged?
 Maximum Force            0.070597     0.000450     NO 
 RMS     Force            0.014742     0.000300     NO 
 Maximum Displacement     0.139324     0.001800     NO 
 RMS     Displacement     0.045198     0.001200     NO 
 Predicted change in Energy=-6.236459D-03
 Lowest energy point so far.  Saving SCF results.
 GradGradGradGradGradGradGradGradGradGradGradGradGradGradGradGradGradGrad

 Leave Link  103 at Mon Jan  1 12:36:17 2024, MaxMem=   134217728 cpu:               0.1 elap:               0.0
 (Enter /home/emanuele/chem_software/gaussian//gdv/l202.exe)
                          Input orientation:                          
 ---------------------------------------------------------------------
 Center     Atomic      Atomic             Coordinates (Angstroms)
 Number     Number       Type             X           Y           Z
 ---------------------------------------------------------------------
      1          6           0       -0.530620    0.112144    0.021073
      2          8           0       -1.660237   -0.678978   -0.083455
      3          6           0        0.726301   -0.729514    0.121985
      4          1           0        0.702305   -1.190577    1.139171
      5          1           0        0.640741   -1.567313   -0.591956
      6          7           0        1.899637    0.099894   -0.168601
      7          1           0        1.768414    1.078366    0.116753
      8          1           0        2.776782   -0.276886    0.201759
      9          8           0       -0.562482    1.349517    0.067267
     10          1           0       -2.478815   -0.120239   -0.099045
 ---------------------------------------------------------------------
                    Distance matrix (angstroms):
                    1          2          3          4          5
     1  C    0.000000
     2  O    1.383053   0.000000
     3  C    1.516055   2.395898   0.000000
     4  H    2.113605   2.708903   1.117059   0.000000
     5  H    2.137398   2.518376   1.104056   1.772715   0.000000
     6  N    2.437678   3.645078   1.465972   2.192986   2.131578
     7  H    2.495655   3.857977   2.086733   2.707402   2.962014
     8  H    3.335101   4.464321   2.101358   2.452962   2.618751
     9  O    1.238645   2.311401   2.446697   3.033273   3.223386
    10  H    1.965679   0.991213   3.269991   3.577475   3.473992
                    6          7          8          9         10
     6  N    0.000000
     7  H    1.027645   0.000000
     8  H    1.023970   1.691372   0.000000
     9  O    2.771141   2.347136   3.716713   0.000000
    10  H    4.384534   4.418390   5.266528   2.420780   0.000000
 Symmetry turned off by external request.
 Stoichiometry    C2H5NO2
 Framework group  C1[X(C2H5NO2)]
 Deg. of freedom    24
 Full point group                 C1      NOp   1
 Rotational constants (GHZ):           9.9623871           3.8941715           2.8787844
 Leave Link  202 at Mon Jan  1 12:36:17 2024, MaxMem=   134217728 cpu:               0.0 elap:               0.0
 (Enter /home/emanuele/chem_software/gaussian//gdv/l301.exe)
 Standard basis: 6-31G (6D, 7F)
 Ernie: Thresh=  0.10000D-02 Tol=  0.10000D-05 Strict=F.
    55 basis functions,   130 primitive gaussians,    55 cartesian basis functions
    20 alpha electrons       20 beta electrons
       nuclear repulsion energy       177.1027431947 Hartrees.
 IExCor=   10009 DFT=T Ex=PBE Corr=PBE N6=None ScaHFX=  0.000000
 ScaDFX=  1.000000  1.000000  1.000000  1.000000  1.000000  0.000000
 ScaDFX=  0.000000  0.000000  0.000000  0.000000  0.000000  0.000000
 IRadAn=      5 IRanWt=     -1 IRanGd=            0 ICorTp=0 IEmpDi=  4
 NAtoms=   10 NActive=   10 NUniq=   10 SFac= 1.00D+00 NAtFMM=   60 NAOKFM=F Big=F
 Integral buffers will be    131072 words long.
 Raffenetti 2 integral format.
 Two-electron integral symmetry is turned off.
 Leave Link  301 at Mon Jan  1 12:36:17 2024, MaxMem=   134217728 cpu:               0.2 elap:               0.1
 (Enter /home/emanuele/chem_software/gaussian//gdv/l302.exe)
 NPDir=0 NMtPBC=     1 NCelOv=     1 NCel=       1 NClECP=     1 NCelD=      1
         NCelK=      1 NCelE2=     1 NClLst=     1 CellRange=     0.0.
 One-electron integrals computed using PRISM.
 NBasis=    55 RedAO= T EigKep=  6.09D-03  NBF=    55
 NBsUse=    55 1.00D-06 EigRej= -1.00D+00 NBFU=    55
 Precomputing XC quadrature grid using
 IXCGrd= 4 IRadAn=           5 IRanWt=          -1 IRanGd=           0 AccXCQ= 0.00D+00.
 Generated NRdTot=       0 NPtTot=      219274 NUsed=           0 NTot=          64
 NSgBfM=    55    55    55    55    55 MxSgAt=    10 MxSgA2=    10 SizInc=   0.000
 NMBTot=     1890 MaxBatPerAtom=       84 MaxMicBPerAtom=      202.
 Leave Link  302 at Mon Jan  1 12:36:17 2024, MaxMem=   134217728 cpu:               0.7 elap:               0.3
 (Enter /home/emanuele/chem_software/gaussian//gdv/l303.exe)
 DipDrv:  MaxL=1.
 Leave Link  303 at Mon Jan  1 12:36:18 2024, MaxMem=   134217728 cpu:               0.1 elap:               0.1
 (Enter /home/emanuele/chem_software/gaussian//gdv/l401.exe)
 Initial guess from the checkpoint file:  "3_qm.chk"
 B after Tr=     0.004688    0.013355    0.014897
         Rot=    0.999985   -0.003789    0.002861    0.002721 Ang=  -0.63 deg.
 AO Guess basis will be translated and rotated to current coordinates.
 JPrj=2 DoOrth=T DoCkMO=T.
 Generating alternative initial guess.
 ExpMin= 1.61D-01 ExpMax= 5.48D+03 ExpMxC= 8.25D+02 IAcc=3 IRadAn=         5 AccDes= 0.00D+00
 Harris functional with IExCor=10009 and IRadAn=       5 diagonalized for initial guess.
 HarFok:  IExCor=   10009 AccDes= 0.00D+00 IRadAn=         5 IDoV= 1 UseB2=F ITyADJ=14 ICtDFT=  3500011
 FoFCou: FMM=F IPFlag=           0 FMFlag=      100000 FMFlg1=           0
         NFxFlg=           0 DoJE=T BraDBF=F KetDBF=T FulRan=T
         wScrn=  0.000000 ICntrl=       500 IOpCl=  0 I1Cent=   200000004 NGrid=           0
         NMat0=    1 NMatS0=      1 NMatT0=    0 NMatD0=    1 NMtDS0=    0 NMtDT0=    0
 Symmetry not used in FoFCou.
 Harris En= -284.094128691170    
 Leave Link  401 at Mon Jan  1 12:36:18 2024, MaxMem=   134217728 cpu:               2.7 elap:               0.9
 (Enter /home/emanuele/chem_software/gaussian//gdv/l502.exe)
 Keep J ints in memory in canonical form, NReq=4700713.
 FoFCou: FMM=F IPFlag=           0 FMFlag=           0 FMFlg1=           0
         NFxFlg=           0 DoJE=F BraDBF=F KetDBF=F FulRan=T
         wScrn=  0.000000 ICntrl=       600 IOpCl=  0 I1Cent=           0 NGrid=           0
         NMat0=    1 NMatS0=   1540 NMatT0=    0 NMatD0=    1 NMtDS0=    0 NMtDT0=    0
 Symmetry not used in FoFCou.
 Two-electron integral symmetry not used.
 Closed shell SCF:
 Using DIIS extrapolation, IDIIS=  1040.
 NGot=   134217728 LenX=   133023731 LenY=   133020265
 Requested convergence on RMS density matrix=1.00D-08 within 128 cycles.
 Requested convergence on MAX density matrix=1.00D-06.
 Requested convergence on             energy=1.00D-06.
 No special actions if energy rises.
 Integral accuracy reduced to 1.0D-05 until final iterations.

 Cycle   1  Pass 0  IDiag  1:
 E= -284.007687233364    
 DIIS: error= 4.18D-03 at cycle   1 NSaved=   1.
 NSaved= 1 IEnMin= 1 EnMin= -284.007687233364     IErMin= 1 ErrMin= 4.18D-03
 ErrMax= 4.18D-03  0.00D+00 EMaxC= 1.00D-01 BMatC= 1.72D-03 BMatP= 1.72D-03
 IDIUse=3 WtCom= 9.58D-01 WtEn= 4.18D-02
 Coeff-Com:  0.100D+01
 Coeff-En:   0.100D+01
 Coeff:      0.100D+01
 Gap=     0.523 Goal=   None    Shift=    0.000
 GapD=    0.523 DampG=2.000 DampE=1.000 DampFc=2.0000 IDamp=-1.
 RMSDP=1.70D-03 MaxDP=1.11D-02              OVMax= 1.15D-02

 Cycle   2  Pass 0  IDiag  1:
 E= -284.009851706648     Delta-E=       -0.002164473285 Rises=F Damp=F
 DIIS: error= 1.58D-03 at cycle   2 NSaved=   2.
 NSaved= 2 IEnMin= 2 EnMin= -284.009851706648     IErMin= 2 ErrMin= 1.58D-03
 ErrMax= 1.58D-03  0.00D+00 EMaxC= 1.00D-01 BMatC= 3.21D-04 BMatP= 1.72D-03
 IDIUse=3 WtCom= 9.84D-01 WtEn= 1.58D-02
 Coeff-Com:  0.242D+00 0.758D+00
 Coeff-En:   0.000D+00 0.100D+01
 Coeff:      0.238D+00 0.762D+00
 Gap=     0.127 Goal=   None    Shift=    0.000
 RMSDP=5.81D-04 MaxDP=6.53D-03 DE=-2.16D-03 OVMax= 7.75D-03

 Cycle   3  Pass 0  IDiag  1:
 E= -284.009880245613     Delta-E=       -0.000028538965 Rises=F Damp=F
 DIIS: error= 1.96D-03 at cycle   3 NSaved=   3.
 NSaved= 3 IEnMin= 3 EnMin= -284.009880245613     IErMin= 2 ErrMin= 1.58D-03
 ErrMax= 1.96D-03  0.00D+00 EMaxC= 1.00D-01 BMatC= 3.17D-04 BMatP= 3.21D-04
 IDIUse=3 WtCom= 9.80D-01 WtEn= 1.96D-02
 Coeff-Com:  0.644D-01 0.495D+00 0.440D+00
 Coeff-En:   0.000D+00 0.478D+00 0.522D+00
 Coeff:      0.631D-01 0.495D+00 0.442D+00
 Gap=     0.127 Goal=   None    Shift=    0.000
 RMSDP=4.03D-04 MaxDP=5.28D-03 DE=-2.85D-05 OVMax= 1.02D-02

 Cycle   4  Pass 0  IDiag  1:
 E= -284.010047176205     Delta-E=       -0.000166930591 Rises=F Damp=F
 DIIS: error= 1.85D-03 at cycle   4 NSaved=   4.
 NSaved= 4 IEnMin= 4 EnMin= -284.010047176205     IErMin= 2 ErrMin= 1.58D-03
 ErrMax= 1.85D-03  0.00D+00 EMaxC= 1.00D-01 BMatC= 1.41D-04 BMatP= 3.17D-04
 IDIUse=3 WtCom= 9.82D-01 WtEn= 1.85D-02
 EnCoef did     4 forward-backward iterations
 Coeff-Com:  0.132D-01 0.296D+00 0.371D+00 0.320D+00
 Coeff-En:   0.000D+00 0.380D-01 0.313D+00 0.649D+00
 Coeff:      0.129D-01 0.292D+00 0.370D+00 0.326D+00
 Gap=     0.128 Goal=   None    Shift=    0.000
 RMSDP=2.09D-04 MaxDP=3.24D-03 DE=-1.67D-04 OVMax= 5.37D-03

 Cycle   5  Pass 0  IDiag  1:
 E= -284.010159556680     Delta-E=       -0.000112380475 Rises=F Damp=F
 DIIS: error= 1.73D-04 at cycle   5 NSaved=   5.
 NSaved= 5 IEnMin= 5 EnMin= -284.010159556680     IErMin= 5 ErrMin= 1.73D-04
 ErrMax= 1.73D-04  0.00D+00 EMaxC= 1.00D-01 BMatC= 1.89D-06 BMatP= 1.41D-04
 IDIUse=3 WtCom= 9.98D-01 WtEn= 1.73D-03
 Coeff-Com:  0.277D-02 0.103D+00 0.146D+00 0.175D+00 0.574D+00
 Coeff-En:   0.000D+00 0.000D+00 0.000D+00 0.000D+00 0.100D+01
 Coeff:      0.277D-02 0.103D+00 0.145D+00 0.174D+00 0.575D+00
 Gap=     0.128 Goal=   None    Shift=    0.000
 RMSDP=2.95D-05 MaxDP=3.13D-04 DE=-1.12D-04 OVMax= 4.71D-04

 Cycle   6  Pass 0  IDiag  1:
 E= -284.010161138791     Delta-E=       -0.000001582112 Rises=F Damp=F
 DIIS: error= 5.93D-05 at cycle   6 NSaved=   6.
 NSaved= 6 IEnMin= 6 EnMin= -284.010161138791     IErMin= 6 ErrMin= 5.93D-05
 ErrMax= 5.93D-05  0.00D+00 EMaxC= 1.00D-01 BMatC= 2.15D-07 BMatP= 1.89D-06
 IDIUse=1 WtCom= 1.00D+00 WtEn= 0.00D+00
 Coeff-Com:  0.506D-03 0.357D-01 0.560D-01 0.801D-01 0.365D+00 0.463D+00
 Coeff:      0.506D-03 0.357D-01 0.560D-01 0.801D-01 0.365D+00 0.463D+00
 Gap=     0.128 Goal=   None    Shift=    0.000
 RMSDP=9.28D-06 MaxDP=1.02D-04 DE=-1.58D-06 OVMax= 9.83D-05

 Initial convergence to 1.0D-05 achieved.  Increase integral accuracy.
 Cycle   7  Pass 1  IDiag  1:
 E= -284.010167287859     Delta-E=       -0.000006149068 Rises=F Damp=F
 DIIS: error= 6.76D-06 at cycle   1 NSaved=   1.
 NSaved= 1 IEnMin= 1 EnMin= -284.010167287859     IErMin= 1 ErrMin= 6.76D-06
 ErrMax= 6.76D-06  0.00D+00 EMaxC= 1.00D-01 BMatC= 3.21D-09 BMatP= 3.21D-09
 IDIUse=1 WtCom= 1.00D+00 WtEn= 0.00D+00
 Coeff-Com:  0.100D+01
 Coeff:      0.100D+01
 Gap=     0.128 Goal=   None    Shift=    0.000
 RMSDP=9.28D-06 MaxDP=1.02D-04 DE=-6.15D-06 OVMax= 6.52D-05

 Cycle   8  Pass 1  IDiag  1:
 E= -284.010167277906     Delta-E=        0.000000009953 Rises=F Damp=F
 DIIS: error= 1.88D-05 at cycle   2 NSaved=   2.
 NSaved= 2 IEnMin= 1 EnMin= -284.010167287859     IErMin= 1 ErrMin= 6.76D-06
 ErrMax= 1.88D-05  0.00D+00 EMaxC= 1.00D-01 BMatC= 1.60D-08 BMatP= 3.21D-09
 IDIUse=1 WtCom= 1.00D+00 WtEn= 0.00D+00
 Coeff-Com:  0.703D+00 0.297D+00
 Coeff:      0.703D+00 0.297D+00
 Gap=     0.128 Goal=   None    Shift=    0.000
 RMSDP=2.17D-06 MaxDP=2.95D-05 DE= 9.95D-09 OVMax= 5.78D-05

 Cycle   9  Pass 1  IDiag  1:
 E= -284.010167290663     Delta-E=       -0.000000012756 Rises=F Damp=F
 DIIS: error= 4.20D-06 at cycle   3 NSaved=   3.
 NSaved= 3 IEnMin= 3 EnMin= -284.010167290663     IErMin= 3 ErrMin= 4.20D-06
 ErrMax= 4.20D-06  0.00D+00 EMaxC= 1.00D-01 BMatC= 9.95D-10 BMatP= 3.21D-09
 IDIUse=1 WtCom= 1.00D+00 WtEn= 0.00D+00
 Coeff-Com:  0.393D+00 0.206D+00 0.401D+00
 Coeff:      0.393D+00 0.206D+00 0.401D+00
 Gap=     0.128 Goal=   None    Shift=    0.000
 RMSDP=6.78D-07 MaxDP=1.01D-05 DE=-1.28D-08 OVMax= 1.50D-05

 Cycle  10  Pass 1  IDiag  1:
 E= -284.010167291327     Delta-E=       -0.000000000664 Rises=F Damp=F
 DIIS: error= 1.70D-06 at cycle   4 NSaved=   4.
 NSaved= 4 IEnMin= 4 EnMin= -284.010167291327     IErMin= 4 ErrMin= 1.70D-06
 ErrMax= 1.70D-06  0.00D+00 EMaxC= 1.00D-01 BMatC= 2.04D-10 BMatP= 9.95D-10
 IDIUse=1 WtCom= 1.00D+00 WtEn= 0.00D+00
 Coeff-Com:  0.126D+00 0.798D-01 0.315D+00 0.480D+00
 Coeff:      0.126D+00 0.798D-01 0.315D+00 0.480D+00
 Gap=     0.128 Goal=   None    Shift=    0.000
 RMSDP=2.79D-07 MaxDP=3.85D-06 DE=-6.64D-10 OVMax= 4.54D-06

 Cycle  11  Pass 1  IDiag  1:
 E= -284.010167291491     Delta-E=       -0.000000000164 Rises=F Damp=F
 DIIS: error= 4.18D-07 at cycle   5 NSaved=   5.
 NSaved= 5 IEnMin= 5 EnMin= -284.010167291491     IErMin= 5 ErrMin= 4.18D-07
 ErrMax= 4.18D-07  0.00D+00 EMaxC= 1.00D-01 BMatC= 1.10D-11 BMatP= 2.04D-10
 IDIUse=1 WtCom= 1.00D+00 WtEn= 0.00D+00
 Coeff-Com:  0.252D-01 0.217D-01 0.132D+00 0.274D+00 0.547D+00
 Coeff:      0.252D-01 0.217D-01 0.132D+00 0.274D+00 0.547D+00
 Gap=     0.128 Goal=   None    Shift=    0.000
 RMSDP=6.00D-08 MaxDP=7.23D-07 DE=-1.64D-10 OVMax= 8.97D-07

 Cycle  12  Pass 1  IDiag  1:
 E= -284.010167291499     Delta-E=       -0.000000000008 Rises=F Damp=F
 DIIS: error= 1.04D-07 at cycle   6 NSaved=   6.
 NSaved= 6 IEnMin= 6 EnMin= -284.010167291499     IErMin= 6 ErrMin= 1.04D-07
 ErrMax= 1.04D-07  0.00D+00 EMaxC= 1.00D-01 BMatC= 8.90D-13 BMatP= 1.10D-11
 IDIUse=1 WtCom= 1.00D+00 WtEn= 0.00D+00
 Coeff-Com:  0.634D-03 0.363D-02 0.355D-01 0.983D-01 0.288D+00 0.574D+00
 Coeff:      0.634D-03 0.363D-02 0.355D-01 0.983D-01 0.288D+00 0.574D+00
 Gap=     0.128 Goal=   None    Shift=    0.000
 RMSDP=2.42D-08 MaxDP=2.06D-07 DE=-7.96D-12 OVMax= 2.53D-07

 Cycle  13  Pass 1  IDiag  1:
 E= -284.010167291500     Delta-E=       -0.000000000001 Rises=F Damp=F
 DIIS: error= 1.85D-08 at cycle   7 NSaved=   7.
 NSaved= 7 IEnMin= 7 EnMin= -284.010167291500     IErMin= 7 ErrMin= 1.85D-08
 ErrMax= 1.85D-08  0.00D+00 EMaxC= 1.00D-01 BMatC= 3.10D-14 BMatP= 8.90D-13
 IDIUse=1 WtCom= 1.00D+00 WtEn= 0.00D+00
 Coeff-Com: -0.197D-03 0.161D-02 0.169D-01 0.494D-01 0.148D+00 0.317D+00
 Coeff-Com:  0.467D+00
 Coeff:     -0.197D-03 0.161D-02 0.169D-01 0.494D-01 0.148D+00 0.317D+00
 Coeff:      0.467D+00
 Gap=     0.128 Goal=   None    Shift=    0.000
 RMSDP=3.76D-09 MaxDP=4.71D-08 DE=-1.14D-12 OVMax= 5.07D-08

 SCF Done:  E(RPBE-PBE) =  -284.010167292     A.U. after   13 cycles
            NFock= 13  Conv=0.38D-08     -V/T= 2.0055
 KE= 2.824579996627D+02 PE=-1.020625089994D+03 EE= 2.770541798447D+02
 Leave Link  502 at Mon Jan  1 12:36:25 2024, MaxMem=   134217728 cpu:              22.1 elap:               6.0
 (Enter /home/emanuele/chem_software/gaussian//gdv/l701.exe)
 ... and contract with generalized density number  0.
 Compute integral first derivatives.
 Leave Link  701 at Mon Jan  1 12:36:25 2024, MaxMem=   134217728 cpu:               0.3 elap:               0.1
 (Enter /home/emanuele/chem_software/gaussian//gdv/l702.exe)
 L702 exits ... SP integral derivatives will be done elsewhere.
 Leave Link  702 at Mon Jan  1 12:36:25 2024, MaxMem=   134217728 cpu:               0.2 elap:               0.0
 (Enter /home/emanuele/chem_software/gaussian//gdv/l703.exe)
 Integral derivatives from FoFJK, PRISM(SPDF).
 Compute integral first derivatives, UseDBF=F ICtDFT=           0.
 Calling FoFJK, ICntrl=      2527 FMM=F ISym2X=0 I1Cent= 0 IOpClX= 0 NMat=1 NMatS=1 NMatT=0.
 FoFJK:  IHMeth= 1 ICntrl=    2527 DoSepK=F KAlg= 0 I1Cent=           0 FoldK=F
 IRaf=         0 NMat=       1 IRICut=       1 DoRegI=T DoRafI=F ISym2E= 0 IDoP0=0 IntGTp=1.
 FoFCou: FMM=F IPFlag=           0 FMFlag=      100000 FMFlg1=         800
         NFxFlg=           0 DoJE=F BraDBF=F KetDBF=F FulRan=T
         wScrn=  0.000000 ICntrl=      2527 IOpCl=  0 I1Cent=           0 NGrid=           0
         NMat0=    1 NMatS0=      1 NMatT0=    0 NMatD0=    1 NMtDS0=    0 NMtDT0=    0
 Symmetry not used in FoFCou.
 Leave Link  703 at Mon Jan  1 12:36:26 2024, MaxMem=   134217728 cpu:               5.2 elap:               1.5
 (Enter /home/emanuele/chem_software/gaussian//gdv/l716.exe)
 Dipole        =-1.33305601D-01-4.96861100D-01 5.93633935D-01
 -------------------------------------------------------------------
 Center     Atomic                   Forces (Hartrees/Bohr)
 Number     Number              X              Y              Z
 -------------------------------------------------------------------
      1        6           0.004421647   -0.005766127    0.000334263
      2        8          -0.000957437   -0.004427743   -0.000018279
      3        6           0.001589676    0.003306165   -0.002462573
      4        1           0.000221830   -0.000301247    0.000667926
      5        1           0.000071093   -0.000437558   -0.000410934
      6        7          -0.000307276    0.000347387    0.007554378
      7        1          -0.001965542   -0.002427034   -0.002725946
      8        1          -0.002140890   -0.000830294   -0.002919868
      9        8          -0.001596585    0.008118805    0.000027187
     10        1           0.000663484    0.002417645   -0.000046154
 -------------------------------------------------------------------
 Cartesian Forces:  Max     0.008118805 RMS     0.002926461
 Leave Link  716 at Mon Jan  1 12:36:26 2024, MaxMem=   134217728 cpu:               0.1 elap:               0.0
 (Enter /home/emanuele/chem_software/gaussian//gdv/l103.exe)

 GradGradGradGradGradGradGradGradGradGradGradGradGradGradGradGradGradGrad
 Berny optimization.
 Using GEDIIS/GDIIS optimizer.
 FormGI is forming the generalized inverse of G from B-inverse, IUseBI=4.
 Internal  Forces:  Max     0.008152666 RMS     0.002116841
 Search for a local minimum.
 Step number   2 out of a maximum of  100 on scan point     1 out of    11
 All quantities printed in internal units (Hartrees-Bohrs-Radians)
 RMS Force = .21468D-02 SwitMx=.10000D-02 MixMth= 1
 Mixed Optimization -- RFO/linear search
 Update second derivatives using D2CorX and points    1    2
 DE= -5.98D-03 DEPred=-6.24D-03 R= 9.59D-01
 TightC=F SS=  1.41D+00  RLast= 2.15D-01 DXNew= 5.0454D-01 6.4548D-01
 Trust test= 9.59D-01 RLast= 2.15D-01 DXMaxT set to 5.05D-01
 ITU=  1  0
 Use linear search instead of GDIIS.
     Eigenvalues ---    0.00641   0.01007   0.01311   0.03441   0.05311
     Eigenvalues ---    0.06481   0.09716   0.13033   0.15968   0.16000
     Eigenvalues ---    0.16996   0.21731   0.24966   0.25086   0.31504
     Eigenvalues ---    0.33474   0.34506   0.38882   0.45727   0.47090
     Eigenvalues ---    0.53930   0.54777   0.948091000.000001000.00000
     Eigenvalues --- 1000.000001000.000001000.000001000.000001000.00000
     Eigenvalues --- 1000.000001000.000001000.000001000.000001000.00000
     Eigenvalues --- 1000.00000
 RFO step:  Lambda=-6.68166703D-04 EMin= 6.40659666D-03
 Quartic linear search produced a step of  0.05458.
 Iteration  1 RMS(Cart)=  0.01522446 RMS(Int)=  0.00036783
 Iteration  2 RMS(Cart)=  0.00029394 RMS(Int)=  0.00024051
 Iteration  3 RMS(Cart)=  0.00000008 RMS(Int)=  0.00024051
 Fixing frozen coordinates.
 Iteration  1 RMS(Cart)=  0.00000425 RMS(Int)=  0.00000493
 Iteration  2 RMS(Cart)=  0.00000161 RMS(Int)=  0.00000548
 Iteration  3 RMS(Cart)=  0.00000061 RMS(Int)=  0.00000593
 ITry= 1 IFail=0 DXMaxC= 4.54D-02 DCOld= 1.00D+10 DXMaxT= 5.05D-01 DXLimC= 3.00D+00 Rises=F
 Variable       Old X    -DE/DX   Delta X   Delta X   Delta X     New X
                                 (Linear)    (Quad)   (Total)
    R1        2.61359   0.00139   0.00331   0.00188   0.00520   2.61879
    R2        2.86493  -0.00193   0.00068  -0.00662  -0.00594   2.85899
    R3        2.34070   0.00815   0.00369   0.00739   0.01108   2.35178
    R4        1.87312   0.00082   0.00241   0.00102   0.00343   1.87655
    R5        2.11094   0.00073   0.00168   0.00190   0.00359   2.11452
    R6        2.08636   0.00059   0.00124   0.00152   0.00277   2.08913
    R7        2.77029  -0.00556   0.00146  -0.01575  -0.01429   2.75599
    R8        1.94197  -0.00282   0.00154  -0.00689  -0.00535   1.93662
    R9        1.93502  -0.00258   0.00143  -0.00627  -0.00484   1.93019
    A1        1.94402  -0.00072  -0.00032  -0.00283  -0.00317   1.94085
    A2        2.15704  -0.00129   0.00054  -0.00539  -0.00488   2.15216
    A3        2.18149   0.00201  -0.00024   0.00868   0.00842   2.18991
    A4        1.93185  -0.00442   0.00330  -0.02968  -0.02638   1.90547
    A5        1.84621   0.00060   0.00036   0.00245   0.00280   1.84901
    A6        1.89018   0.00052  -0.00007   0.00324   0.00317   1.89335
    A7        1.91376  -0.00136  -0.00091  -0.00686  -0.00777   1.90599
    A8        1.84831  -0.00012  -0.00031   0.00146   0.00114   1.84945
    A9        2.01663   0.00010   0.00065  -0.00147  -0.00082   2.01581
   A10        1.94247   0.00035   0.00027   0.00179   0.00206   1.94453
   A11        1.96217  -0.00139   0.00231   0.00289   0.00455   1.96672
   A12        1.98858   0.00020   0.00240   0.01314   0.01489   2.00348
   A13        1.93832   0.00223   0.00232   0.03445   0.03580   1.97412
    D1        3.08781   0.00028  -0.00026   0.01341   0.01308   3.10089
    D2       -0.01720   0.00009   0.00000   0.00000   0.00000  -0.01720
    D3       -1.24832  -0.00022   0.00029   0.00070   0.00097  -1.24735
    D4        0.72671   0.00016   0.00008   0.00500   0.00506   0.73177
    D5        2.84936   0.00010  -0.00019   0.00504   0.00483   2.85419
    D6        1.85608  -0.00011   0.00004   0.01398   0.01404   1.87012
    D7       -2.45208   0.00027  -0.00017   0.01828   0.01814  -2.43394
    D8       -0.32943   0.00021  -0.00044   0.01832   0.01790  -0.31153
    D9        0.54538  -0.00112  -0.00324  -0.03579  -0.03925   0.50613
   D10        2.77029   0.00094   0.00338   0.02600   0.02961   2.79990
   D11       -1.53831  -0.00095  -0.00348  -0.03284  -0.03654  -1.57485
   D12        0.68660   0.00112   0.00315   0.02896   0.03232   0.71892
   D13        2.63634  -0.00114  -0.00376  -0.03510  -0.03908   2.59726
   D14       -1.42193   0.00093   0.00287   0.02669   0.02978  -1.39215
         Item               Value     Threshold  Converged?
 Maximum Force            0.008153     0.000450     NO 
 RMS     Force            0.002147     0.000300     NO 
 Maximum Displacement     0.045418     0.001800     NO 
 RMS     Displacement     0.015269     0.001200     NO 
 Predicted change in Energy=-3.402781D-04
 Lowest energy point so far.  Saving SCF results.
 GradGradGradGradGradGradGradGradGradGradGradGradGradGradGradGradGradGrad

 Leave Link  103 at Mon Jan  1 12:36:26 2024, MaxMem=   134217728 cpu:               0.0 elap:               0.0
 (Enter /home/emanuele/chem_software/gaussian//gdv/l202.exe)
                          Input orientation:                          
 ---------------------------------------------------------------------
 Center     Atomic      Atomic             Coordinates (Angstroms)
 Number     Number       Type             X           Y           Z
 ---------------------------------------------------------------------
      1          6           0       -0.525143    0.109324    0.028151
      2          8           0       -1.656263   -0.683755   -0.081602
      3          6           0        0.726938   -0.734077    0.127471
      4          1           0        0.702250   -1.202344    1.143435
      5          1           0        0.645869   -1.567991   -0.593770
      6          7           0        1.890472    0.099836   -0.151340
      7          1           0        1.744379    1.080965    0.106127
      8          1           0        2.777736   -0.275756    0.187737
      9          8           0       -0.563214    1.352691    0.065355
     10          1           0       -2.461000   -0.102483   -0.106613
 ---------------------------------------------------------------------
                    Distance matrix (angstroms):
                    1          2          3          4          5
     1  C    0.000000
     2  O    1.385804   0.000000
     3  C    1.512911   2.392884   0.000000
     4  H    2.114433   2.707810   1.118958   0.000000
     5  H    2.138093   2.518730   1.105521   1.776165   0.000000
     6  N    2.422293   3.632934   1.458409   2.187233   2.127541
     7  H    2.470000   3.835863   2.080870   2.715795   2.951873
     8  H    3.329079   4.460869   2.102251   2.465678   2.612563
     9  O    1.244506   2.315915   2.454171   3.048256   3.229043
    10  H    1.952067   0.993028   3.258321   3.574698   3.469535
                    6          7          8          9         10
     6  N    0.000000
     7  H    1.024816   0.000000
     8  H    1.021411   1.707389   0.000000
     9  O    2.763545   2.323895   3.718705   0.000000
    10  H    4.356402   4.373902   5.249859   2.397643   0.000000
 Symmetry turned off by external request.
 Stoichiometry    C2H5NO2
 Framework group  C1[X(C2H5NO2)]
 Deg. of freedom    24
 Full point group                 C1      NOp   1
 Rotational constants (GHZ):           9.9045708           3.9232990           2.8879529
 Leave Link  202 at Mon Jan  1 12:36:26 2024, MaxMem=   134217728 cpu:               0.1 elap:               0.0
 (Enter /home/emanuele/chem_software/gaussian//gdv/l301.exe)
 Standard basis: 6-31G (6D, 7F)
 Ernie: Thresh=  0.10000D-02 Tol=  0.10000D-05 Strict=F.
    55 basis functions,   130 primitive gaussians,    55 cartesian basis functions
    20 alpha electrons       20 beta electrons
       nuclear repulsion energy       177.2204340162 Hartrees.
 IExCor=   10009 DFT=T Ex=PBE Corr=PBE N6=None ScaHFX=  0.000000
 ScaDFX=  1.000000  1.000000  1.000000  1.000000  1.000000  0.000000
 ScaDFX=  0.000000  0.000000  0.000000  0.000000  0.000000  0.000000
 IRadAn=      5 IRanWt=     -1 IRanGd=            0 ICorTp=0 IEmpDi=  4
 NAtoms=   10 NActive=   10 NUniq=   10 SFac= 1.00D+00 NAtFMM=   60 NAOKFM=F Big=F
 Integral buffers will be    131072 words long.
 Raffenetti 2 integral format.
 Two-electron integral symmetry is turned off.
 Leave Link  301 at Mon Jan  1 12:36:26 2024, MaxMem=   134217728 cpu:               0.2 elap:               0.1
 (Enter /home/emanuele/chem_software/gaussian//gdv/l302.exe)
 NPDir=0 NMtPBC=     1 NCelOv=     1 NCel=       1 NClECP=     1 NCelD=      1
         NCelK=      1 NCelE2=     1 NClLst=     1 CellRange=     0.0.
 One-electron integrals computed using PRISM.
 NBasis=    55 RedAO= T EigKep=  6.00D-03  NBF=    55
 NBsUse=    55 1.00D-06 EigRej= -1.00D+00 NBFU=    55
 Precomputing XC quadrature grid using
 IXCGrd= 4 IRadAn=           5 IRanWt=          -1 IRanGd=           0 AccXCQ= 0.00D+00.
 Generated NRdTot=       0 NPtTot=      219319 NUsed=           0 NTot=          64
 NSgBfM=    55    55    55    55    55 MxSgAt=    10 MxSgA2=    10 SizInc=   0.000
 NMBTot=     1894 MaxBatPerAtom=       84 MaxMicBPerAtom=      197.
 Leave Link  302 at Mon Jan  1 12:36:27 2024, MaxMem=   134217728 cpu:               0.6 elap:               0.2
 (Enter /home/emanuele/chem_software/gaussian//gdv/l303.exe)
 DipDrv:  MaxL=1.
 Leave Link  303 at Mon Jan  1 12:36:27 2024, MaxMem=   134217728 cpu:               0.2 elap:               0.0
 (Enter /home/emanuele/chem_software/gaussian//gdv/l401.exe)
 Initial guess from the checkpoint file:  "3_qm.chk"
 B after Tr=    -0.000038   -0.002311    0.007847
         Rot=    0.999999    0.000618    0.001184   -0.000317 Ang=   0.16 deg.
 AO Guess basis will be translated and rotated to current coordinates.
 JPrj=2 DoOrth=T DoCkMO=T.
 Generating alternative initial guess.
 ExpMin= 1.61D-01 ExpMax= 5.48D+03 ExpMxC= 8.25D+02 IAcc=3 IRadAn=         5 AccDes= 0.00D+00
 Harris functional with IExCor=10009 and IRadAn=       5 diagonalized for initial guess.
 HarFok:  IExCor=   10009 AccDes= 0.00D+00 IRadAn=         5 IDoV= 1 UseB2=F ITyADJ=14 ICtDFT=  3500011
 FoFCou: FMM=F IPFlag=           0 FMFlag=      100000 FMFlg1=           0
         NFxFlg=           0 DoJE=T BraDBF=F KetDBF=T FulRan=T
         wScrn=  0.000000 ICntrl=       500 IOpCl=  0 I1Cent=   200000004 NGrid=           0
         NMat0=    1 NMatS0=      1 NMatT0=    0 NMatD0=    1 NMtDS0=    0 NMtDT0=    0
 Symmetry not used in FoFCou.
 Harris En= -284.093954968342    
 Leave Link  401 at Mon Jan  1 12:36:27 2024, MaxMem=   134217728 cpu:               2.5 elap:               0.7
 (Enter /home/emanuele/chem_software/gaussian//gdv/l502.exe)
 Keep J ints in memory in canonical form, NReq=4700713.
 FoFCou: FMM=F IPFlag=           0 FMFlag=           0 FMFlg1=           0
         NFxFlg=           0 DoJE=F BraDBF=F KetDBF=F FulRan=T
         wScrn=  0.000000 ICntrl=       600 IOpCl=  0 I1Cent=           0 NGrid=           0
         NMat0=    1 NMatS0=   1540 NMatT0=    0 NMatD0=    1 NMtDS0=    0 NMtDT0=    0
 Symmetry not used in FoFCou.
 Two-electron integral symmetry not used.
 Closed shell SCF:
 Using DIIS extrapolation, IDIIS=  1040.
 NGot=   134217728 LenX=   133023731 LenY=   133020265
 Requested convergence on RMS density matrix=1.00D-08 within 128 cycles.
 Requested convergence on MAX density matrix=1.00D-06.
 Requested convergence on             energy=1.00D-06.
 No special actions if energy rises.
 Integral accuracy reduced to 1.0D-05 until final iterations.

 Cycle   1  Pass 0  IDiag  1:
 E= -284.010223934018    
 DIIS: error= 1.30D-03 at cycle   1 NSaved=   1.
 NSaved= 1 IEnMin= 1 EnMin= -284.010223934018     IErMin= 1 ErrMin= 1.30D-03
 ErrMax= 1.30D-03  0.00D+00 EMaxC= 1.00D-01 BMatC= 1.91D-04 BMatP= 1.91D-04
 IDIUse=3 WtCom= 9.87D-01 WtEn= 1.30D-02
 Coeff-Com:  0.100D+01
 Coeff-En:   0.100D+01
 Coeff:      0.100D+01
 Gap=     0.523 Goal=   None    Shift=    0.000
 GapD=    0.523 DampG=2.000 DampE=1.000 DampFc=2.0000 IDamp=-1.
 RMSDP=7.50D-04 MaxDP=7.93D-03              OVMax= 9.57D-03

 Cycle   2  Pass 0  IDiag  1:
 E= -284.010571798033     Delta-E=       -0.000347864015 Rises=F Damp=F
 DIIS: error= 5.89D-04 at cycle   2 NSaved=   2.
 NSaved= 2 IEnMin= 2 EnMin= -284.010571798033     IErMin= 2 ErrMin= 5.89D-04
 ErrMax= 5.89D-04  0.00D+00 EMaxC= 1.00D-01 BMatC= 3.69D-05 BMatP= 1.91D-04
 IDIUse=3 WtCom= 9.94D-01 WtEn= 5.89D-03
 Coeff-Com:  0.208D+00 0.792D+00
 Coeff-En:   0.000D+00 0.100D+01
 Coeff:      0.207D+00 0.793D+00
 Gap=     0.123 Goal=   None    Shift=    0.000
 RMSDP=2.67D-04 MaxDP=2.57D-03 DE=-3.48D-04 OVMax= 5.44D-03

 Cycle   3  Pass 0  IDiag  1:
 E= -284.010515805594     Delta-E=        0.000055992439 Rises=F Damp=F
 DIIS: error= 1.42D-03 at cycle   3 NSaved=   3.
 NSaved= 3 IEnMin= 2 EnMin= -284.010571798033     IErMin= 2 ErrMin= 5.89D-04
 ErrMax= 1.42D-03  0.00D+00 EMaxC= 1.00D-01 BMatC= 1.09D-04 BMatP= 3.69D-05
 IDIUse=3 WtCom= 2.10D-01 WtEn= 7.90D-01
 Coeff-Com:  0.427D-01 0.618D+00 0.339D+00
 Coeff-En:   0.000D+00 0.680D+00 0.320D+00
 Coeff:      0.895D-02 0.667D+00 0.324D+00
 Gap=     0.124 Goal=   None    Shift=    0.000
 RMSDP=1.69D-04 MaxDP=2.27D-03 DE= 5.60D-05 OVMax= 4.57D-03

 Cycle   4  Pass 0  IDiag  1:
 E= -284.010598732752     Delta-E=       -0.000082927158 Rises=F Damp=F
 DIIS: error= 3.20D-04 at cycle   4 NSaved=   4.
 NSaved= 4 IEnMin= 4 EnMin= -284.010598732752     IErMin= 4 ErrMin= 3.20D-04
 ErrMax= 3.20D-04  0.00D+00 EMaxC= 1.00D-01 BMatC= 8.82D-06 BMatP= 3.69D-05
 IDIUse=3 WtCom= 9.97D-01 WtEn= 3.20D-03
 Coeff-Com:  0.905D-02 0.406D+00 0.223D+00 0.362D+00
 Coeff-En:   0.000D+00 0.584D-01 0.000D+00 0.942D+00
 Coeff:      0.902D-02 0.405D+00 0.222D+00 0.364D+00
 Gap=     0.125 Goal=   None    Shift=    0.000
 RMSDP=5.72D-05 MaxDP=6.84D-04 DE=-8.29D-05 OVMax= 9.20D-04

 Cycle   5  Pass 0  IDiag  1:
 E= -284.010605832850     Delta-E=       -0.000007100098 Rises=F Damp=F
 DIIS: error= 7.10D-05 at cycle   5 NSaved=   5.
 NSaved= 5 IEnMin= 5 EnMin= -284.010605832850     IErMin= 5 ErrMin= 7.10D-05
 ErrMax= 7.10D-05  0.00D+00 EMaxC= 1.00D-01 BMatC= 4.09D-07 BMatP= 8.82D-06
 IDIUse=1 WtCom= 1.00D+00 WtEn= 0.00D+00
 Coeff-Com:  0.758D-03 0.132D+00 0.674D-01 0.213D+00 0.587D+00
 Coeff:      0.758D-03 0.132D+00 0.674D-01 0.213D+00 0.587D+00
 Gap=     0.125 Goal=   None    Shift=    0.000
 RMSDP=1.41D-05 MaxDP=1.63D-04 DE=-7.10D-06 OVMax= 2.03D-04

 Cycle   6  Pass 0  IDiag  1:
 E= -284.010606160777     Delta-E=       -0.000000327927 Rises=F Damp=F
 DIIS: error= 2.88D-05 at cycle   6 NSaved=   6.
 NSaved= 6 IEnMin= 6 EnMin= -284.010606160777     IErMin= 6 ErrMin= 2.88D-05
 ErrMax= 2.88D-05  0.00D+00 EMaxC= 1.00D-01 BMatC= 5.62D-08 BMatP= 4.09D-07
 IDIUse=1 WtCom= 1.00D+00 WtEn= 0.00D+00
 Coeff-Com:  0.154D-03 0.653D-01 0.319D-01 0.124D+00 0.395D+00 0.384D+00
 Coeff:      0.154D-03 0.653D-01 0.319D-01 0.124D+00 0.395D+00 0.384D+00
 Gap=     0.125 Goal=   None    Shift=    0.000
 RMSDP=3.61D-06 MaxDP=4.87D-05 DE=-3.28D-07 OVMax= 5.83D-05

 Initial convergence to 1.0D-05 achieved.  Increase integral accuracy.
 Cycle   7  Pass 1  IDiag  1:
 E= -284.010612033699     Delta-E=       -0.000005872922 Rises=F Damp=F
 DIIS: error= 3.44D-06 at cycle   1 NSaved=   1.
 NSaved= 1 IEnMin= 1 EnMin= -284.010612033699     IErMin= 1 ErrMin= 3.44D-06
 ErrMax= 3.44D-06  0.00D+00 EMaxC= 1.00D-01 BMatC= 1.21D-09 BMatP= 1.21D-09
 IDIUse=1 WtCom= 1.00D+00 WtEn= 0.00D+00
 Coeff-Com:  0.100D+01
 Coeff:      0.100D+01
 Gap=     0.125 Goal=   None    Shift=    0.000
 RMSDP=3.61D-06 MaxDP=4.87D-05 DE=-5.87D-06 OVMax= 1.66D-05

 Cycle   8  Pass 1  IDiag  1:
 E= -284.010612032789     Delta-E=        0.000000000910 Rises=F Damp=F
 DIIS: error= 5.33D-06 at cycle   2 NSaved=   2.
 NSaved= 2 IEnMin= 1 EnMin= -284.010612033699     IErMin= 1 ErrMin= 3.44D-06
 ErrMax= 5.33D-06  0.00D+00 EMaxC= 1.00D-01 BMatC= 2.79D-09 BMatP= 1.21D-09
 IDIUse=1 WtCom= 1.00D+00 WtEn= 0.00D+00
 Coeff-Com:  0.613D+00 0.387D+00
 Coeff:      0.613D+00 0.387D+00
 Gap=     0.125 Goal=   None    Shift=    0.000
 RMSDP=9.85D-07 MaxDP=1.19D-05 DE= 9.10D-10 OVMax= 1.38D-05

 Cycle   9  Pass 1  IDiag  1:
 E= -284.010612034862     Delta-E=       -0.000000002073 Rises=F Damp=F
 DIIS: error= 2.03D-06 at cycle   3 NSaved=   3.
 NSaved= 3 IEnMin= 3 EnMin= -284.010612034862     IErMin= 3 ErrMin= 2.03D-06
 ErrMax= 2.03D-06  0.00D+00 EMaxC= 1.00D-01 BMatC= 2.57D-10 BMatP= 1.21D-09
 IDIUse=1 WtCom= 1.00D+00 WtEn= 0.00D+00
 Coeff-Com:  0.279D+00 0.252D+00 0.469D+00
 Coeff:      0.279D+00 0.252D+00 0.469D+00
 Gap=     0.125 Goal=   None    Shift=    0.000
 RMSDP=3.96D-07 MaxDP=6.24D-06 DE=-2.07D-09 OVMax= 9.55D-06

 Cycle  10  Pass 1  IDiag  1:
 E= -284.010612034961     Delta-E=       -0.000000000099 Rises=F Damp=F
 DIIS: error= 1.73D-06 at cycle   4 NSaved=   4.
 NSaved= 4 IEnMin= 4 EnMin= -284.010612034961     IErMin= 4 ErrMin= 1.73D-06
 ErrMax= 1.73D-06  0.00D+00 EMaxC= 1.00D-01 BMatC= 1.44D-10 BMatP= 2.57D-10
 IDIUse=1 WtCom= 1.00D+00 WtEn= 0.00D+00
 Coeff-Com:  0.496D-01 0.101D+00 0.426D+00 0.424D+00
 Coeff:      0.496D-01 0.101D+00 0.426D+00 0.424D+00
 Gap=     0.125 Goal=   None    Shift=    0.000
 RMSDP=2.08D-07 MaxDP=2.85D-06 DE=-9.90D-11 OVMax= 5.92D-06

 Cycle  11  Pass 1  IDiag  1:
 E= -284.010612035069     Delta-E=       -0.000000000107 Rises=F Damp=F
 DIIS: error= 4.06D-07 at cycle   5 NSaved=   5.
 NSaved= 5 IEnMin= 5 EnMin= -284.010612035069     IErMin= 5 ErrMin= 4.06D-07
 ErrMax= 4.06D-07  0.00D+00 EMaxC= 1.00D-01 BMatC= 1.07D-11 BMatP= 1.44D-10
 IDIUse=1 WtCom= 1.00D+00 WtEn= 0.00D+00
 Coeff-Com:  0.660D-02 0.429D-01 0.245D+00 0.296D+00 0.409D+00
 Coeff:      0.660D-02 0.429D-01 0.245D+00 0.296D+00 0.409D+00
 Gap=     0.125 Goal=   None    Shift=    0.000
 RMSDP=5.69D-08 MaxDP=6.84D-07 DE=-1.07D-10 OVMax= 1.10D-06

 Cycle  12  Pass 1  IDiag  1:
 E= -284.010612035079     Delta-E=       -0.000000000010 Rises=F Damp=F
 DIIS: error= 6.31D-08 at cycle   6 NSaved=   6.
 NSaved= 6 IEnMin= 6 EnMin= -284.010612035079     IErMin= 6 ErrMin= 6.31D-08
 ErrMax= 6.31D-08  0.00D+00 EMaxC= 1.00D-01 BMatC= 3.89D-13 BMatP= 1.07D-11
 IDIUse=1 WtCom= 1.00D+00 WtEn= 0.00D+00
 Coeff-Com:  0.192D-03 0.176D-01 0.112D+00 0.144D+00 0.229D+00 0.497D+00
 Coeff:      0.192D-03 0.176D-01 0.112D+00 0.144D+00 0.229D+00 0.497D+00
 Gap=     0.125 Goal=   None    Shift=    0.000
 RMSDP=1.36D-08 MaxDP=1.27D-07 DE=-9.89D-12 OVMax= 1.51D-07

 Cycle  13  Pass 1  IDiag  1:
 E= -284.010612035078     Delta-E=        0.000000000000 Rises=F Damp=F
 DIIS: error= 2.06D-08 at cycle   7 NSaved=   7.
 NSaved= 7 IEnMin= 6 EnMin= -284.010612035079     IErMin= 7 ErrMin= 2.06D-08
 ErrMax= 2.06D-08  0.00D+00 EMaxC= 1.00D-01 BMatC= 2.99D-14 BMatP= 3.89D-13
 IDIUse=1 WtCom= 1.00D+00 WtEn= 0.00D+00
 Coeff-Com: -0.389D-03 0.613D-02 0.399D-01 0.543D-01 0.882D-01 0.272D+00
 Coeff-Com:  0.540D+00
 Coeff:     -0.389D-03 0.613D-02 0.399D-01 0.543D-01 0.882D-01 0.272D+00
 Coeff:      0.540D+00
 Gap=     0.125 Goal=   None    Shift=    0.000
 RMSDP=3.90D-09 MaxDP=3.38D-08 DE= 4.55D-13 OVMax= 4.56D-08

 SCF Done:  E(RPBE-PBE) =  -284.010612035     A.U. after   13 cycles
            NFock= 13  Conv=0.39D-08     -V/T= 2.0055
 KE= 2.824497882536D+02 PE=-1.020855124296D+03 EE= 2.771742899911D+02
 Leave Link  502 at Mon Jan  1 12:36:34 2024, MaxMem=   134217728 cpu:              22.2 elap:               7.0
 (Enter /home/emanuele/chem_software/gaussian//gdv/l701.exe)
 ... and contract with generalized density number  0.
 Compute integral first derivatives.
 Leave Link  701 at Mon Jan  1 12:36:35 2024, MaxMem=   134217728 cpu:               0.7 elap:               0.3
 (Enter /home/emanuele/chem_software/gaussian//gdv/l702.exe)
 L702 exits ... SP integral derivatives will be done elsewhere.
 Leave Link  702 at Mon Jan  1 12:36:35 2024, MaxMem=   134217728 cpu:               0.2 elap:               0.0
 (Enter /home/emanuele/chem_software/gaussian//gdv/l703.exe)
 Integral derivatives from FoFJK, PRISM(SPDF).
 Compute integral first derivatives, UseDBF=F ICtDFT=           0.
 Calling FoFJK, ICntrl=      2527 FMM=F ISym2X=0 I1Cent= 0 IOpClX= 0 NMat=1 NMatS=1 NMatT=0.
 FoFJK:  IHMeth= 1 ICntrl=    2527 DoSepK=F KAlg= 0 I1Cent=           0 FoldK=F
 IRaf=         0 NMat=       1 IRICut=       1 DoRegI=T DoRafI=F ISym2E= 0 IDoP0=0 IntGTp=1.
 FoFCou: FMM=F IPFlag=           0 FMFlag=      100000 FMFlg1=         800
         NFxFlg=           0 DoJE=F BraDBF=F KetDBF=F FulRan=T
         wScrn=  0.000000 ICntrl=      2527 IOpCl=  0 I1Cent=           0 NGrid=           0
         NMat0=    1 NMatS0=      1 NMatT0=    0 NMatD0=    1 NMtDS0=    0 NMtDT0=    0
 Symmetry not used in FoFCou.
 Leave Link  703 at Mon Jan  1 12:36:36 2024, MaxMem=   134217728 cpu:               5.3 elap:               1.5
 (Enter /home/emanuele/chem_software/gaussian//gdv/l716.exe)
 Dipole        =-1.00899759D-01-4.90836675D-01 5.52034484D-01
 -------------------------------------------------------------------
 Center     Atomic                   Forces (Hartrees/Bohr)
 Number     Number              X              Y              Z
 -------------------------------------------------------------------
      1        6           0.001517741   -0.001431218   -0.000896077
      2        8          -0.000986511    0.000127902    0.000434418
      3        6           0.001935811    0.002448578   -0.001373562
      4        1          -0.000088169   -0.000220907   -0.000115421
      5        1          -0.000663579   -0.000127301    0.000204046
      6        7           0.000623945    0.000109875    0.005141050
      7        1           0.000079506   -0.001681908   -0.001681707
      8        1          -0.001714577    0.000583733   -0.001910755
      9        8          -0.000690379   -0.000130896    0.000218583
     10        1          -0.000013789    0.000322142   -0.000020575
 -------------------------------------------------------------------
 Cartesian Forces:  Max     0.005141050 RMS     0.001397656
 Leave Link  716 at Mon Jan  1 12:36:36 2024, MaxMem=   134217728 cpu:               0.1 elap:               0.0
 (Enter /home/emanuele/chem_software/gaussian//gdv/l103.exe)

[...]
 IDIUse=1 WtCom= 1.00D+00 WtEn= 0.00D+00
 Coeff-Com:  0.175D-03 0.462D-01 0.117D+00 0.154D+00 0.153D+00 0.531D+00
 Coeff:      0.175D-03 0.462D-01 0.117D+00 0.154D+00 0.153D+00 0.531D+00
 Gap=     0.138 Goal=   None    Shift=    0.000
 RMSDP=6.91D-06 MaxDP=6.59D-05 DE=-1.16D-05 OVMax= 6.31D-05

 Initial convergence to 1.0D-05 achieved.  Increase integral accuracy.
 Cycle   7  Pass 1  IDiag  1:
 E= -283.999957422457     Delta-E=       -0.000005545525 Rises=F Damp=F
 DIIS: error= 8.15D-06 at cycle   1 NSaved=   1.
 NSaved= 1 IEnMin= 1 EnMin= -283.999957422457     IErMin= 1 ErrMin= 8.15D-06
 ErrMax= 8.15D-06  0.00D+00 EMaxC= 1.00D-01 BMatC= 3.73D-09 BMatP= 3.73D-09
 IDIUse=1 WtCom= 1.00D+00 WtEn= 0.00D+00
 Coeff-Com:  0.100D+01
 Coeff:      0.100D+01
 Gap=     0.138 Goal=   None    Shift=    0.000
 RMSDP=6.91D-06 MaxDP=6.59D-05 DE=-5.55D-06 OVMax= 3.66D-05

 Cycle   8  Pass 1  IDiag  1:
 E= -283.999957419015     Delta-E=        0.000000003442 Rises=F Damp=F
 DIIS: error= 1.26D-05 at cycle   2 NSaved=   2.
 NSaved= 2 IEnMin= 1 EnMin= -283.999957422457     IErMin= 1 ErrMin= 8.15D-06
 ErrMax= 1.26D-05  0.00D+00 EMaxC= 1.00D-01 BMatC= 7.76D-09 BMatP= 3.73D-09
 IDIUse=1 WtCom= 1.00D+00 WtEn= 0.00D+00
 Coeff-Com:  0.595D+00 0.405D+00
 Coeff:      0.595D+00 0.405D+00
 Gap=     0.138 Goal=   None    Shift=    0.000
 RMSDP=2.17D-06 MaxDP=1.85D-05 DE= 3.44D-09 OVMax= 2.37D-05

 Cycle   9  Pass 1  IDiag  1:
 E= -283.999957426508     Delta-E=       -0.000000007493 Rises=F Damp=F
 DIIS: error= 1.77D-06 at cycle   3 NSaved=   3.
 NSaved= 3 IEnMin= 3 EnMin= -283.999957426508     IErMin= 3 ErrMin= 1.77D-06
 ErrMax= 1.77D-06  0.00D+00 EMaxC= 1.00D-01 BMatC= 3.53D-10 BMatP= 3.73D-09
 IDIUse=1 WtCom= 1.00D+00 WtEn= 0.00D+00
 Coeff-Com:  0.290D+00 0.236D+00 0.474D+00
 Coeff:      0.290D+00 0.236D+00 0.474D+00
 Gap=     0.138 Goal=   None    Shift=    0.000
 RMSDP=4.77D-07 MaxDP=7.16D-06 DE=-7.49D-09 OVMax= 1.07D-05

 Cycle  10  Pass 1  IDiag  1:
 E= -283.999957426603     Delta-E=       -0.000000000095 Rises=F Damp=F
 DIIS: error= 1.78D-06 at cycle   4 NSaved=   4.
 NSaved= 4 IEnMin= 4 EnMin= -283.999957426603     IErMin= 3 ErrMin= 1.77D-06
 ErrMax= 1.78D-06  0.00D+00 EMaxC= 1.00D-01 BMatC= 2.39D-10 BMatP= 3.53D-10
 IDIUse=1 WtCom= 1.00D+00 WtEn= 0.00D+00
 Coeff-Com:  0.853D-01 0.936D-01 0.423D+00 0.398D+00
 Coeff:      0.853D-01 0.936D-01 0.423D+00 0.398D+00
 Gap=     0.138 Goal=   None    Shift=    0.000
 RMSDP=2.98D-07 MaxDP=4.30D-06 DE=-9.53D-11 OVMax= 6.43D-06

 Cycle  11  Pass 1  IDiag  1:
 E= -283.999957426791     Delta-E=       -0.000000000188 Rises=F Damp=F
 DIIS: error= 3.95D-07 at cycle   5 NSaved=   5.
 NSaved= 5 IEnMin= 5 EnMin= -283.999957426791     IErMin= 5 ErrMin= 3.95D-07
 ErrMax= 3.95D-07  0.00D+00 EMaxC= 1.00D-01 BMatC= 1.70D-11 BMatP= 2.39D-10
 IDIUse=1 WtCom= 1.00D+00 WtEn= 0.00D+00
 Coeff-Com:  0.186D-01 0.317D-01 0.217D+00 0.274D+00 0.459D+00
 Coeff:      0.186D-01 0.317D-01 0.217D+00 0.274D+00 0.459D+00
 Gap=     0.138 Goal=   None    Shift=    0.000
 RMSDP=7.91D-08 MaxDP=6.84D-07 DE=-1.88D-10 OVMax= 1.28D-06

 Cycle  12  Pass 1  IDiag  1:
 E= -283.999957426806     Delta-E=       -0.000000000015 Rises=F Damp=F
 DIIS: error= 6.57D-08 at cycle   6 NSaved=   6.
 NSaved= 6 IEnMin= 6 EnMin= -283.999957426806     IErMin= 6 ErrMin= 6.57D-08
 ErrMax= 6.57D-08  0.00D+00 EMaxC= 1.00D-01 BMatC= 4.75D-13 BMatP= 1.70D-11
 IDIUse=1 WtCom= 1.00D+00 WtEn= 0.00D+00
 Coeff-Com:  0.163D-02 0.805D-02 0.733D-01 0.110D+00 0.218D+00 0.589D+00
 Coeff:      0.163D-02 0.805D-02 0.733D-01 0.110D+00 0.218D+00 0.589D+00
 Gap=     0.138 Goal=   None    Shift=    0.000
 RMSDP=1.46D-08 MaxDP=1.73D-07 DE=-1.47D-11 OVMax= 1.82D-07

 Cycle  13  Pass 1  IDiag  1:
 E= -283.999957426806     Delta-E=       -0.000000000000 Rises=F Damp=F
 DIIS: error= 4.62D-08 at cycle   7 NSaved=   7.
 NSaved= 7 IEnMin= 7 EnMin= -283.999957426806     IErMin= 7 ErrMin= 4.62D-08
 ErrMax= 4.62D-08  0.00D+00 EMaxC= 1.00D-01 BMatC= 1.35D-13 BMatP= 4.75D-13
 IDIUse=1 WtCom= 1.00D+00 WtEn= 0.00D+00
 Coeff-Com: -0.212D-03 0.264D-02 0.281D-01 0.479D-01 0.102D+00 0.397D+00
 Coeff-Com:  0.423D+00
 Coeff:     -0.212D-03 0.264D-02 0.281D-01 0.479D-01 0.102D+00 0.397D+00
 Coeff:      0.423D+00
 Gap=     0.138 Goal=   None    Shift=    0.000
 RMSDP=6.38D-09 MaxDP=8.57D-08 DE=-2.27D-13 OVMax= 7.00D-08

 SCF Done:  E(RPBE-PBE) =  -283.999957427     A.U. after   13 cycles
            NFock= 13  Conv=0.64D-08     -V/T= 2.0055
 KE= 2.824599983610D+02 PE=-1.017574018005D+03 EE= 2.755110523752D+02
 Leave Link  502 at Mon Jan  1 12:44:11 2024, MaxMem=   134217728 cpu:              21.2 elap:               5.7
 (Enter /home/emanuele/chem_software/gaussian//gdv/l701.exe)
 ... and contract with generalized density number  0.
 Compute integral first derivatives.
 Leave Link  701 at Mon Jan  1 12:44:11 2024, MaxMem=   134217728 cpu:               0.5 elap:               0.1
 (Enter /home/emanuele/chem_software/gaussian//gdv/l702.exe)
 L702 exits ... SP integral derivatives will be done elsewhere.
 Leave Link  702 at Mon Jan  1 12:44:11 2024, MaxMem=   134217728 cpu:               0.2 elap:               0.1
 (Enter /home/emanuele/chem_software/gaussian//gdv/l703.exe)
 Integral derivatives from FoFJK, PRISM(SPDF).
 Compute integral first derivatives, UseDBF=F ICtDFT=           0.
 Calling FoFJK, ICntrl=      2527 FMM=F ISym2X=0 I1Cent= 0 IOpClX= 0 NMat=1 NMatS=1 NMatT=0.
 FoFJK:  IHMeth= 1 ICntrl=    2527 DoSepK=F KAlg= 0 I1Cent=           0 FoldK=F
 IRaf=         0 NMat=       1 IRICut=       1 DoRegI=T DoRafI=F ISym2E= 0 IDoP0=0 IntGTp=1.
 FoFCou: FMM=F IPFlag=           0 FMFlag=      100000 FMFlg1=         800
         NFxFlg=           0 DoJE=F BraDBF=F KetDBF=F FulRan=T
         wScrn=  0.000000 ICntrl=      2527 IOpCl=  0 I1Cent=           0 NGrid=           0
         NMat0=    1 NMatS0=      1 NMatT0=    0 NMatD0=    1 NMtDS0=    0 NMtDT0=    0
 Symmetry not used in FoFCou.
 Leave Link  703 at Mon Jan  1 12:44:13 2024, MaxMem=   134217728 cpu:               5.6 elap:               1.4
 (Enter /home/emanuele/chem_software/gaussian//gdv/l716.exe)
 Dipole        = 1.94024229D-01-1.16047640D+00 5.59075937D-02
 -------------------------------------------------------------------
 Center     Atomic                   Forces (Hartrees/Bohr)
 Number     Number              X              Y              Z
 -------------------------------------------------------------------
      1        6           0.002676221   -0.002677667    0.010021802
      2        8          -0.002254569    0.002504030    0.005124110
      3        6          -0.000098855    0.000251059   -0.000499863
      4        1          -0.000490996   -0.000040387   -0.000364285
      5        1          -0.000345097   -0.000087868    0.000025060
      6        7          -0.000156791    0.000034971    0.000192645
      7        1           0.000321037    0.000133589   -0.000057972
      8        1           0.000067507    0.000140656   -0.000177743
      9        8          -0.000737174    0.001543033   -0.007322959
     10        1           0.001018717   -0.001801415   -0.006940794
 -------------------------------------------------------------------
 Cartesian Forces:  Max     0.010021802 RMS     0.002957784
 Leave Link  716 at Mon Jan  1 12:44:13 2024, MaxMem=   134217728 cpu:               0.2 elap:               0.0
 (Enter /home/emanuele/chem_software/gaussian//gdv/l103.exe)

 GradGradGradGradGradGradGradGradGradGradGradGradGradGradGradGradGradGrad
 Berny optimization.
 Using GEDIIS/GDIIS optimizer.
 FormGI is forming the generalized inverse of G from B-inverse, IUseBI=4.
 Internal  Forces:  Max     0.008322320 RMS     0.001821082
 Search for a local minimum.
 Step number   2 out of a maximum of  100 on scan point     7 out of    11
 All quantities printed in internal units (Hartrees-Bohrs-Radians)
 RMS Force = .45101D-03 SwitMx=.10000D-02 MixMth= 2
 Mixed Optimization -- En-DIIS/RFO-DIIS
 Update second derivatives using D2CorX and points    1    2
 DE= -2.69D-03 DEPred=-2.82D-03 R= 9.54D-01
 TightC=F SS=  1.41D+00  RLast= 3.57D-01 DXNew= 2.3468D+00 1.0700D+00
 Trust test= 9.54D-01 RLast= 3.57D-01 DXMaxT set to 1.40D+00
 ITU=  1  0
 Use linear search instead of GDIIS.
     Eigenvalues ---    0.00172   0.00239   0.01870   0.02953   0.05380
     Eigenvalues ---    0.05728   0.10584   0.12851   0.13363   0.15347
     Eigenvalues ---    0.16915   0.17757   0.22593   0.23539   0.33053
     Eigenvalues ---    0.34105   0.35559   0.39175   0.40609   0.45765
     Eigenvalues ---    0.47046   0.49707   0.853601000.000001000.00000
     Eigenvalues --- 1000.000001000.000001000.000001000.000001000.00000
     Eigenvalues --- 1000.000001000.000001000.000001000.000001000.00000
     Eigenvalues --- 1000.00000
 RFO step:  Lambda=-5.20044355D-05 EMin= 1.72464957D-03
 Quartic linear search produced a step of  0.12832.
 Iteration  1 RMS(Cart)=  0.02146673 RMS(Int)=  0.00044490
 Iteration  2 RMS(Cart)=  0.00026994 RMS(Int)=  0.00034693
 Iteration  3 RMS(Cart)=  0.00000004 RMS(Int)=  0.00034693
 Fixing frozen coordinates.
 Iteration  1 RMS(Cart)=  0.00006096 RMS(Int)=  0.00004685
 Iteration  2 RMS(Cart)=  0.00002342 RMS(Int)=  0.00005209
 Iteration  3 RMS(Cart)=  0.00000900 RMS(Int)=  0.00005647
 Iteration  4 RMS(Cart)=  0.00000346 RMS(Int)=  0.00005842
 Iteration  5 RMS(Cart)=  0.00000133 RMS(Int)=  0.00005920
 Iteration  6 RMS(Cart)=  0.00000051 RMS(Int)=  0.00005951
 ITry= 1 IFail=0 DXMaxC= 6.78D-02 DCOld= 1.00D+10 DXMaxT= 1.40D+00 DXLimC= 3.00D+00 Rises=F
 Variable       Old X    -DE/DX   Delta X   Delta X   Delta X     New X
                                 (Linear)    (Quad)   (Total)
    R1        2.65324   0.00102   0.00109   0.00338   0.00447   2.65771
    R2        2.91090  -0.00064  -0.00020  -0.00330  -0.00351   2.90739
    R3        2.33453  -0.00050  -0.00016  -0.00172  -0.00188   2.33264
    R4        1.87280  -0.00039  -0.00184   0.00049  -0.00136   1.87144
    R5        2.09674  -0.00014   0.00030  -0.00075  -0.00045   2.09629
    R6        2.09079   0.00005  -0.00050   0.00085   0.00035   2.09114
    R7        2.74142   0.00032   0.00017  -0.00113  -0.00096   2.74046
    R8        1.93114   0.00020  -0.00008   0.00009   0.00001   1.93115
    R9        1.93206  -0.00011   0.00003  -0.00073  -0.00070   1.93136
    A1        2.01606  -0.00076   0.00071  -0.00540  -0.00581   2.01024
    A2        2.09824  -0.00020  -0.00221   0.00211  -0.00122   2.09701
    A3        2.16861   0.00105   0.00499   0.00343   0.00729   2.17589
    A4        1.94834   0.00066   0.00029   0.00346   0.00375   1.95208
    A5        1.89452  -0.00036   0.00067   0.00103   0.00167   1.89619
    A6        1.88655  -0.00025  -0.00044  -0.00812  -0.00855   1.87799
    A7        2.01218   0.00017   0.00020   0.00277   0.00296   2.01514
    A8        1.84802  -0.00017  -0.00031  -0.00345  -0.00377   1.84425
    A9        1.90405   0.00037  -0.00057   0.00610   0.00552   1.90956
   A10        1.91145   0.00019   0.00040   0.00102   0.00142   1.91288
   A11        1.97473   0.00038  -0.00050   0.00366   0.00315   1.97789
   A12        1.97936   0.00013   0.00012   0.00332   0.00343   1.98279
   A13        1.92566  -0.00027   0.00000   0.00048   0.00046   1.92612
    D1        0.58643  -0.00425   0.02827   0.00599   0.03353   0.61996
    D2       -2.53048  -0.00832   0.00000   0.00000   0.00000  -2.53048
    D3       -0.97572  -0.00179  -0.01261   0.03840   0.02556  -0.95016
    D4        1.02116  -0.00230  -0.01286   0.03069   0.01760   1.03876
    D5       -3.11712  -0.00213  -0.01253   0.02766   0.01489  -3.10222
    D6        2.14007   0.00244   0.01580   0.04463   0.06066   2.20073
    D7       -2.14624   0.00193   0.01555   0.03692   0.05271  -2.09353
    D8       -0.00133   0.00211   0.01588   0.03390   0.05000   0.04866
    D9       -1.12071  -0.00009  -0.00195  -0.00323  -0.00519  -1.12590
   D10        1.08961  -0.00002  -0.00228   0.00341   0.00114   1.09075
   D11        3.02616  -0.00004  -0.00254  -0.01131  -0.01386   3.01230
   D12       -1.04670   0.00003  -0.00287  -0.00466  -0.00753  -1.05424
   D13        1.01089  -0.00015  -0.00208  -0.01115  -0.01323   0.99766
   D14       -3.06198  -0.00008  -0.00240  -0.00450  -0.00690  -3.06888
         Item               Value     Threshold  Converged?
 Maximum Force            0.001022     0.000450     NO 
 RMS     Force            0.000451     0.000300     NO 
 Maximum Displacement     0.067825     0.001800     NO 
 RMS     Displacement     0.021402     0.001200     NO 
 Predicted change in Energy=-6.474680D-05
 Lowest energy point so far.  Saving SCF results.
 GradGradGradGradGradGradGradGradGradGradGradGradGradGradGradGradGradGrad

 Leave Link  103 at Mon Jan  1 12:44:13 2024, MaxMem=   134217728 cpu:               0.0 elap:               0.0
 (Enter /home/emanuele/chem_software/gaussian//gdv/l202.exe)
                          Input orientation:                          
 ---------------------------------------------------------------------
 Center     Atomic      Atomic             Coordinates (Angstroms)
 Number     Number       Type             X           Y           Z
 ---------------------------------------------------------------------
      1          6           0       -0.521541    0.358957    0.162869
      2          8           0       -1.825613   -0.159502    0.070349
      3          6           0        0.605545   -0.650945   -0.114328
      4          1           0        0.471507   -1.524732    0.555817
      5          1           0        0.463379   -1.037461   -1.141420
      6          7           0        1.953491   -0.135716    0.029315
      7          1           0        2.181570    0.595146   -0.647545
      8          1           0        2.173449    0.176445    0.977324
      9          8           0       -0.345652    1.548900    0.439993
     10          1           0       -1.874109   -1.094680    0.392576
 ---------------------------------------------------------------------
                    Distance matrix (angstroms):
                    1          2          3          4          5
     1  C    0.000000
     2  O    1.406401   0.000000
     3  C    1.538526   2.487197   0.000000
     4  H    2.165373   2.715933   1.109308   0.000000
     5  H    2.149702   2.734718   1.106582   1.765818   0.000000
     6  N    2.527513   3.779402   1.450191   2.098296   2.098618
     7  H    2.831848   4.140336   2.078682   2.977630   2.421052
     8  H    2.821280   4.114360   2.081971   2.443006   2.981104
     9  O    1.234382   2.290319   2.459953   3.182512   3.137620
    10  H    1.998816   0.990323   2.569539   2.390294   2.796474
                    6          7          8          9         10
     6  N    0.000000
     7  H    1.021919   0.000000
     8  H    1.022031   1.677968   0.000000
     9  O    2.879696   2.911913   2.918601   0.000000
    10  H    3.962586   4.515074   4.282571   3.054004   0.000000
 Symmetry turned off by external request.
 Stoichiometry    C2H5NO2
 Framework group  C1[X(C2H5NO2)]
 Deg. of freedom    24
 Full point group                 C1      NOp   1
 Rotational constants (GHZ):           9.7507303           3.7440042           2.8036440
 Leave Link  202 at Mon Jan  1 12:44:13 2024, MaxMem=   134217728 cpu:               0.1 elap:               0.0
 (Enter /home/emanuele/chem_software/gaussian//gdv/l301.exe)
 Standard basis: 6-31G (6D, 7F)
 Ernie: Thresh=  0.10000D-02 Tol=  0.10000D-05 Strict=F.
    55 basis functions,   130 primitive gaussians,    55 cartesian basis functions
    20 alpha electrons       20 beta electrons
       nuclear repulsion energy       175.5685903576 Hartrees.
 IExCor=   10009 DFT=T Ex=PBE Corr=PBE N6=None ScaHFX=  0.000000
 ScaDFX=  1.000000  1.000000  1.000000  1.000000  1.000000  0.000000
 ScaDFX=  0.000000  0.000000  0.000000  0.000000  0.000000  0.000000
 IRadAn=      5 IRanWt=     -1 IRanGd=            0 ICorTp=0 IEmpDi=  4
 NAtoms=   10 NActive=   10 NUniq=   10 SFac= 1.00D+00 NAtFMM=   60 NAOKFM=F Big=F
 Integral buffers will be    131072 words long.
 Raffenetti 2 integral format.
 Two-electron integral symmetry is turned off.
 Leave Link  301 at Mon Jan  1 12:44:13 2024, MaxMem=   134217728 cpu:               0.2 elap:               0.1
 (Enter /home/emanuele/chem_software/gaussian//gdv/l302.exe)
 NPDir=0 NMtPBC=     1 NCelOv=     1 NCel=       1 NClECP=     1 NCelD=      1
         NCelK=      1 NCelE2=     1 NClLst=     1 CellRange=     0.0.
 One-electron integrals computed using PRISM.
 NBasis=    55 RedAO= T EigKep=  6.26D-03  NBF=    55
 NBsUse=    55 1.00D-06 EigRej= -1.00D+00 NBFU=    55
 Precomputing XC quadrature grid using
 IXCGrd= 4 IRadAn=           5 IRanWt=          -1 IRanGd=           0 AccXCQ= 0.00D+00.
 Generated NRdTot=       0 NPtTot=      218845 NUsed=           0 NTot=          64
 NSgBfM=    55    55    55    55    55 MxSgAt=    10 MxSgA2=    10 SizInc=   0.000
 NMBTot=     1899 MaxBatPerAtom=       83 MaxMicBPerAtom=      195.
 Leave Link  302 at Mon Jan  1 12:44:13 2024, MaxMem=   134217728 cpu:               0.6 elap:               0.2
 (Enter /home/emanuele/chem_software/gaussian//gdv/l303.exe)
 DipDrv:  MaxL=1.
 Leave Link  303 at Mon Jan  1 12:44:13 2024, MaxMem=   134217728 cpu:               0.2 elap:               0.0
 (Enter /home/emanuele/chem_software/gaussian//gdv/l401.exe)
 Initial guess from the checkpoint file:  "3_qm.chk"
 B after Tr=    -0.001213   -0.003190   -0.005459
         Rot=    0.999980    0.006218    0.000285   -0.001322 Ang=   0.73 deg.
 AO Guess basis will be translated and rotated to current coordinates.
 JPrj=2 DoOrth=T DoCkMO=T.
 Generating alternative initial guess.
 ExpMin= 1.61D-01 ExpMax= 5.48D+03 ExpMxC= 8.25D+02 IAcc=3 IRadAn=         5 AccDes= 0.00D+00
 Harris functional with IExCor=10009 and IRadAn=       5 diagonalized for initial guess.
 HarFok:  IExCor=   10009 AccDes= 0.00D+00 IRadAn=         5 IDoV= 1 UseB2=F ITyADJ=14 ICtDFT=  3500011
 FoFCou: FMM=F IPFlag=           0 FMFlag=      100000 FMFlg1=           0
         NFxFlg=           0 DoJE=T BraDBF=F KetDBF=T FulRan=T
         wScrn=  0.000000 ICntrl=       500 IOpCl=  0 I1Cent=   200000004 NGrid=           0
         NMat0=    1 NMatS0=      1 NMatT0=    0 NMatD0=    1 NMtDS0=    0 NMtDT0=    0
 Symmetry not used in FoFCou.
 Harris En= -284.091507563145    
 Leave Link  401 at Mon Jan  1 12:44:14 2024, MaxMem=   134217728 cpu:               2.4 elap:               0.6
 (Enter /home/emanuele/chem_software/gaussian//gdv/l502.exe)
 Keep J ints in memory in canonical form, NReq=4700713.
 FoFCou: FMM=F IPFlag=           0 FMFlag=           0 FMFlg1=           0
         NFxFlg=           0 DoJE=F BraDBF=F KetDBF=F FulRan=T
         wScrn=  0.000000 ICntrl=       600 IOpCl=  0 I1Cent=           0 NGrid=           0
         NMat0=    1 NMatS0=   1540 NMatT0=    0 NMatD0=    1 NMtDS0=    0 NMtDT0=    0
 Symmetry not used in FoFCou.
 Two-electron integral symmetry not used.
 Closed shell SCF:
 Using DIIS extrapolation, IDIIS=  1040.
 NGot=   134217728 LenX=   133023731 LenY=   133020265
 Requested convergence on RMS density matrix=1.00D-08 within 128 cycles.
 Requested convergence on MAX density matrix=1.00D-06.
 Requested convergence on             energy=1.00D-06.
 No special actions if energy rises.
 Integral accuracy reduced to 1.0D-05 until final iterations.

 Cycle   1  Pass 0  IDiag  1:
 E= -283.999399853738    
 DIIS: error= 1.84D-03 at cycle   1 NSaved=   1.
 NSaved= 1 IEnMin= 1 EnMin= -283.999399853738     IErMin= 1 ErrMin= 1.84D-03
 ErrMax= 1.84D-03  0.00D+00 EMaxC= 1.00D-01 BMatC= 2.76D-04 BMatP= 2.76D-04
 IDIUse=3 WtCom= 9.82D-01 WtEn= 1.84D-02
 Coeff-Com:  0.100D+01
 Coeff-En:   0.100D+01
 Coeff:      0.100D+01
 Gap=     0.491 Goal=   None    Shift=    0.000
 GapD=    0.491 DampG=2.000 DampE=1.000 DampFc=2.0000 IDamp=-1.
 RMSDP=7.65D-04 MaxDP=5.89D-03              OVMax= 8.11D-03

 Cycle   2  Pass 0  IDiag  1:
