 Entering Gaussian System, Link 0=/home/emanuele/chem_software/gaussian//g09/g09
 Input=3_zmat_qm.gjf
 Output=3_zmat_qm.log
 Initial command:
 /home/emanuele/chem_software/gaussian//gdv/l1.exe "/home/emanuele/chem_software/gaussian/scratch/Gau-14930.inp" -scrdir="/home/emanuele/chem_software/gaussian/scratch/"
 Entering Link 1 = /home/emanuele/chem_software/gaussian//gdv/l1.exe PID=     14932.
  
 Copyright (c) 1988-2020, Gaussian, Inc.  All Rights Reserved.
  
 This is the private, development version of
 the Gaussian(R) DV system of programs. It is based on
 the Gaussian(R) 16 system (copyright 2016, Gaussian, Inc.),
 the Gaussian(R) 09 system (copyright 2009, Gaussian, Inc.),
 the Gaussian(R) 03 system (copyright 2003, Gaussian, Inc.),
 the Gaussian(R) 98 system (copyright 1998, Gaussian, Inc.),
 the Gaussian(R) 94 system (copyright 1995, Gaussian, Inc.),
 the Gaussian 92(TM) system (copyright 1992, Gaussian, Inc.),
 the Gaussian 90(TM) system (copyright 1990, Gaussian, Inc.),
 the Gaussian 88(TM) system (copyright 1988, Gaussian, Inc.),
 the Gaussian 86(TM) system (copyright 1986, Carnegie Mellon
 University), and the Gaussian 82(TM) system (copyright 1983,
 Carnegie Mellon University). Gaussian is a federally registered
 trademark of Gaussian, Inc.
  
 This software contains proprietary and confidential information,
 including trade secrets, belonging to Gaussian, Inc.
  
 This software is provided under written license and may be
 used, copied, transmitted, or stored only in accord with that
 written license.
  
 The following legend is applicable only to US Government
 contracts under FAR:
  
                    RESTRICTED RIGHTS LEGEND
  
 Use, reproduction and disclosure by the US Government is
 subject to restrictions as set forth in subparagraphs (a)
 and (c) of the Commercial Computer Software - Restricted
 Rights clause in FAR 52.227-19.
  
 Gaussian, Inc.
 340 Quinnipiac St., Bldg. 40, Wallingford CT 06492
  
  
 ---------------------------------------------------------------
 Warning -- This program may not be used in any manner that
 competes with the business of Gaussian, Inc. or will provide
 assistance to any competitor of Gaussian, Inc.  The licensee
 of this program is prohibited from giving any competitor of
 Gaussian, Inc. access to this program.  By using this program,
 the user acknowledges that Gaussian, Inc. is engaged in the
 business of creating and licensing software in the field of
 computational chemistry and represents and warrants to the
 licensee that it is not a competitor of Gaussian, Inc. and that
 it will not use this program in any manner prohibited above.
 ---------------------------------------------------------------
  

 Cite this work as:
 Gaussian Development Version, Revision J.14,
 M. J. Frisch, G. W. Trucks, H. B. Schlegel, G. E. Scuseria, 
 M. A. Robb, J. R. Cheeseman, G. Scalmani, V. Barone, 
 G. A. Petersson, H. Nakatsuji, X. Li, A. V. Marenich, M. Caricato, 
 J. Bloino, B. G. Janesko, J. Zheng, R. Gomperts, B. Mennucci, 
 H. P. Hratchian, J. V. Ortiz, A. F. Izmaylov, J. L. Sonnenberg, 
 D. Williams-Young, F. Ding, F. Lipparini, F. Egidi, J. Goings, 
 B. Peng, A. Petrone, T. Henderson, D. Ranasinghe, V. G. Zakrzewski, 
 J. Gao, N. Rega, G. Zheng, W. Liang, M. Hada, M. Ehara, K. Toyota, 
 R. Fukuda, J. Hasegawa, M. Ishida, T. Nakajima, Y. Honda, O. Kitao, 
 H. Nakai, T. Vreven, K. Throssell, J. A. Montgomery, Jr., 
 J. E. Peralta, F. Ogliaro, M. J. Bearpark, J. J. Heyd, 
 E. N. Brothers, K. N. Kudin, V. N. Staroverov, T. A. Keith, 
 R. Kobayashi, J. Normand, K. Raghavachari, A. P. Rendell, 
 J. C. Burant, S. S. Iyengar, J. Tomasi, M. Cossi, J. M. Millam, 
 M. Klene, C. Adamo, R. Cammi, J. W. Ochterski, R. L. Martin, 
 K. Morokuma, O. Farkas, J. B. Foresman, and D. J. Fox, 
 Gaussian, Inc., Wallingford CT, 2020.
 
 ******************************************
 Gaussian DV:  ES64L-GDVRevJ.14 29-Dec-2020
                25-Nov-2023 
 ******************************************
 %mem=1GB
 %nprocshared=4
 Will use up to    4 processors via shared memory.
 %chk=3_zmat_qm.chk
 ----------------------------------------------------------
 #p nosymm geom=nocrowd opt=(modredundant,maxcycle=100) PM6
 ----------------------------------------------------------
 1/6=100,18=120,19=15,26=1,37=210000000,38=1/1,3;
 2/9=110,12=1,15=1,40=1/2;
 3/5=2,25=1,41=3900000,71=1/1,2,3;
 4/35=1/1;
 5/5=2,35=1,38=5/2;
 6/7=2,8=2,9=2,10=2,28=1/1;
 7/30=1/1,2,3,16;
 1/6=100,18=20,19=15,26=1/3(2);
 2/9=110,12=1,15=1/2;
 99//99;
 2/9=110,12=1,15=1/2;
 3/5=2,25=1,41=3900000,71=1,135=20/1,2,3;
 4/5=5,16=3,35=1/1;
 5/5=2,35=1,38=5/2;
 7/30=1/1,2,3,16;
 1/6=100,18=20,19=15,26=1/3(-5);
 2/9=110,12=1,15=1/2;
 6/7=2,8=2,9=2,10=2,19=2,28=1/1;
 99/9=1/99;
 Leave Link    1 at Sat Nov 25 14:43:42 2023, MaxMem=   134217728 cpu:               0.2 elap:               0.1
 (Enter /home/emanuele/chem_software/gaussian//gdv/l101.exe)
 -----
 Title
 -----
 Symbolic Z-matrix:
 Charge =  0 Multiplicity = 1
 C                    -0.53685   0.10417   0.01464 
 O                    -1.63632  -0.67637  -0.06827 
 C                     0.72601  -0.7177    0.10528 
 H                     0.71699  -1.15712   1.11445 
 H                     0.64338  -1.5538   -0.59228 
 N                     1.88901   0.09773  -0.1951 
 H                     1.74816   1.04081   0.14593 
 H                     2.72354  -0.27843   0.23189 
 O                    -0.58681   1.30563   0.04628 
 H                    -2.40509  -0.08851  -0.07785 
 
 The following ModRedundant input section has been read:
 D       3       1       2      10 S  10 36.000                                
 
 ITRead=  0  0  0  0  0  0  0  0  0  0
 MicOpt= -1 -1 -1 -1 -1 -1 -1 -1 -1 -1
 NAtoms=     10 NQM=       10 NQMF=       0 NMMI=      0 NMMIF=      0
                NMic=       0 NMicF=      0.
                    Isotopes and Nuclear Properties:
 (Nuclear quadrupole moments (NQMom) in fm**2, nuclear magnetic moments (NMagM)
  in nuclear magnetons)

  Atom         1           2           3           4           5           6           7           8           9          10
 IAtWgt=          12          16          12           1           1          14           1           1          16           1
 AtmWgt=  12.0000000  15.9949146  12.0000000   1.0078250   1.0078250  14.0030740   1.0078250   1.0078250  15.9949146   1.0078250
 NucSpn=           0           0           0           1           1           2           1           1           0           1
 AtZEff=  -0.0000000  -0.0000000  -0.0000000  -0.0000000  -0.0000000  -0.0000000  -0.0000000  -0.0000000  -0.0000000  -0.0000000
 NQMom=    0.0000000   0.0000000   0.0000000   0.0000000   0.0000000   2.0440000   0.0000000   0.0000000   0.0000000   0.0000000
 NMagM=    0.0000000   0.0000000   0.0000000   2.7928460   2.7928460   0.4037610   2.7928460   2.7928460   0.0000000   2.7928460
 AtZNuc=   6.0000000   8.0000000   6.0000000   1.0000000   1.0000000   7.0000000   1.0000000   1.0000000   8.0000000   1.0000000
 Leave Link  101 at Sat Nov 25 14:43:43 2023, MaxMem=   134217728 cpu:               0.9 elap:               0.3
 (Enter /home/emanuele/chem_software/gaussian//gdv/l103.exe)

 GradGradGradGradGradGradGradGradGradGradGradGradGradGradGradGradGradGrad
 Berny optimization.
 Initialization pass.
                           ----------------------------
                           !    Initial Parameters    !
                           ! (Angstroms and Degrees)  !
 --------------------------                            --------------------------
 ! Name  Definition              Value          Derivative Info.                !
 --------------------------------------------------------------------------------
 ! R1    R(1,2)                  1.3509         estimate D2E/DX2                !
 ! R2    R(1,3)                  1.5095         estimate D2E/DX2                !
 ! R3    R(1,9)                  1.2029         estimate D2E/DX2                !
 ! R4    R(2,10)                 0.9678         estimate D2E/DX2                !
 ! R5    R(3,4)                  1.1007         estimate D2E/DX2                !
 ! R6    R(3,5)                  1.092          estimate D2E/DX2                !
 ! R7    R(3,6)                  1.4518         estimate D2E/DX2                !
 ! R8    R(6,7)                  1.0127         estimate D2E/DX2                !
 ! R9    R(6,8)                  1.0101         estimate D2E/DX2                !
 ! A1    A(2,1,3)              111.7154         estimate D2E/DX2                !
 ! A2    A(2,1,9)              123.0182         estimate D2E/DX2                !
 ! A3    A(3,1,9)              125.2388         estimate D2E/DX2                !
 ! A4    A(1,2,10)             107.2257         estimate D2E/DX2                !
 ! A5    A(1,3,4)              105.4003         estimate D2E/DX2                !
 ! A6    A(1,3,5)              108.3736         estimate D2E/DX2                !
 ! A7    A(1,3,6)              110.6071         estimate D2E/DX2                !
 ! A8    A(4,3,5)              106.2232         estimate D2E/DX2                !
 ! A9    A(4,3,6)              114.8648         estimate D2E/DX2                !
 ! A10   A(5,3,6)              111.0079         estimate D2E/DX2                !
 ! A11   A(3,6,7)              109.9968         estimate D2E/DX2                !
 ! A12   A(3,6,8)              111.4207         estimate D2E/DX2                !
 ! A13   A(7,6,8)              108.6253         estimate D2E/DX2                !
 ! D1    D(3,1,2,10)           177.195          Scan                            !
 ! D2    D(9,1,2,10)            -0.9857         estimate D2E/DX2                !
 ! D3    D(2,1,3,4)            -71.8288         estimate D2E/DX2                !
 ! D4    D(2,1,3,5)             41.552          estimate D2E/DX2                !
 ! D5    D(2,1,3,6)            163.4539         estimate D2E/DX2                !
 ! D6    D(9,1,3,4)            106.3034         estimate D2E/DX2                !
 ! D7    D(9,1,3,5)           -140.3158         estimate D2E/DX2                !
 ! D8    D(9,1,3,6)            -18.4139         estimate D2E/DX2                !
 ! D9    D(1,3,6,7)             34.6533         estimate D2E/DX2                !
 ! D10   D(1,3,6,8)            155.1742         estimate D2E/DX2                !
 ! D11   D(4,3,6,7)            -84.4877         estimate D2E/DX2                !
 ! D12   D(4,3,6,8)             36.0331         estimate D2E/DX2                !
 ! D13   D(5,3,6,7)            154.9936         estimate D2E/DX2                !
 ! D14   D(5,3,6,8)            -84.4855         estimate D2E/DX2                !
 --------------------------------------------------------------------------------
 Trust Radius=3.00D-01 FncErr=1.00D-07 GrdErr=1.00D-07 EigMax=2.50D+02 EigMin=1.00D-04
 Number of optimizations in scan=  11
 Number of steps in this run=    100 maximum allowed number of steps=    100.
 GradGradGradGradGradGradGradGradGradGradGradGradGradGradGradGradGradGrad

 Leave Link  103 at Sat Nov 25 14:43:43 2023, MaxMem=   134217728 cpu:               0.0 elap:               0.0
 (Enter /home/emanuele/chem_software/gaussian//gdv/l202.exe)
                          Input orientation:                          
 ---------------------------------------------------------------------
 Center     Atomic      Atomic             Coordinates (Angstroms)
 Number     Number       Type             X           Y           Z
 ---------------------------------------------------------------------
      1          6           0       -0.536850    0.104174    0.014636
      2          8           0       -1.636322   -0.676373   -0.068268
      3          6           0        0.726013   -0.717700    0.105280
      4          1           0        0.716994   -1.157121    1.114447
      5          1           0        0.643380   -1.553795   -0.592281
      6          7           0        1.889013    0.097733   -0.195097
      7          1           0        1.748159    1.040807    0.145925
      8          1           0        2.723536   -0.278432    0.231888
      9          8           0       -0.586810    1.305633    0.046275
     10          1           0       -2.405088   -0.088514   -0.077854
 ---------------------------------------------------------------------
                    Distance matrix (angstroms):
                    1          2          3          4          5
     1  C    0.000000
     2  O    1.350913   0.000000
     3  C    1.509475   2.369062   0.000000
     4  H    2.091070   2.677318   1.100723   0.000000
     5  H    2.123712   2.498299   1.092005   1.753764   0.000000
     6  N    2.434921   3.611553   1.451801   2.159443   2.106395
     7  H    2.473011   3.801223   2.034400   2.613852   2.915038
     8  H    3.289940   4.388258   2.049167   2.361613   2.575433
     9  O    1.202913   2.245650   2.412646   2.984301   3.177648
    10  H    1.880424   0.967818   3.198938   3.508689   3.421234
                    6          7          8          9         10
     6  N    0.000000
     7  H    1.012682   0.000000
     8  H    1.010072   1.642906   0.000000
     9  O    2.765318   2.352051   3.674521   0.000000
    10  H    4.299737   4.309861   5.141478   2.294600   0.000000
 Symmetry turned off by external request.
 Stoichiometry    C2H5NO2
 Framework group  C1[X(C2H5NO2)]
 Deg. of freedom    24
 Full point group                 C1      NOp   1
 Rotational constants (GHZ):          10.4489861           3.9571341           2.9518000
 Leave Link  202 at Sat Nov 25 14:43:43 2023, MaxMem=   134217728 cpu:               0.1 elap:               0.0
 (Enter /home/emanuele/chem_software/gaussian//gdv/l301.exe)
 Standard basis: VSTO-6G (5D, 7F)
 Ernie: Thresh=  0.10000D-02 Tol=  0.10000D-05 Strict=F.
  NNHCO=     0 NNPyr=     0 NCTC=     0               EPep=         0.000000000
    EC=        84.002832998  ECS=         2.253874644   EG=         0.126211539
   EHC=         0.001112369  EAt=       -38.066560349  AtH=         1.329713788
 EPDDG=         0.000000000  ECC=        86.384031549 EAtT=        39.396274136
    25 basis functions,   150 primitive gaussians,    25 cartesian basis functions
    15 alpha electrons       15 beta electrons
       nuclear repulsion energy       125.7803056858 Hartrees.
 IExCor=       0 DFT=F Ex=HF Corr=None N6=None ScaHFX=  1.000000
 ScaDFX=  1.000000  1.000000  1.000000  1.000000  1.000000  0.000000
 ScaDFX=  0.000000  0.000000  0.000000  0.000000  0.000000  0.000000
 IRadAn=      5 IRanWt=     -1 IRanGd=            0 ICorTp=0 IEmpDi=  4
 Integral buffers will be    131072 words long.
 Regular integral format.
 Two-electron integral symmetry is turned off.
 Leave Link  301 at Sat Nov 25 14:43:43 2023, MaxMem=   134217728 cpu:               0.2 elap:               0.1
 (Enter /home/emanuele/chem_software/gaussian//gdv/l302.exe)
 Do NDO integrals.
 NPDir=0 NMtPBC=     1 NCelOv=     1 NCel=       1 NClECP=     1 NCelD=      1
         NCelK=      1 NCelE2=     1 NClLst=     1 CellRange=     0.0.
 One-electron integrals computed using PRISM.
 NBasis=    25 RedAO= F EigKep=  0.00D+00  NBF=    25
 NBsUse=    25 1.00D-04 EigRej=  0.00D+00 NBFU=    25
 Leave Link  302 at Sat Nov 25 14:43:43 2023, MaxMem=   134217728 cpu:               0.3 elap:               0.1
 (Enter /home/emanuele/chem_software/gaussian//gdv/l303.exe)
 DipDrv:  MaxL=1.
 Leave Link  303 at Sat Nov 25 14:43:43 2023, MaxMem=   134217728 cpu:               0.1 elap:               0.0
 (Enter /home/emanuele/chem_software/gaussian//gdv/l401.exe)
 Simple Huckel Guess.
 JPrj=0 DoOrth=F DoCkMO=F.
 Leave Link  401 at Sat Nov 25 14:43:43 2023, MaxMem=   134217728 cpu:               0.2 elap:               0.0
 (Enter /home/emanuele/chem_software/gaussian//gdv/l502.exe)
 Keep J ints in memory in canonical form, NReq=861126.
 FoFCou: FMM=F IPFlag=           0 FMFlag=           0 FMFlg1=           0
         NFxFlg=           0 DoJE=F BraDBF=F KetDBF=F FulRan=T
         wScrn=  0.000000 ICntrl=       600 IOpCl=  2 I1Cent=           0 NGrid=           0
         NMat0=    1 NMatS0=     55 NMatT0=    0 NMatD0=    1 NMtDS0=    0 NMtDT0=    0
 Symmetry not used in FoFCou.
 Two-electron integral symmetry not used.
 Closed shell SCF:
 Using DIIS extrapolation, IDIIS=  1040.
 Overlap will be assumed to be unity.
 NGot=   134217728 LenX=   134155015 LenY=   134153949
 Requested convergence on RMS density matrix=1.00D-08 within 128 cycles.
 Requested convergence on MAX density matrix=1.00D-06.
 Requested convergence on             energy=1.00D-06.
 No special actions if energy rises.

 Cycle   1  Pass 1  IDiag  1:
 E= 0.171768323968593    
 DIIS: error= 5.87D-02 at cycle   1 NSaved=   1.
 NSaved= 1 IEnMin= 1 EnMin= 0.171768323968593     IErMin= 1 ErrMin= 5.87D-02
 ErrMax= 5.87D-02  0.00D+00 EMaxC= 1.00D-01 BMatC= 8.86D-02 BMatP= 8.86D-02
 IDIUse=3 WtCom= 4.13D-01 WtEn= 5.87D-01
 Coeff-Com:  0.100D+01
 Coeff-En:   0.100D+01
 Coeff:      0.100D+01
 GapD=    2.000 DampG=2.000 DampE=0.500 DampFc=1.0000 IDamp=-1.
 RMSDP=1.97D-02 MaxDP=1.61D-01              OVMax= 0.00D+00

 Cycle   2  Pass 1  IDiag  1:
 E=-0.907243624587153E-01 Delta-E=       -0.262492686427 Rises=F Damp=F
 DIIS: error= 1.89D-02 at cycle   2 NSaved=   2.
 NSaved= 2 IEnMin= 2 EnMin=-0.907243624587153E-01 IErMin= 2 ErrMin= 1.89D-02
 ErrMax= 1.89D-02  0.00D+00 EMaxC= 1.00D-01 BMatC= 1.04D-02 BMatP= 8.86D-02
 IDIUse=3 WtCom= 8.11D-01 WtEn= 1.89D-01
 Coeff-Com: -0.330D+00 0.133D+01
 Coeff-En:   0.000D+00 0.100D+01
 Coeff:     -0.268D+00 0.127D+01
 RMSDP=9.09D-03 MaxDP=5.88D-02 DE=-2.62D-01 OVMax= 0.00D+00

 Cycle   3  Pass 1  IDiag  3:
 E=-0.131686604490383     Delta-E=       -0.040962242032 Rises=F Damp=F
 DIIS: error= 5.72D-03 at cycle   3 NSaved=   3.
 NSaved= 3 IEnMin= 3 EnMin=-0.131686604490383     IErMin= 3 ErrMin= 5.72D-03
 ErrMax= 5.72D-03  0.00D+00 EMaxC= 1.00D-01 BMatC= 9.51D-04 BMatP= 1.04D-02
 IDIUse=3 WtCom= 9.43D-01 WtEn= 5.72D-02
 Coeff-Com:  0.114D+00-0.663D+00 0.155D+01
 Coeff-En:   0.000D+00 0.000D+00 0.100D+01
 Coeff:      0.108D+00-0.625D+00 0.152D+01
 Gap=     0.372 Goal=   None    Shift=    0.000
 RMSDP=4.00D-03 MaxDP=3.01D-02 DE=-4.10D-02 OVMax= 2.54D-02

 Cycle   4  Pass 1  IDiag  3:
 E=-0.136696101732383     Delta-E=       -0.005009497242 Rises=F Damp=F
 DIIS: error= 1.40D-03 at cycle   4 NSaved=   4.
 NSaved= 4 IEnMin= 4 EnMin=-0.136696101732383     IErMin= 4 ErrMin= 1.40D-03
 ErrMax= 1.40D-03  0.00D+00 EMaxC= 1.00D-01 BMatC= 4.28D-05 BMatP= 9.51D-04
 IDIUse=3 WtCom= 9.86D-01 WtEn= 1.40D-02
 Coeff-Com: -0.400D-01 0.258D+00-0.755D+00 0.154D+01
 Coeff-En:   0.000D+00 0.000D+00 0.000D+00 0.100D+01
 Coeff:     -0.394D-01 0.254D+00-0.745D+00 0.153D+01
 Gap=     0.372 Goal=   None    Shift=    0.000
 RMSDP=1.04D-03 MaxDP=9.03D-03 DE=-5.01D-03 OVMax= 7.57D-03

 Cycle   5  Pass 1  IDiag  3:
 E=-0.136963559301549     Delta-E=       -0.000267457569 Rises=F Damp=F
 DIIS: error= 1.91D-04 at cycle   5 NSaved=   5.
 NSaved= 5 IEnMin= 5 EnMin=-0.136963559301549     IErMin= 5 ErrMin= 1.91D-04
 ErrMax= 1.91D-04  0.00D+00 EMaxC= 1.00D-01 BMatC= 1.66D-06 BMatP= 4.28D-05
 IDIUse=3 WtCom= 9.98D-01 WtEn= 1.91D-03
 Coeff-Com:  0.842D-02-0.624D-01 0.208D+00-0.597D+00 0.144D+01
 Coeff-En:   0.000D+00 0.000D+00 0.000D+00 0.000D+00 0.100D+01
 Coeff:      0.840D-02-0.622D-01 0.208D+00-0.596D+00 0.144D+01
 Gap=     0.372 Goal=   None    Shift=    0.000
 RMSDP=2.12D-04 MaxDP=1.77D-03 DE=-2.67D-04 OVMax= 1.33D-03

 Cycle   6  Pass 1  IDiag  3:
 E=-0.136973636601908     Delta-E=       -0.000010077300 Rises=F Damp=F
 DIIS: error= 3.70D-05 at cycle   6 NSaved=   6.
 NSaved= 6 IEnMin= 6 EnMin=-0.136973636601908     IErMin= 6 ErrMin= 3.70D-05
 ErrMax= 3.70D-05  0.00D+00 EMaxC= 1.00D-01 BMatC= 5.72D-08 BMatP= 1.66D-06
 IDIUse=1 WtCom= 1.00D+00 WtEn= 0.00D+00
 Coeff-Com: -0.207D-02 0.176D-01-0.620D-01 0.206D+00-0.642D+00 0.148D+01
 Coeff:     -0.207D-02 0.176D-01-0.620D-01 0.206D+00-0.642D+00 0.148D+01
 Gap=     0.372 Goal=   None    Shift=    0.000
 RMSDP=3.64D-05 MaxDP=2.48D-04 DE=-1.01D-05 OVMax= 2.53D-04

 Cycle   7  Pass 1  IDiag  3:
 E=-0.136973965269405     Delta-E=       -0.000000328667 Rises=F Damp=F
 DIIS: error= 5.99D-06 at cycle   7 NSaved=   7.
 NSaved= 7 IEnMin= 7 EnMin=-0.136973965269405     IErMin= 7 ErrMin= 5.99D-06
 ErrMax= 5.99D-06  0.00D+00 EMaxC= 1.00D-01 BMatC= 2.51D-09 BMatP= 5.72D-08
 IDIUse=1 WtCom= 1.00D+00 WtEn= 0.00D+00
 Coeff-Com:  0.699D-03-0.607D-02 0.203D-01-0.682D-01 0.223D+00-0.593D+00
 Coeff-Com:  0.142D+01
 Coeff:      0.699D-03-0.607D-02 0.203D-01-0.682D-01 0.223D+00-0.593D+00
 Coeff:      0.142D+01
 Gap=     0.372 Goal=   None    Shift=    0.000
 RMSDP=8.01D-06 MaxDP=5.07D-05 DE=-3.29D-07 OVMax= 6.55D-05

 Cycle   8  Pass 1  IDiag  3:
 E=-0.136973981683084     Delta-E=       -0.000000016414 Rises=F Damp=F
 DIIS: error= 2.82D-06 at cycle   8 NSaved=   8.
 NSaved= 8 IEnMin= 8 EnMin=-0.136973981683084     IErMin= 8 ErrMin= 2.82D-06
 ErrMax= 2.82D-06  0.00D+00 EMaxC= 1.00D-01 BMatC= 2.98D-10 BMatP= 2.51D-09
 IDIUse=1 WtCom= 1.00D+00 WtEn= 0.00D+00
 Coeff-Com: -0.111D-03 0.111D-02-0.319D-02 0.121D-01-0.468D-01 0.147D+00
 Coeff-Com: -0.696D+00 0.159D+01
 Coeff:     -0.111D-03 0.111D-02-0.319D-02 0.121D-01-0.468D-01 0.147D+00
 Coeff:     -0.696D+00 0.159D+01
 Gap=     0.372 Goal=   None    Shift=    0.000
 RMSDP=3.21D-06 MaxDP=1.72D-05 DE=-1.64D-08 OVMax= 1.97D-05

 Cycle   9  Pass 1  IDiag  3:
 E=-0.136973983708913     Delta-E=       -0.000000002026 Rises=F Damp=F
 DIIS: error= 6.46D-07 at cycle   9 NSaved=   9.
 NSaved= 9 IEnMin= 9 EnMin=-0.136973983708913     IErMin= 9 ErrMin= 6.46D-07
 ErrMax= 6.46D-07  0.00D+00 EMaxC= 1.00D-01 BMatC= 1.61D-11 BMatP= 2.98D-10
 IDIUse=1 WtCom= 1.00D+00 WtEn= 0.00D+00
 Coeff-Com: -0.274D-06-0.722D-04-0.551D-04-0.350D-03 0.401D-02-0.184D-01
 Coeff-Com:  0.170D+00-0.565D+00 0.141D+01
 Coeff:     -0.274D-06-0.722D-04-0.551D-04-0.350D-03 0.401D-02-0.184D-01
 Coeff:      0.170D+00-0.565D+00 0.141D+01
 Gap=     0.372 Goal=   None    Shift=    0.000
 RMSDP=6.23D-07 MaxDP=3.84D-06 DE=-2.03D-09 OVMax= 3.31D-06

 Cycle  10  Pass 1  IDiag  3:
 E=-0.136973983799180     Delta-E=       -0.000000000090 Rises=F Damp=F
 DIIS: error= 1.49D-07 at cycle  10 NSaved=  10.
 NSaved=10 IEnMin=10 EnMin=-0.136973983799180     IErMin=10 ErrMin= 1.49D-07
 ErrMax= 1.49D-07  0.00D+00 EMaxC= 1.00D-01 BMatC= 1.06D-12 BMatP= 1.61D-11
 IDIUse=1 WtCom= 1.00D+00 WtEn= 0.00D+00
 Coeff-Com:  0.607D-05-0.280D-04 0.163D-03-0.381D-03 0.520D-03 0.145D-03
 Coeff-Com: -0.175D-01 0.762D-01-0.426D+00 0.137D+01
 Coeff:      0.607D-05-0.280D-04 0.163D-03-0.381D-03 0.520D-03 0.145D-03
 Coeff:     -0.175D-01 0.762D-01-0.426D+00 0.137D+01
 Gap=     0.372 Goal=   None    Shift=    0.000
 RMSDP=1.63D-07 MaxDP=1.11D-06 DE=-9.03D-11 OVMax= 8.46D-07

 Cycle  11  Pass 1  IDiag  3:
 E=-0.136973983805575     Delta-E=       -0.000000000006 Rises=F Damp=F
 DIIS: error= 4.05D-08 at cycle  11 NSaved=  11.
 NSaved=11 IEnMin=11 EnMin=-0.136973983805575     IErMin=11 ErrMin= 4.05D-08
 ErrMax= 4.05D-08  0.00D+00 EMaxC= 1.00D-01 BMatC= 8.06D-14 BMatP= 1.06D-12
 IDIUse=1 WtCom= 1.00D+00 WtEn= 0.00D+00
 Coeff-Com: -0.131D-05 0.896D-05-0.282D-04 0.921D-04-0.355D-03 0.116D-02
 Coeff-Com: -0.918D-02 0.286D-01 0.130D-01-0.454D+00 0.142D+01
 Coeff:     -0.131D-05 0.896D-05-0.282D-04 0.921D-04-0.355D-03 0.116D-02
 Coeff:     -0.918D-02 0.286D-01 0.130D-01-0.454D+00 0.142D+01
 Gap=     0.372 Goal=   None    Shift=    0.000
 RMSDP=4.85D-08 MaxDP=2.87D-07 DE=-6.39D-12 OVMax= 3.58D-07

 Cycle  12  Pass 1  IDiag  3:
 E=-0.136973983806030     Delta-E=       -0.000000000000 Rises=F Damp=F
 DIIS: error= 9.46D-09 at cycle  12 NSaved=  12.
 NSaved=12 IEnMin=12 EnMin=-0.136973983806030     IErMin=12 ErrMin= 9.46D-09
 ErrMax= 9.46D-09  0.00D+00 EMaxC= 1.00D-01 BMatC= 5.27D-15 BMatP= 8.06D-14
 IDIUse=1 WtCom= 1.00D+00 WtEn= 0.00D+00
 Coeff-Com:  0.184D-06-0.112D-05 0.111D-05-0.665D-05 0.719D-04-0.344D-03
 Coeff-Com:  0.455D-02-0.166D-01 0.736D-02 0.197D+00-0.845D+00 0.165D+01
 Coeff:      0.184D-06-0.112D-05 0.111D-05-0.665D-05 0.719D-04-0.344D-03
 Coeff:      0.455D-02-0.166D-01 0.736D-02 0.197D+00-0.845D+00 0.165D+01
 Gap=     0.372 Goal=   None    Shift=    0.000
 RMSDP=1.45D-08 MaxDP=8.88D-08 DE=-4.55D-13 OVMax= 1.01D-07

 Cycle  13  Pass 1  IDiag  3:
 E=-0.136973983806101     Delta-E=       -0.000000000000 Rises=F Damp=F
 DIIS: error= 1.67D-09 at cycle  13 NSaved=  13.
 NSaved=13 IEnMin=13 EnMin=-0.136973983806101     IErMin=13 ErrMin= 1.67D-09
 ErrMax= 1.67D-09  0.00D+00 EMaxC= 1.00D-01 BMatC= 1.79D-16 BMatP= 5.27D-15
 IDIUse=1 WtCom= 1.00D+00 WtEn= 0.00D+00
 Coeff-Com:  0.881D-08-0.179D-06 0.222D-05-0.531D-05-0.960D-05 0.107D-03
 Coeff-Com: -0.209D-02 0.799D-02-0.547D-02-0.862D-01 0.398D+00-0.885D+00
 Coeff-Com:  0.157D+01
 Coeff:      0.881D-08-0.179D-06 0.222D-05-0.531D-05-0.960D-05 0.107D-03
 Coeff:     -0.209D-02 0.799D-02-0.547D-02-0.862D-01 0.398D+00-0.885D+00
 Coeff:      0.157D+01
 Gap=     0.372 Goal=   None    Shift=    0.000
 RMSDP=2.50D-09 MaxDP=1.75D-08 DE=-7.11D-14 OVMax= 2.13D-08

 Cycle  14  Pass 2  IDiag  1:
 SCF Done:  E(RPM6) = -0.136973983806     A.U. after   14 cycles
            NFock= 13  Conv=0.25D-08     -V/T= 0.9979
 KE=-6.559711597378D+01 PE=-1.647720729518D+02 EE= 1.044519092559D+02
 Leave Link  502 at Sat Nov 25 14:43:43 2023, MaxMem=   134217728 cpu:               0.2 elap:               0.1
 (Enter /home/emanuele/chem_software/gaussian//gdv/l601.exe)
 Copying SCF densities to generalized density rwf, IOpCl= 0 IROHF=0.

 **********************************************************************

            Population analysis using the SCF Density.

 **********************************************************************

 Alpha  occ. eigenvalues --       -1.22033      -1.17650      -1.15177      -0.96585      -0.79048
 Alpha  occ. eigenvalues --       -0.69293      -0.65535      -0.63929      -0.58072      -0.56742
 Alpha  occ. eigenvalues --       -0.53691      -0.50561      -0.46483      -0.42332      -0.36139
 Alpha virt. eigenvalues --        0.01043       0.05109       0.09137       0.11428       0.13931
 Alpha virt. eigenvalues --        0.16361       0.16810       0.19059       0.21211       0.24502
          Condensed to atoms (all electrons):
               1          2          3          4          5          6
     1  C    3.389636   0.000000   0.000000   0.000000   0.000000   0.000000
     2  O    0.000000   6.491501   0.000000   0.000000   0.000000   0.000000
     3  C    0.000000   0.000000   4.256520   0.000000   0.000000   0.000000
     4  H    0.000000   0.000000   0.000000   0.847919   0.000000   0.000000
     5  H    0.000000   0.000000   0.000000   0.000000   0.808674   0.000000
     6  N    0.000000   0.000000   0.000000   0.000000   0.000000   5.485381
     7  H    0.000000   0.000000   0.000000   0.000000   0.000000   0.000000
     8  H    0.000000   0.000000   0.000000   0.000000   0.000000   0.000000
     9  O    0.000000   0.000000   0.000000   0.000000   0.000000   0.000000
    10  H    0.000000   0.000000   0.000000   0.000000   0.000000   0.000000
               7          8          9         10
     1  C    0.000000   0.000000   0.000000   0.000000
     2  O    0.000000   0.000000   0.000000   0.000000
     3  C    0.000000   0.000000   0.000000   0.000000
     4  H    0.000000   0.000000   0.000000   0.000000
     5  H    0.000000   0.000000   0.000000   0.000000
     6  N    0.000000   0.000000   0.000000   0.000000
     7  H    0.770909   0.000000   0.000000   0.000000
     8  H    0.000000   0.782627   0.000000   0.000000
     9  O    0.000000   0.000000   6.501898   0.000000
    10  H    0.000000   0.000000   0.000000   0.664933
 Mulliken charges:
               1
     1  C    0.610364
     2  O   -0.491501
     3  C   -0.256520
     4  H    0.152081
     5  H    0.191326
     6  N   -0.485381
     7  H    0.229091
     8  H    0.217373
     9  O   -0.501898
    10  H    0.335067
 Sum of Mulliken charges =  -0.00000
 Mulliken charges with hydrogens summed into heavy atoms:
               1
     1  C    0.610364
     2  O   -0.156434
     3  C    0.086886
     6  N   -0.038918
     9  O   -0.501898
 Charge=             -0.0000 electrons
 Dipole moment (field-independent basis, Debye):
    X=             -0.0442    Y=             -1.7562    Z=              2.0287  Tot=              2.6836
 N-N= 1.257803056858D+02 E-N=-1.647720729272D+02  KE=-6.559711597378D+01
 Leave Link  601 at Sat Nov 25 14:43:43 2023, MaxMem=   134217728 cpu:               0.2 elap:               0.0
 (Enter /home/emanuele/chem_software/gaussian//gdv/l701.exe)
 ... and contract with generalized density number  0.
 Compute integral first derivatives.
 Leave Link  701 at Sat Nov 25 14:43:43 2023, MaxMem=   134217728 cpu:               0.2 elap:               0.1
 (Enter /home/emanuele/chem_software/gaussian//gdv/l702.exe)
 L702 exits ... SP integral derivatives will be done elsewhere.
 Leave Link  702 at Sat Nov 25 14:43:43 2023, MaxMem=   134217728 cpu:               0.1 elap:               0.0
 (Enter /home/emanuele/chem_software/gaussian//gdv/l703.exe)
 Integral derivatives from FoFJK, PRISM(SPDF).
 Compute integral first derivatives, UseDBF=F ICtDFT=           0.
 Calling FoFJK, ICntrl=      2127 FMM=F ISym2X=0 I1Cent= 0 IOpClX= 0 NMat=1 NMatS=1 NMatT=0.
 FoFJK:  IHMeth=40 ICntrl=    2127 DoSepK=F KAlg= 0 I1Cent=           0 FoldK=F
 IRaf=         0 NMat=       1 IRICut=       1 DoRegI=T DoRafI=F ISym2E= 0 IDoP0=3 IntGTp=3.
 FoFCou: FMM=F IPFlag=           0 FMFlag=      100000 FMFlg1=         800
         NFxFlg=           0 DoJE=F BraDBF=F KetDBF=F FulRan=T
         wScrn=  0.000000 ICntrl=      2127 IOpCl=  0 I1Cent=           0 NGrid=           0
         NMat0=    1 NMatS0=      1 NMatT0=    0 NMatD0=    1 NMtDS0=    0 NMtDT0=    0
 Symmetry not used in FoFCou.
 Leave Link  703 at Sat Nov 25 14:43:43 2023, MaxMem=   134217728 cpu:               0.2 elap:               0.0
 (Enter /home/emanuele/chem_software/gaussian//gdv/l716.exe)
 Dipole        =-1.73953341D-02-6.90951364D-01 7.98140051D-01
 -------------------------------------------------------------------
 Center     Atomic                   Forces (Hartrees/Bohr)
 Number     Number              X              Y              Z
 -------------------------------------------------------------------
      1        6           0.029519480    0.004598071   -0.001501695
      2        8          -0.002629323   -0.006351354    0.000288808
      3        6          -0.021332520   -0.010188111    0.011815132
      4        1           0.002225947   -0.007671509    0.009764009
      5        1           0.003016531   -0.011675785   -0.010628727
      6        7           0.018023015    0.011316189   -0.011554417
      7        1           0.003069768    0.006682372    0.000517805
      8        1           0.002494252   -0.001031591    0.002148452
      9        8          -0.009778131    0.012789983    0.001092432
     10        1          -0.024609020    0.001531735   -0.001941798
 -------------------------------------------------------------------
 Cartesian Forces:  Max     0.029519480 RMS     0.010928384
 Leave Link  716 at Sat Nov 25 14:43:43 2023, MaxMem=   134217728 cpu:               0.1 elap:               0.0
 (Enter /home/emanuele/chem_software/gaussian//gdv/l103.exe)

 GradGradGradGradGradGradGradGradGradGradGradGradGradGradGradGradGradGrad
 Berny optimization.
 FormGI is forming the generalized inverse of G from B-inverse, IUseBI=4.
 Internal  Forces:  Max     0.030263752 RMS     0.010202630
 Search for a local minimum.
 Step number   1 out of a maximum of  100 on scan point     1 out of    11
 All quantities printed in internal units (Hartrees-Bohrs-Radians)
 RMS Force = .10346D-01 SwitMx=.10000D-02 MixMth= 1
 Mixed Optimization -- RFO/linear search
 Second derivative matrix not updated -- first step.
 ITU=  0
     Eigenvalues ---    0.00641   0.01007   0.01302   0.04206   0.05224
     Eigenvalues ---    0.06483   0.09827   0.13119   0.16000   0.16000
     Eigenvalues ---    0.16000   0.21891   0.24987   0.25000   0.31403
     Eigenvalues ---    0.33602   0.34582   0.38010   0.45526   0.45961
     Eigenvalues ---    0.53825   0.54828   1.033731000.000001000.00000
     Eigenvalues --- 1000.000001000.000001000.000001000.000001000.00000
     Eigenvalues --- 1000.000001000.000001000.000001000.000001000.00000
     Eigenvalues --- 1000.00000
 RFO step:  Lambda=-1.19564763D-02 EMin= 6.40605360D-03
 Linear search not attempted -- first point.
 Iteration  1 RMS(Cart)=  0.07175487 RMS(Int)=  0.00348939
 Iteration  2 RMS(Cart)=  0.00348126 RMS(Int)=  0.00018807
 Iteration  3 RMS(Cart)=  0.00001839 RMS(Int)=  0.00018750
 Iteration  4 RMS(Cart)=  0.00000000 RMS(Int)=  0.00018750
 Fixing frozen coordinates.
 Iteration  1 RMS(Cart)=  0.00005783 RMS(Int)=  0.00004091
 Iteration  2 RMS(Cart)=  0.00002252 RMS(Int)=  0.00004551
 Iteration  3 RMS(Cart)=  0.00000877 RMS(Int)=  0.00004941
 Iteration  4 RMS(Cart)=  0.00000341 RMS(Int)=  0.00005117
 Iteration  5 RMS(Cart)=  0.00000133 RMS(Int)=  0.00005188
 Iteration  6 RMS(Cart)=  0.00000052 RMS(Int)=  0.00005216
 ITry= 1 IFail=0 DXMaxC= 2.27D-01 DCOld= 1.00D+10 DXMaxT= 3.00D-01 DXLimC= 3.00D+00 Rises=F
 Variable       Old X    -DE/DX   Delta X   Delta X   Delta X     New X
                                 (Linear)    (Quad)   (Total)
    R1        2.55286   0.02505   0.00000   0.04472   0.04472   2.59758
    R2        2.85250   0.01324   0.00000   0.04061   0.04061   2.89311
    R3        2.27318   0.01321   0.00000   0.01263   0.01263   2.28581
    R4        1.82891   0.02050   0.00000   0.03725   0.03725   1.86616
    R5        2.08006   0.01200   0.00000   0.03447   0.03447   2.11454
    R6        2.06359   0.01550   0.00000   0.04333   0.04333   2.10692
    R7        2.74351   0.03026   0.00000   0.07719   0.07719   2.82070
    R8        1.91369   0.00597   0.00000   0.01278   0.01278   1.92647
    R9        1.90876   0.00335   0.00000   0.00711   0.00711   1.91587
    A1        1.94980  -0.00359   0.00000  -0.01387  -0.01392   1.93588
    A2        2.14707  -0.00860   0.00000  -0.03302  -0.03305   2.11402
    A3        2.18583   0.01219   0.00000   0.04633   0.04626   2.23209
    A4        1.87144   0.02526   0.00000   0.14691   0.14691   2.01835
    A5        1.83958   0.00243   0.00000   0.03378   0.03339   1.87298
    A6        1.89148   0.00261   0.00000   0.01392   0.01374   1.90521
    A7        1.93046   0.00003   0.00000   0.00379   0.00354   1.93400
    A8        1.85394  -0.00055   0.00000  -0.01016  -0.01058   1.84336
    A9        2.00477   0.00048   0.00000   0.00947   0.00896   2.01373
   A10        1.93745  -0.00453   0.00000  -0.04682  -0.04688   1.89058
   A11        1.91981   0.00706   0.00000   0.04371   0.04364   1.96345
   A12        1.94466  -0.00170   0.00000  -0.00730  -0.00737   1.93729
   A13        1.89587  -0.00228   0.00000  -0.00829  -0.00841   1.88746
    D1        3.09264   0.00086   0.00000   0.00000   0.00000   3.09264
    D2       -0.01720   0.00071   0.00000   0.01744   0.01680  -0.00040
    D3       -1.25365  -0.00021   0.00000  -0.01018  -0.00993  -1.26358
    D4        0.72522   0.00150   0.00000   0.00063   0.00098   0.72620
    D5        2.85281  -0.00239   0.00000  -0.04592  -0.04593   2.80688
    D6        1.85534  -0.00051   0.00000  -0.02986  -0.03000   1.82534
    D7       -2.44897   0.00119   0.00000  -0.01905  -0.01909  -2.46806
    D8       -0.32138  -0.00270   0.00000  -0.06560  -0.06600  -0.38738
    D9        0.60481   0.00046   0.00000   0.00387   0.00380   0.60862
   D10        2.70830   0.00122   0.00000   0.01796   0.01795   2.72625
   D11       -1.47459  -0.00306   0.00000  -0.04936  -0.04934  -1.52393
   D12        0.62890  -0.00230   0.00000  -0.03527  -0.03519   0.59371
   D13        2.70515   0.00077   0.00000  -0.00701  -0.00705   2.69810
   D14       -1.47455   0.00153   0.00000   0.00707   0.00709  -1.46746
         Item               Value     Threshold  Converged?
 Maximum Force            0.030264     0.000450     NO 
 RMS     Force            0.010346     0.000300     NO 
 Maximum Displacement     0.226523     0.001800     NO 
 RMS     Displacement     0.072272     0.001200     NO 
 Predicted change in Energy=-6.323618D-03
 Lowest energy point so far.  Saving SCF results.
 GradGradGradGradGradGradGradGradGradGradGradGradGradGradGradGradGradGrad

 Leave Link  103 at Sat Nov 25 14:43:43 2023, MaxMem=   134217728 cpu:               0.1 elap:               0.0
 (Enter /home/emanuele/chem_software/gaussian//gdv/l202.exe)
                          Input orientation:                          
 ---------------------------------------------------------------------
 Center     Atomic      Atomic             Coordinates (Angstroms)
 Number     Number       Type             X           Y           Z
 ---------------------------------------------------------------------
      1          6           0       -0.544816    0.143092    0.028303
      2          8           0       -1.662295   -0.648708   -0.089007
      3          6           0        0.721683   -0.710780    0.131935
      4          1           0        0.723765   -1.181563    1.147043
      5          1           0        0.652888   -1.556697   -0.591090
      6          7           0        1.933113    0.094710   -0.202168
      7          1           0        1.855067    1.063079    0.106760
      8          1           0        2.763342   -0.305484    0.220235
      9          8           0       -0.635764    1.347663    0.090479
     10          1           0       -2.524959   -0.168901   -0.117539
 ---------------------------------------------------------------------
                    Distance matrix (angstroms):
                    1          2          3          4          5
     1  C    0.000000
     2  O    1.374579   0.000000
     3  C    1.530967   2.394999   0.000000
     4  H    2.148392   2.739532   1.118965   0.000000
     5  H    2.169660   2.537045   1.114932   1.779565   0.000000
     6  N    2.489095   3.673205   1.492650   2.216250   2.125413
     7  H    2.571375   3.916679   2.105177   2.720377   2.965713
     8  H    3.343946   4.449685   2.083371   2.405486   2.584144
     9  O    1.209598   2.251994   2.466084   3.059678   3.249686
    10  H    2.009869   0.987532   3.300994   3.630270   3.499848
                    6          7          8          9         10
     6  N    0.000000
     7  H    1.019444   0.000000
     8  H    1.013835   1.646453   0.000000
     9  O    2.873093   2.507088   3.782017   0.000000
    10  H    4.466661   4.555514   5.300838   2.431521   0.000000
 Symmetry turned off by external request.
 Stoichiometry    C2H5NO2
 Framework group  C1[X(C2H5NO2)]
 Deg. of freedom    24
 Full point group                 C1      NOp   1
 Rotational constants (GHZ):          10.1222153           3.7738720           2.8338468
 Leave Link  202 at Sat Nov 25 14:43:43 2023, MaxMem=   134217728 cpu:               0.1 elap:               0.0
 (Enter /home/emanuele/chem_software/gaussian//gdv/l301.exe)
 Standard basis: VSTO-6G (5D, 7F)
 Ernie: Thresh=  0.10000D-02 Tol=  0.10000D-05 Strict=F.
  NNHCO=     0 NNPyr=     0 NCTC=     0               EPep=         0.000000000
    EC=        82.766086668  ECS=         2.132595363   EG=         0.120860521
   EHC=         0.000970239  EAt=       -38.066560349  AtH=         1.329713788
 EPDDG=         0.000000000  ECC=        85.020512792 EAtT=        39.396274136
    25 basis functions,   150 primitive gaussians,    25 cartesian basis functions
    15 alpha electrons       15 beta electrons
       nuclear repulsion energy       124.4167869285 Hartrees.
 IExCor=       0 DFT=F Ex=HF Corr=None N6=None ScaHFX=  1.000000
 ScaDFX=  1.000000  1.000000  1.000000  1.000000  1.000000  0.000000
 ScaDFX=  0.000000  0.000000  0.000000  0.000000  0.000000  0.000000
 IRadAn=      5 IRanWt=     -1 IRanGd=            0 ICorTp=0 IEmpDi=  4
 Integral buffers will be    131072 words long.
 Regular integral format.
 Two-electron integral symmetry is turned off.
 Leave Link  301 at Sat Nov 25 14:43:43 2023, MaxMem=   134217728 cpu:               0.2 elap:               0.1
 (Enter /home/emanuele/chem_software/gaussian//gdv/l302.exe)
 Do NDO integrals.
 NPDir=0 NMtPBC=     1 NCelOv=     1 NCel=       1 NClECP=     1 NCelD=      1
         NCelK=      1 NCelE2=     1 NClLst=     1 CellRange=     0.0.
 One-electron integrals computed using PRISM.
 NBasis=    25 RedAO= F EigKep=  0.00D+00  NBF=    25
 NBsUse=    25 1.00D-04 EigRej=  0.00D+00 NBFU=    25
 Leave Link  302 at Sat Nov 25 14:43:44 2023, MaxMem=   134217728 cpu:               0.3 elap:               0.1
 (Enter /home/emanuele/chem_software/gaussian//gdv/l303.exe)
 DipDrv:  MaxL=1.
 Leave Link  303 at Sat Nov 25 14:43:44 2023, MaxMem=   134217728 cpu:               0.1 elap:               0.0
 (Enter /home/emanuele/chem_software/gaussian//gdv/l401.exe)
 Initial guess from the checkpoint file:  "3_zmat_qm.chk"
 B after Tr=     0.000000    0.000000    0.000000
         Rot=    1.000000    0.000000    0.000000    0.000000 Ang=   0.00 deg.
 AO Guess basis will be translated and rotated to current coordinates.
 JPrj=0 DoOrth=T DoCkMO=T.
 Leave Link  401 at Sat Nov 25 14:43:44 2023, MaxMem=   134217728 cpu:               0.8 elap:               0.2
 (Enter /home/emanuele/chem_software/gaussian//gdv/l502.exe)
 Keep J ints in memory in canonical form, NReq=861126.
 FoFCou: FMM=F IPFlag=           0 FMFlag=           0 FMFlg1=           0
         NFxFlg=           0 DoJE=F BraDBF=F KetDBF=F FulRan=T
         wScrn=  0.000000 ICntrl=       600 IOpCl=  2 I1Cent=           0 NGrid=           0
         NMat0=    1 NMatS0=     55 NMatT0=    0 NMatD0=    1 NMtDS0=    0 NMtDT0=    0
 Symmetry not used in FoFCou.
 Two-electron integral symmetry not used.
 Closed shell SCF:
 Using DIIS extrapolation, IDIIS=  1040.
 Overlap will be assumed to be unity.
 NGot=   134217728 LenX=   134155015 LenY=   134153949
 Requested convergence on RMS density matrix=1.00D-08 within 128 cycles.
 Requested convergence on MAX density matrix=1.00D-06.
 Requested convergence on             energy=1.00D-06.
 No special actions if energy rises.

 Cycle   1  Pass 1  IDiag  1:
 E=-0.134361766805768    
 DIIS: error= 7.35D-03 at cycle   1 NSaved=   1.
 NSaved= 1 IEnMin= 1 EnMin=-0.134361766805768     IErMin= 1 ErrMin= 7.35D-03
 ErrMax= 7.35D-03  0.00D+00 EMaxC= 1.00D-01 BMatC= 1.88D-03 BMatP= 1.88D-03
 IDIUse=3 WtCom= 9.26D-01 WtEn= 7.35D-02
 Coeff-Com:  0.100D+01
 Coeff-En:   0.100D+01
 Coeff:      0.100D+01
 GapD=    2.000 DampG=2.000 DampE=1.000 DampFc=2.0000 IDamp=-1.
 RMSDP=2.97D-03 MaxDP=1.95D-02              OVMax= 0.00D+00

 Cycle   2  Pass 1  IDiag  3:
 E=-0.140277497135102     Delta-E=       -0.005915730329 Rises=F Damp=F
 DIIS: error= 2.62D-03 at cycle   2 NSaved=   2.
 NSaved= 2 IEnMin= 2 EnMin=-0.140277497135102     IErMin= 2 ErrMin= 2.62D-03
 ErrMax= 2.62D-03  0.00D+00 EMaxC= 1.00D-01 BMatC= 2.31D-04 BMatP= 1.88D-03
 IDIUse=3 WtCom= 9.74D-01 WtEn= 2.62D-02
 Coeff-Com: -0.454D+00 0.145D+01
 Coeff-En:   0.000D+00 0.100D+01
 Coeff:     -0.442D+00 0.144D+01
 Gap=     0.376 Goal=   None    Shift=    0.000
 RMSDP=1.68D-03 MaxDP=1.16D-02 DE=-5.92D-03 OVMax= 9.50D-03

 Cycle   3  Pass 1  IDiag  3:
 E=-0.141281930432925     Delta-E=       -0.001004433298 Rises=F Damp=F
 DIIS: error= 3.46D-04 at cycle   3 NSaved=   3.
 NSaved= 3 IEnMin= 3 EnMin=-0.141281930432925     IErMin= 3 ErrMin= 3.46D-04
 ErrMax= 3.46D-04  0.00D+00 EMaxC= 1.00D-01 BMatC= 7.36D-06 BMatP= 2.31D-04
 IDIUse=3 WtCom= 9.97D-01 WtEn= 3.46D-03
 Coeff-Com:  0.152D+00-0.585D+00 0.143D+01
 Coeff-En:   0.000D+00 0.000D+00 0.100D+01
 Coeff:      0.151D+00-0.583D+00 0.143D+01
 Gap=     0.376 Goal=   None    Shift=    0.000
 RMSDP=3.83D-04 MaxDP=2.37D-03 DE=-1.00D-03 OVMax= 2.32D-03

 Cycle   4  Pass 1  IDiag  3:
 E=-0.141323136351104     Delta-E=       -0.000041205918 Rises=F Damp=F
 DIIS: error= 7.17D-05 at cycle   4 NSaved=   4.
 NSaved= 4 IEnMin= 4 EnMin=-0.141323136351104     IErMin= 4 ErrMin= 7.17D-05
 ErrMax= 7.17D-05  0.00D+00 EMaxC= 1.00D-01 BMatC= 3.29D-07 BMatP= 7.36D-06
 IDIUse=1 WtCom= 1.00D+00 WtEn= 0.00D+00
 Coeff-Com: -0.289D-01 0.124D+00-0.451D+00 0.136D+01
 Coeff:     -0.289D-01 0.124D+00-0.451D+00 0.136D+01
 Gap=     0.376 Goal=   None    Shift=    0.000
 RMSDP=8.76D-05 MaxDP=4.61D-04 DE=-4.12D-05 OVMax= 6.18D-04

 Cycle   5  Pass 1  IDiag  3:
 E=-0.141325292477973     Delta-E=       -0.000002156127 Rises=F Damp=F
 DIIS: error= 2.37D-05 at cycle   5 NSaved=   5.
 NSaved= 5 IEnMin= 5 EnMin=-0.141325292477973     IErMin= 5 ErrMin= 2.37D-05
 ErrMax= 2.37D-05  0.00D+00 EMaxC= 1.00D-01 BMatC= 3.22D-08 BMatP= 3.29D-07
 IDIUse=1 WtCom= 1.00D+00 WtEn= 0.00D+00
 Coeff-Com:  0.258D-02-0.149D-01 0.105D+00-0.658D+00 0.157D+01
 Coeff:      0.258D-02-0.149D-01 0.105D+00-0.658D+00 0.157D+01
 Gap=     0.376 Goal=   None    Shift=    0.000
 RMSDP=3.45D-05 MaxDP=2.12D-04 DE=-2.16D-06 OVMax= 3.03D-04

 Cycle   6  Pass 1  IDiag  3:
 E=-0.141325535063686     Delta-E=       -0.000000242586 Rises=F Damp=F
 DIIS: error= 5.91D-06 at cycle   6 NSaved=   6.
 NSaved= 6 IEnMin= 6 EnMin=-0.141325535063686     IErMin= 6 ErrMin= 5.91D-06
 ErrMax= 5.91D-06  0.00D+00 EMaxC= 1.00D-01 BMatC= 1.53D-09 BMatP= 3.22D-08
 IDIUse=1 WtCom= 1.00D+00 WtEn= 0.00D+00
 Coeff-Com:  0.280D-03 0.120D-02-0.345D-01 0.301D+00-0.885D+00 0.162D+01
 Coeff:      0.280D-03 0.120D-02-0.345D-01 0.301D+00-0.885D+00 0.162D+01
 Gap=     0.376 Goal=   None    Shift=    0.000
 RMSDP=7.80D-06 MaxDP=5.60D-05 DE=-2.43D-07 OVMax= 7.94D-05

 Cycle   7  Pass 1  IDiag  3:
 E=-0.141325546710902     Delta-E=       -0.000000011647 Rises=F Damp=F
 DIIS: error= 1.15D-06 at cycle   7 NSaved=   7.
 NSaved= 7 IEnMin= 7 EnMin=-0.141325546710902     IErMin= 7 ErrMin= 1.15D-06
 ErrMax= 1.15D-06  0.00D+00 EMaxC= 1.00D-01 BMatC= 6.55D-11 BMatP= 1.53D-09
 IDIUse=1 WtCom= 1.00D+00 WtEn= 0.00D+00
 Coeff-Com: -0.345D-03 0.194D-03 0.147D-01-0.144D+00 0.439D+00-0.928D+00
 Coeff-Com:  0.162D+01
 Coeff:     -0.345D-03 0.194D-03 0.147D-01-0.144D+00 0.439D+00-0.928D+00
 Coeff:      0.162D+01
 Gap=     0.376 Goal=   None    Shift=    0.000
 RMSDP=1.57D-06 MaxDP=1.11D-05 DE=-1.16D-08 OVMax= 1.66D-05

 Cycle   8  Pass 1  IDiag  3:
 E=-0.141325547192054     Delta-E=       -0.000000000481 Rises=F Damp=F
 DIIS: error= 1.91D-07 at cycle   8 NSaved=   8.
 NSaved= 8 IEnMin= 8 EnMin=-0.141325547192054     IErMin= 8 ErrMin= 1.91D-07
 ErrMax= 1.91D-07  0.00D+00 EMaxC= 1.00D-01 BMatC= 2.94D-12 BMatP= 6.55D-11
 IDIUse=1 WtCom= 1.00D+00 WtEn= 0.00D+00
 Coeff-Com:  0.143D-03-0.167D-04-0.716D-02 0.691D-01-0.212D+00 0.459D+00
 Coeff-Com: -0.924D+00 0.161D+01
 Coeff:      0.143D-03-0.167D-04-0.716D-02 0.691D-01-0.212D+00 0.459D+00
 Coeff:     -0.924D+00 0.161D+01
 Gap=     0.376 Goal=   None    Shift=    0.000
 RMSDP=3.20D-07 MaxDP=1.89D-06 DE=-4.81D-10 OVMax= 3.00D-06

 Cycle   9  Pass 1  IDiag  3:
 E=-0.141325547213327     Delta-E=       -0.000000000021 Rises=F Damp=F
 DIIS: error= 3.99D-08 at cycle   9 NSaved=   9.
 NSaved= 9 IEnMin= 9 EnMin=-0.141325547213327     IErMin= 9 ErrMin= 3.99D-08
 ErrMax= 3.99D-08  0.00D+00 EMaxC= 1.00D-01 BMatC= 1.44D-13 BMatP= 2.94D-12
 IDIUse=1 WtCom= 1.00D+00 WtEn= 0.00D+00
 Coeff-Com: -0.591D-04-0.810D-05 0.320D-02-0.306D-01 0.936D-01-0.204D+00
 Coeff-Com:  0.419D+00-0.856D+00 0.157D+01
 Coeff:     -0.591D-04-0.810D-05 0.320D-02-0.306D-01 0.936D-01-0.204D+00
 Coeff:      0.419D+00-0.856D+00 0.157D+01
 Gap=     0.376 Goal=   None    Shift=    0.000
 RMSDP=7.11D-08 MaxDP=3.87D-07 DE=-2.13D-11 OVMax= 5.48D-07

 Cycle  10  Pass 1  IDiag  3:
 E=-0.141325547214322     Delta-E=       -0.000000000001 Rises=F Damp=F
 DIIS: error= 9.73D-09 at cycle  10 NSaved=  10.
 NSaved=10 IEnMin=10 EnMin=-0.141325547214322     IErMin=10 ErrMin= 9.73D-09
 ErrMax= 9.73D-09  0.00D+00 EMaxC= 1.00D-01 BMatC= 6.71D-15 BMatP= 1.44D-13
 IDIUse=1 WtCom= 1.00D+00 WtEn= 0.00D+00
 Coeff-Com:  0.175D-04 0.585D-05-0.101D-02 0.962D-02-0.295D-01 0.646D-01
 Coeff-Com: -0.134D+00 0.283D+00-0.681D+00 0.149D+01
 Coeff:      0.175D-04 0.585D-05-0.101D-02 0.962D-02-0.295D-01 0.646D-01
 Coeff:     -0.134D+00 0.283D+00-0.681D+00 0.149D+01
 Gap=     0.376 Goal=   None    Shift=    0.000
 RMSDP=1.56D-08 MaxDP=8.47D-08 DE=-9.95D-13 OVMax= 1.44D-07

 Cycle  11  Pass 1  IDiag  3:
 E=-0.141325547214493     Delta-E=       -0.000000000000 Rises=F Damp=F
 DIIS: error= 1.67D-09 at cycle  11 NSaved=  11.
 NSaved=11 IEnMin=11 EnMin=-0.141325547214493     IErMin=11 ErrMin= 1.67D-09
 ErrMax= 1.67D-09  0.00D+00 EMaxC= 1.00D-01 BMatC= 1.92D-16 BMatP= 6.71D-15
 IDIUse=1 WtCom= 1.00D+00 WtEn= 0.00D+00
 Coeff-Com: -0.399D-05-0.221D-05 0.244D-03-0.232D-02 0.711D-02-0.156D-01
 Coeff-Com:  0.324D-01-0.685D-01 0.179D+00-0.498D+00 0.137D+01
 Coeff:     -0.399D-05-0.221D-05 0.244D-03-0.232D-02 0.711D-02-0.156D-01
 Coeff:      0.324D-01-0.685D-01 0.179D+00-0.498D+00 0.137D+01
 Gap=     0.376 Goal=   None    Shift=    0.000
 RMSDP=2.19D-09 MaxDP=1.20D-08 DE=-1.71D-13 OVMax= 1.83D-08

 Cycle  12  Pass 2  IDiag  1:
 SCF Done:  E(RPM6) = -0.141325547214     A.U. after   12 cycles
            NFock= 11  Conv=0.22D-08     -V/T= 0.9978
 KE=-6.556177097283D+01 PE=-1.623600868977D+02 EE= 1.033637453949D+02
 Leave Link  502 at Sat Nov 25 14:43:44 2023, MaxMem=   134217728 cpu:               0.2 elap:               0.1
 (Enter /home/emanuele/chem_software/gaussian//gdv/l701.exe)
 ... and contract with generalized density number  0.
 Compute integral first derivatives.
 Leave Link  701 at Sat Nov 25 14:43:44 2023, MaxMem=   134217728 cpu:               0.2 elap:               0.1
 (Enter /home/emanuele/chem_software/gaussian//gdv/l702.exe)
 L702 exits ... SP integral derivatives will be done elsewhere.
 Leave Link  702 at Sat Nov 25 14:43:44 2023, MaxMem=   134217728 cpu:               0.1 elap:               0.0
 (Enter /home/emanuele/chem_software/gaussian//gdv/l703.exe)
 Integral derivatives from FoFJK, PRISM(SPDF).
 Compute integral first derivatives, UseDBF=F ICtDFT=           0.
 Calling FoFJK, ICntrl=      2127 FMM=F ISym2X=0 I1Cent= 0 IOpClX= 0 NMat=1 NMatS=1 NMatT=0.
 FoFJK:  IHMeth=40 ICntrl=    2127 DoSepK=F KAlg= 0 I1Cent=           0 FoldK=F
 IRaf=         0 NMat=       1 IRICut=       1 DoRegI=T DoRafI=F ISym2E= 0 IDoP0=3 IntGTp=3.
 FoFCou: FMM=F IPFlag=           0 FMFlag=      100000 FMFlg1=         800
         NFxFlg=           0 DoJE=F BraDBF=F KetDBF=F FulRan=T
         wScrn=  0.000000 ICntrl=      2127 IOpCl=  0 I1Cent=           0 NGrid=           0
         NMat0=    1 NMatS0=      1 NMatT0=    0 NMatD0=    1 NMtDS0=    0 NMtDT0=    0
 Symmetry not used in FoFCou.
 Leave Link  703 at Sat Nov 25 14:43:44 2023, MaxMem=   134217728 cpu:               0.1 elap:               0.0
 (Enter /home/emanuele/chem_software/gaussian//gdv/l716.exe)
 Dipole        = 6.00780336D-02-7.14142180D-01 7.60836182D-01
 -------------------------------------------------------------------
 Center     Atomic                   Forces (Hartrees/Bohr)
 Number     Number              X              Y              Z
 -------------------------------------------------------------------
      1        6           0.009260491    0.005485628    0.001808674
      2        8           0.007233949   -0.004890358    0.000436994
      3        6          -0.008894181    0.006639600    0.003130662
      4        1           0.001555721    0.001612039   -0.001549942
      5        1           0.001047888   -0.000612605   -0.002287985
      6        7          -0.005350285   -0.002995501   -0.003871414
      7        1          -0.002631959   -0.001801749    0.001197972
      8        1          -0.001472419   -0.000752796    0.002051425
      9        8          -0.002489492   -0.007030770   -0.000527513
     10        1           0.001740288    0.004346513   -0.000388874
 -------------------------------------------------------------------
 Cartesian Forces:  Max     0.009260491 RMS     0.004048850
 Leave Link  716 at Sat Nov 25 14:43:44 2023, MaxMem=   134217728 cpu:               0.1 elap:               0.0
 (Enter /home/emanuele/chem_software/gaussian//gdv/l103.exe)

 GradGradGradGradGradGradGradGradGradGradGradGradGradGradGradGradGradGrad
 Berny optimization.
 Using GEDIIS/GDIIS optimizer.
 FormGI is forming the generalized inverse of G from B-inverse, IUseBI=4.
 Internal  Forces:  Max     0.014280403 RMS     0.004279446
 Search for a local minimum.
 Step number   2 out of a maximum of  100 on scan point     1 out of    11
 All quantities printed in internal units (Hartrees-Bohrs-Radians)
 RMS Force = .43346D-02 SwitMx=.10000D-02 MixMth= 1
 Mixed Optimization -- RFO/linear search
 Update second derivatives using D2CorX and points    1    2
 DE= -4.35D-03 DEPred=-6.32D-03 R= 6.88D-01
 TightC=F SS=  1.41D+00  RLast= 2.40D-01 DXNew= 5.0454D-01 7.1874D-01
 Trust test= 6.88D-01 RLast= 2.40D-01 DXMaxT set to 5.05D-01
 ITU=  1  0
 Use linear search instead of GDIIS.
     Eigenvalues ---    0.00640   0.01005   0.01266   0.04019   0.05116
     Eigenvalues ---    0.06590   0.09595   0.13157   0.15732   0.16000
     Eigenvalues ---    0.17993   0.21880   0.23289   0.25171   0.32151
     Eigenvalues ---    0.33948   0.34536   0.43627   0.45782   0.46004
     Eigenvalues ---    0.53222   0.58372   1.049521000.000001000.00000
     Eigenvalues --- 1000.000001000.000001000.000001000.000001000.00000
     Eigenvalues --- 1000.000001000.000001000.000001000.000001000.00000
     Eigenvalues --- 1000.00000
 RFO step:  Lambda=-1.30131770D-03 EMin= 6.40147766D-03
 Quartic linear search produced a step of -0.20223.
 Iteration  1 RMS(Cart)=  0.02895632 RMS(Int)=  0.00044018
 Iteration  2 RMS(Cart)=  0.00044344 RMS(Int)=  0.00024581
 Iteration  3 RMS(Cart)=  0.00000014 RMS(Int)=  0.00024581
 Fixing frozen coordinates.
 Iteration  1 RMS(Cart)=  0.00003039 RMS(Int)=  0.00002145
 Iteration  2 RMS(Cart)=  0.00001195 RMS(Int)=  0.00002387
 Iteration  3 RMS(Cart)=  0.00000470 RMS(Int)=  0.00002594
 Iteration  4 RMS(Cart)=  0.00000185 RMS(Int)=  0.00002689
 Iteration  5 RMS(Cart)=  0.00000073 RMS(Int)=  0.00002728
 ITry= 1 IFail=0 DXMaxC= 8.19D-02 DCOld= 1.00D+10 DXMaxT= 5.05D-01 DXLimC= 3.00D+00 Rises=F
 Variable       Old X    -DE/DX   Delta X   Delta X   Delta X     New X
                                 (Linear)    (Quad)   (Total)
    R1        2.59758  -0.00699  -0.00904   0.00354  -0.00551   2.59207
    R2        2.89311  -0.01428  -0.00821  -0.02381  -0.03203   2.86108
    R3        2.28581  -0.00684  -0.00255  -0.00138  -0.00393   2.28188
    R4        1.86616   0.00060  -0.00753   0.01227   0.00474   1.87090
    R5        2.11454  -0.00208  -0.00697   0.00552  -0.00146   2.11308
    R6        2.10692   0.00188  -0.00876   0.01744   0.00868   2.11560
    R7        2.82070  -0.01053  -0.01561   0.00143  -0.01418   2.80652
    R8        1.92647  -0.00115  -0.00258   0.00189  -0.00069   1.92578
    R9        1.91587  -0.00005  -0.00144   0.00207   0.00063   1.91650
    A1        1.93588  -0.00626   0.00281  -0.02378  -0.02099   1.91489
    A2        2.11402  -0.00031   0.00668  -0.01058  -0.00393   2.11009
    A3        2.23209   0.00659  -0.00935   0.03492   0.02555   2.25764
    A4        2.01835  -0.00858  -0.02971   0.00083  -0.02888   1.98947
    A5        1.87298   0.00221  -0.00675   0.01998   0.01322   1.88620
    A6        1.90521   0.00201  -0.00278   0.01287   0.00993   1.91514
    A7        1.93400  -0.00425  -0.00072  -0.01713  -0.01783   1.91617
    A8        1.84336   0.00040   0.00214   0.00882   0.01091   1.85427
    A9        2.01373   0.00032  -0.00181  -0.00042  -0.00207   2.01166
   A10        1.89058  -0.00032   0.00948  -0.02174  -0.01224   1.87834
   A11        1.96345  -0.00483  -0.00883  -0.02006  -0.02938   1.93407
   A12        1.93729  -0.00286   0.00149  -0.02553  -0.02455   1.91274
   A13        1.88746   0.00239   0.00170  -0.00735  -0.00665   1.88080
    D1        3.09264   0.00102  -0.00000   0.00000  -0.00000   3.09263
    D2       -0.00040   0.00024  -0.00340  -0.01262  -0.01568  -0.01609
    D3       -1.26358  -0.00178   0.00201  -0.04755  -0.04576  -1.30934
    D4        0.72620   0.00083  -0.00020  -0.02048  -0.02071   0.70548
    D5        2.80688  -0.00089   0.00929  -0.04962  -0.04039   2.76649
    D6        1.82534  -0.00121   0.00607  -0.03563  -0.02957   1.79577
    D7       -2.46806   0.00140   0.00386  -0.00856  -0.00453  -2.47259
    D8       -0.38738  -0.00032   0.01335  -0.03769  -0.02420  -0.41158
    D9        0.60862   0.00090  -0.00077   0.00519   0.00411   0.61273
   D10        2.72625  -0.00147  -0.00363  -0.03671  -0.04011   2.68614
   D11       -1.52393   0.00110   0.00998  -0.00748   0.00219  -1.52174
   D12        0.59371  -0.00126   0.00712  -0.04938  -0.04203   0.55168
   D13        2.69810   0.00061   0.00143  -0.00291  -0.00167   2.69642
   D14       -1.46746  -0.00175  -0.00143  -0.04481  -0.04589  -1.51335
         Item               Value     Threshold  Converged?
 Maximum Force            0.014280     0.000450     NO 
 RMS     Force            0.004335     0.000300     NO 
 Maximum Displacement     0.081917     0.001800     NO 
 RMS     Displacement     0.029180     0.001200     NO 
 Predicted change in Energy=-9.586836D-04
 Lowest energy point so far.  Saving SCF results.
 GradGradGradGradGradGradGradGradGradGradGradGradGradGradGradGradGradGrad

 Leave Link  103 at Sat Nov 25 14:43:44 2023, MaxMem=   134217728 cpu:               0.0 elap:               0.0
 (Enter /home/emanuele/chem_software/gaussian//gdv/l202.exe)
                          Input orientation:                          
 ---------------------------------------------------------------------
 Center     Atomic      Atomic             Coordinates (Angstroms)
 Number     Number       Type             X           Y           Z
 ---------------------------------------------------------------------
      1          6           0       -0.525715    0.146781    0.041748
      2          8           0       -1.631742   -0.651312   -0.103897
      3          6           0        0.716170   -0.713923    0.137468
      4          1           0        0.740119   -1.176325    1.155294
      5          1           0        0.645324   -1.561852   -0.590086
      6          7           0        1.912976    0.088449   -0.222409
      7          1           0        1.811718    1.051766    0.094269
      8          1           0        2.732504   -0.301495    0.230206
      9          8           0       -0.632320    1.347571    0.111293
     10          1           0       -2.487008   -0.153247   -0.128935
 ---------------------------------------------------------------------
                    Distance matrix (angstroms):
                    1          2          3          4          5
     1  C    0.000000
     2  O    1.371664   0.000000
     3  C    1.514018   2.361116   0.000000
     4  H    2.143112   2.736225   1.118194   0.000000
     5  H    2.165635   2.500099   1.119525   1.789963   0.000000
     6  N    2.453649   3.623026   1.485146   2.207558   2.113201
     7  H    2.507060   3.846708   2.078401   2.690444   2.942756
     8  H    3.294307   4.390973   2.060170   2.364469   2.572488
     9  O    1.207517   2.245146   2.463507   3.056726   3.254082
    10  H    1.991436   0.990037   3.262771   3.620812   3.465304
                    6          7          8          9         10
     6  N    0.000000
     7  H    1.019077   0.000000
     8  H    1.014171   1.642450   0.000000
     9  O    2.859244   2.461933   3.749080   0.000000
    10  H    4.407608   4.470002   5.233953   2.397922   0.000000
 Symmetry turned off by external request.
 Stoichiometry    C2H5NO2
 Framework group  C1[X(C2H5NO2)]
 Deg. of freedom    24
 Full point group                 C1      NOp   1
 Rotational constants (GHZ):          10.0532229           3.8693596           2.8896532
 Leave Link  202 at Sat Nov 25 14:43:44 2023, MaxMem=   134217728 cpu:               0.1 elap:               0.0
 (Enter /home/emanuele/chem_software/gaussian//gdv/l301.exe)
 Standard basis: VSTO-6G (5D, 7F)
 Ernie: Thresh=  0.10000D-02 Tol=  0.10000D-05 Strict=F.
  NNHCO=     0 NNPyr=     0 NCTC=     0               EPep=         0.000000000
    EC=        83.182149448  ECS=         2.151665348   EG=         0.122597142
   EHC=         0.000975015  EAt=       -38.066560349  AtH=         1.329713788
 EPDDG=         0.000000000  ECC=        85.457386953 EAtT=        39.396274136
    25 basis functions,   150 primitive gaussians,    25 cartesian basis functions
    15 alpha electrons       15 beta electrons
       nuclear repulsion energy       124.8536610894 Hartrees.
 IExCor=       0 DFT=F Ex=HF Corr=None N6=None ScaHFX=  1.000000
 ScaDFX=  1.000000  1.000000  1.000000  1.000000  1.000000  0.000000
 ScaDFX=  0.000000  0.000000  0.000000  0.000000  0.000000  0.000000
 IRadAn=      5 IRanWt=     -1 IRanGd=            0 ICorTp=0 IEmpDi=  4
 Integral buffers will be    131072 words long.
 Regular integral format.
 Two-electron integral symmetry is turned off.
 Leave Link  301 at Sat Nov 25 14:43:44 2023, MaxMem=   134217728 cpu:               0.2 elap:               0.1
 (Enter /home/emanuele/chem_software/gaussian//gdv/l302.exe)
 Do NDO integrals.
 NPDir=0 NMtPBC=     1 NCelOv=     1 NCel=       1 NClECP=     1 NCelD=      1
         NCelK=      1 NCelE2=     1 NClLst=     1 CellRange=     0.0.
 One-electron integrals computed using PRISM.
 NBasis=    25 RedAO= F EigKep=  0.00D+00  NBF=    25
 NBsUse=    25 1.00D-04 EigRej=  0.00D+00 NBFU=    25
 Leave Link  302 at Sat Nov 25 14:43:44 2023, MaxMem=   134217728 cpu:               0.3 elap:               0.1
 (Enter /home/emanuele/chem_software/gaussian//gdv/l303.exe)
 DipDrv:  MaxL=1.
 Leave Link  303 at Sat Nov 25 14:43:44 2023, MaxMem=   134217728 cpu:               0.1 elap:               0.0
 (Enter /home/emanuele/chem_software/gaussian//gdv/l401.exe)
 Initial guess from the checkpoint file:  "3_zmat_qm.chk"
 B after Tr=     0.000000    0.000000    0.000000
         Rot=    1.000000    0.000000    0.000000    0.000000 Ang=   0.00 deg.
 AO Guess basis will be translated and rotated to current coordinates.
 JPrj=0 DoOrth=T DoCkMO=T.
 Leave Link  401 at Sat Nov 25 14:43:45 2023, MaxMem=   134217728 cpu:               0.8 elap:               0.2
 (Enter /home/emanuele/chem_software/gaussian//gdv/l502.exe)
 Keep J ints in memory in canonical form, NReq=861126.
 FoFCou: FMM=F IPFlag=           0 FMFlag=           0 FMFlg1=           0
         NFxFlg=           0 DoJE=F BraDBF=F KetDBF=F FulRan=T
         wScrn=  0.000000 ICntrl=       600 IOpCl=  2 I1Cent=           0 NGrid=           0
         NMat0=    1 NMatS0=     55 NMatT0=    0 NMatD0=    1 NMtDS0=    0 NMtDT0=    0
 Symmetry not used in FoFCou.
 Two-electron integral symmetry not used.
 Closed shell SCF:
 Using DIIS extrapolation, IDIIS=  1040.
 Overlap will be assumed to be unity.
 NGot=   134217728 LenX=   134155015 LenY=   134153949
 Requested convergence on RMS density matrix=1.00D-08 within 128 cycles.
 Requested convergence on MAX density matrix=1.00D-06.
 Requested convergence on             energy=1.00D-06.
 No special actions if energy rises.

 Cycle   1  Pass 1  IDiag  1:
 E=-0.141324423583129    
 DIIS: error= 2.04D-03 at cycle   1 NSaved=   1.
 NSaved= 1 IEnMin= 1 EnMin=-0.141324423583129     IErMin= 1 ErrMin= 2.04D-03
 ErrMax= 2.04D-03  0.00D+00 EMaxC= 1.00D-01 BMatC= 2.47D-04 BMatP= 2.47D-04
 IDIUse=3 WtCom= 9.80D-01 WtEn= 2.04D-02
 Coeff-Com:  0.100D+01
 Coeff-En:   0.100D+01
 Coeff:      0.100D+01
 GapD=    2.000 DampG=2.000 DampE=1.000 DampFc=2.0000 IDamp=-1.
 RMSDP=1.18D-03 MaxDP=6.37D-03              OVMax= 0.00D+00

 Cycle   2  Pass 1  IDiag  3:
 E=-0.142199468440737     Delta-E=       -0.000875044858 Rises=F Damp=F
 DIIS: error= 8.01D-04 at cycle   2 NSaved=   2.
 NSaved= 2 IEnMin= 2 EnMin=-0.142199468440737     IErMin= 2 ErrMin= 8.01D-04
 ErrMax= 8.01D-04  0.00D+00 EMaxC= 1.00D-01 BMatC= 3.65D-05 BMatP= 2.47D-04
 IDIUse=3 WtCom= 9.92D-01 WtEn= 8.01D-03
 Coeff-Com: -0.546D+00 0.155D+01
 Coeff-En:   0.000D+00 0.100D+01
 Coeff:     -0.542D+00 0.154D+01
 Gap=     0.379 Goal=   None    Shift=    0.000
 RMSDP=7.94D-04 MaxDP=4.90D-03 DE=-8.75D-04 OVMax= 4.92D-03

 Cycle   3  Pass 1  IDiag  3:
 E=-0.142387103347701     Delta-E=       -0.000187634907 Rises=F Damp=F
 DIIS: error= 1.67D-04 at cycle   3 NSaved=   3.
 NSaved= 3 IEnMin= 3 EnMin=-0.142387103347701     IErMin= 3 ErrMin= 1.67D-04
 ErrMax= 1.67D-04  0.00D+00 EMaxC= 1.00D-01 BMatC= 1.16D-06 BMatP= 3.65D-05
 IDIUse=3 WtCom= 9.98D-01 WtEn= 1.67D-03
 Coeff-Com:  0.265D+00-0.839D+00 0.157D+01
 Coeff-En:   0.000D+00 0.000D+00 0.100D+01
 Coeff:      0.265D+00-0.837D+00 0.157D+01
 Gap=     0.379 Goal=   None    Shift=    0.000
 RMSDP=1.87D-04 MaxDP=1.26D-03 DE=-1.88D-04 OVMax= 1.15D-03

 Cycle   4  Pass 1  IDiag  3:
 E=-0.142394882200009     Delta-E=       -0.000007778852 Rises=F Damp=F
 DIIS: error= 3.28D-05 at cycle   4 NSaved=   4.
 NSaved= 4 IEnMin= 4 EnMin=-0.142394882200009     IErMin= 4 ErrMin= 3.28D-05
 ErrMax= 3.28D-05  0.00D+00 EMaxC= 1.00D-01 BMatC= 4.83D-08 BMatP= 1.16D-06
 IDIUse=1 WtCom= 1.00D+00 WtEn= 0.00D+00
 Coeff-Com: -0.139D+00 0.444D+00-0.922D+00 0.162D+01
 Coeff:     -0.139D+00 0.444D+00-0.922D+00 0.162D+01
 Gap=     0.378 Goal=   None    Shift=    0.000
 RMSDP=3.98D-05 MaxDP=2.75D-04 DE=-7.78D-06 OVMax= 3.79D-04

 Cycle   5  Pass 1  IDiag  3:
 E=-0.142395237106143     Delta-E=       -0.000000354906 Rises=F Damp=F
 DIIS: error= 8.90D-06 at cycle   5 NSaved=   5.
 NSaved= 5 IEnMin= 5 EnMin=-0.142395237106143     IErMin= 5 ErrMin= 8.90D-06
 ErrMax= 8.90D-06  0.00D+00 EMaxC= 1.00D-01 BMatC= 3.20D-09 BMatP= 4.83D-08
 IDIUse=1 WtCom= 1.00D+00 WtEn= 0.00D+00
 Coeff-Com:  0.466D-01-0.150D+00 0.321D+00-0.754D+00 0.154D+01
 Coeff:      0.466D-01-0.150D+00 0.321D+00-0.754D+00 0.154D+01
 Gap=     0.378 Goal=   None    Shift=    0.000
 RMSDP=1.12D-05 MaxDP=8.67D-05 DE=-3.55D-07 OVMax= 1.22D-04

 Cycle   6  Pass 1  IDiag  3:
 E=-0.142395261784785     Delta-E=       -0.000000024679 Rises=F Damp=F
 DIIS: error= 1.84D-06 at cycle   6 NSaved=   6.
 NSaved= 6 IEnMin= 6 EnMin=-0.142395261784785     IErMin= 6 ErrMin= 1.84D-06
 ErrMax= 1.84D-06  0.00D+00 EMaxC= 1.00D-01 BMatC= 1.94D-10 BMatP= 3.20D-09
 IDIUse=1 WtCom= 1.00D+00 WtEn= 0.00D+00
 Coeff-Com: -0.101D-01 0.327D-01-0.711D-01 0.206D+00-0.651D+00 0.149D+01
 Coeff:     -0.101D-01 0.327D-01-0.711D-01 0.206D+00-0.651D+00 0.149D+01
 Gap=     0.378 Goal=   None    Shift=    0.000
 RMSDP=2.56D-06 MaxDP=1.69D-05 DE=-2.47D-08 OVMax= 2.71D-05

 Cycle   7  Pass 1  IDiag  3:
 E=-0.142395263138170     Delta-E=       -0.000000001353 Rises=F Damp=F
 DIIS: error= 3.54D-07 at cycle   7 NSaved=   7.
 NSaved= 7 IEnMin= 7 EnMin=-0.142395263138170     IErMin= 7 ErrMin= 3.54D-07
 ErrMax= 3.54D-07  0.00D+00 EMaxC= 1.00D-01 BMatC= 9.34D-12 BMatP= 1.94D-10
 IDIUse=1 WtCom= 1.00D+00 WtEn= 0.00D+00
 Coeff-Com:  0.148D-02-0.482D-02 0.108D-01-0.408D-01 0.175D+00-0.581D+00
 Coeff-Com:  0.144D+01
 Coeff:      0.148D-02-0.482D-02 0.108D-01-0.408D-01 0.175D+00-0.581D+00
 Coeff:      0.144D+01
 Gap=     0.378 Goal=   None    Shift=    0.000
 RMSDP=5.03D-07 MaxDP=2.27D-06 DE=-1.35D-09 OVMax= 4.06D-06

 Cycle   8  Pass 1  IDiag  3:
 E=-0.142395263198935     Delta-E=       -0.000000000061 Rises=F Damp=F
 DIIS: error= 1.25D-07 at cycle   8 NSaved=   8.
 NSaved= 8 IEnMin= 8 EnMin=-0.142395263198935     IErMin= 8 ErrMin= 1.25D-07
 ErrMax= 1.25D-07  0.00D+00 EMaxC= 1.00D-01 BMatC= 5.97D-13 BMatP= 9.34D-12
 IDIUse=1 WtCom= 1.00D+00 WtEn= 0.00D+00
 Coeff-Com:  0.170D-03-0.527D-03 0.935D-03 0.301D-02-0.357D-01 0.171D+00
 Coeff-Com: -0.654D+00 0.152D+01
 Coeff:      0.170D-03-0.527D-03 0.935D-03 0.301D-02-0.357D-01 0.171D+00
 Coeff:     -0.654D+00 0.152D+01
 Gap=     0.378 Goal=   None    Shift=    0.000
 RMSDP=1.32D-07 MaxDP=8.79D-07 DE=-6.08D-11 OVMax= 9.63D-07

 Cycle   9  Pass 1  IDiag  3:
 E=-0.142395263202900     Delta-E=       -0.000000000004 Rises=F Damp=F
 DIIS: error= 2.35D-08 at cycle   9 NSaved=   9.
 NSaved= 9 IEnMin= 9 EnMin=-0.142395263202900     IErMin= 9 ErrMin= 2.35D-08
 ErrMax= 2.35D-08  0.00D+00 EMaxC= 1.00D-01 BMatC= 2.57D-14 BMatP= 5.97D-13
 IDIUse=1 WtCom= 1.00D+00 WtEn= 0.00D+00
 Coeff-Com: -0.126D-03 0.396D-03-0.773D-03-0.163D-03 0.117D-01-0.651D-01
 Coeff-Com:  0.279D+00-0.789D+00 0.156D+01
 Coeff:     -0.126D-03 0.396D-03-0.773D-03-0.163D-03 0.117D-01-0.651D-01
 Coeff:      0.279D+00-0.789D+00 0.156D+01
 Gap=     0.378 Goal=   None    Shift=    0.000
 RMSDP=2.79D-08 MaxDP=2.14D-07 DE=-3.96D-12 OVMax= 1.81D-07

 Cycle  10  Pass 1  IDiag  3:
 E=-0.142395263203042     Delta-E=       -0.000000000000 Rises=F Damp=F
 DIIS: error= 4.43D-09 at cycle  10 NSaved=  10.
 NSaved=10 IEnMin=10 EnMin=-0.142395263203042     IErMin=10 ErrMin= 4.43D-09
 ErrMax= 4.43D-09  0.00D+00 EMaxC= 1.00D-01 BMatC= 9.09D-16 BMatP= 2.57D-14
 IDIUse=1 WtCom= 1.00D+00 WtEn= 0.00D+00
 Coeff-Com:  0.507D-04-0.160D-03 0.317D-03-0.670D-04-0.382D-02 0.225D-01
 Coeff-Com: -0.100D+00 0.298D+00-0.715D+00 0.150D+01
 Coeff:      0.507D-04-0.160D-03 0.317D-03-0.670D-04-0.382D-02 0.225D-01
 Coeff:     -0.100D+00 0.298D+00-0.715D+00 0.150D+01
 Gap=     0.378 Goal=   None    Shift=    0.000
 RMSDP=5.16D-09 MaxDP=2.90D-08 DE=-1.42D-13 OVMax= 3.21D-08

 Cycle  11  Pass 2  IDiag  1:
 SCF Done:  E(RPM6) = -0.142395263203     A.U. after   11 cycles
            NFock= 10  Conv=0.52D-08     -V/T= 0.9978
 KE=-6.557007161377D+01 PE=-1.631690225880D+02 EE= 1.037430378491D+02
 Leave Link  502 at Sat Nov 25 14:43:45 2023, MaxMem=   134217728 cpu:               0.2 elap:               0.0
 (Enter /home/emanuele/chem_software/gaussian//gdv/l701.exe)
 ... and contract with generalized density number  0.
 Compute integral first derivatives.
 Leave Link  701 at Sat Nov 25 14:43:45 2023, MaxMem=   134217728 cpu:               0.2 elap:               0.1
 (Enter /home/emanuele/chem_software/gaussian//gdv/l702.exe)
 L702 exits ... SP integral derivatives will be done elsewhere.
 Leave Link  702 at Sat Nov 25 14:43:45 2023, MaxMem=   134217728 cpu:               0.1 elap:               0.0
 (Enter /home/emanuele/chem_software/gaussian//gdv/l703.exe)
 Integral derivatives from FoFJK, PRISM(SPDF).
 Compute integral first derivatives, UseDBF=F ICtDFT=           0.
 Calling FoFJK, ICntrl=      2127 FMM=F ISym2X=0 I1Cent= 0 IOpClX= 0 NMat=1 NMatS=1 NMatT=0.
 FoFJK:  IHMeth=40 ICntrl=    2127 DoSepK=F KAlg= 0 I1Cent=           0 FoldK=F
 IRaf=         0 NMat=       1 IRICut=       1 DoRegI=T DoRafI=F ISym2E= 0 IDoP0=3 IntGTp=3.
 FoFCou: FMM=F IPFlag=           0 FMFlag=      100000 FMFlg1=         800
         NFxFlg=           0 DoJE=F BraDBF=F KetDBF=F FulRan=T
         wScrn=  0.000000 ICntrl=      2127 IOpCl=  0 I1Cent=           0 NGrid=           0
         NMat0=    1 NMatS0=      1 NMatT0=    0 NMatD0=    1 NMtDS0=    0 NMtDT0=    0
 Symmetry not used in FoFCou.
 Leave Link  703 at Sat Nov 25 14:43:45 2023, MaxMem=   134217728 cpu:               0.1 elap:               0.0
 (Enter /home/emanuele/chem_software/gaussian//gdv/l716.exe)
 Dipole        = 6.03737664D-02-6.99547040D-01 7.81034151D-01
 -------------------------------------------------------------------
 Center     Atomic                   Forces (Hartrees/Bohr)
 Number     Number              X              Y              Z
 -------------------------------------------------------------------
      1        6           0.002963692    0.002832520    0.000125508
      2        8           0.000823770   -0.003355694    0.000577092
      3        6          -0.005454446    0.000516056    0.001775791
      4        1           0.000739574    0.000362973   -0.001412477
      5        1          -0.000176591   -0.000699644   -0.000502488
      6        7           0.000888106   -0.001056200   -0.000854483
      7        1           0.000338800    0.001031964   -0.000000930
      8        1           0.001505785    0.000460172    0.000565389
      9        8          -0.001249921   -0.002132993    0.000460832
     10        1          -0.000378768    0.002040847   -0.000734234
 -------------------------------------------------------------------
 Cartesian Forces:  Max     0.005454446 RMS     0.001668306
 Leave Link  716 at Sat Nov 25 14:43:45 2023, MaxMem=   134217728 cpu:               0.1 elap:               0.0
 (Enter /home/emanuele/chem_software/gaussian//gdv/l103.exe)

 GradGradGradGradGradGradGradGradGradGradGradGradGradGradGradGradGradGrad
 Berny optimization.
 Using GEDIIS/GDIIS optimizer.
 FormGI is forming the generalized inverse of G from B-inverse, IUseBI=4.
 Internal  Forces:  Max     0.002789165 RMS     0.001128951
 Search for a local minimum.
 Step number   3 out of a maximum of  100 on scan point     1 out of    11
 All quantities printed in internal units (Hartrees-Bohrs-Radians)
 RMS Force = .11313D-02 SwitMx=.10000D-02 MixMth= 1
 Mixed Optimization -- RFO/linear search
 Update second derivatives using D2CorX and points    1    2    3
 DE= -1.07D-03 DEPred=-9.59D-04 R= 1.12D+00
 TightC=F SS=  1.41D+00  RLast= 1.31D-01 DXNew= 8.4853D-01 3.9205D-01
 Trust test= 1.12D+00 RLast= 1.31D-01 DXMaxT set to 5.05D-01
 ITU=  1  1  0
 Use linear search instead of GDIIS.
     Eigenvalues ---    0.00620   0.00987   0.01253   0.04443   0.05212
     Eigenvalues ---    0.06758   0.09257   0.13112   0.15977   0.16665
     Eigenvalues ---    0.17191   0.20169   0.22825   0.25168   0.30822
     Eigenvalues ---    0.33785   0.34445   0.44084   0.45779   0.47377
     Eigenvalues ---    0.53071   0.59337   1.038871000.000001000.00000
     Eigenvalues --- 1000.000001000.000001000.000001000.000001000.00000
     Eigenvalues --- 1000.000001000.000001000.000001000.000001000.00000
     Eigenvalues --- 1000.00000
 RFO step:  Lambda=-3.03496215D-04 EMin= 6.19570283D-03
 Quartic linear search produced a step of  0.11486.
 Iteration  1 RMS(Cart)=  0.02557430 RMS(Int)=  0.00040373
 Iteration  2 RMS(Cart)=  0.00044466 RMS(Int)=  0.00004058
 Iteration  3 RMS(Cart)=  0.00000015 RMS(Int)=  0.00004058
 Fixing frozen coordinates.
 Iteration  1 RMS(Cart)=  0.00001204 RMS(Int)=  0.00000846
 Iteration  2 RMS(Cart)=  0.00000477 RMS(Int)=  0.00000941
 Iteration  3 RMS(Cart)=  0.00000189 RMS(Int)=  0.00001024
 Iteration  4 RMS(Cart)=  0.00000075 RMS(Int)=  0.00001062
 ITry= 1 IFail=0 DXMaxC= 9.32D-02 DCOld= 1.00D+10 DXMaxT= 5.05D-01 DXLimC= 3.00D+00 Rises=F
 Variable       Old X    -DE/DX   Delta X   Delta X   Delta X     New X
                                 (Linear)    (Quad)   (Total)
    R1        2.59207   0.00042  -0.00063   0.00220   0.00157   2.59363
    R2        2.86108  -0.00215  -0.00368  -0.00784  -0.01152   2.84956
    R3        2.28188  -0.00198  -0.00045  -0.00193  -0.00238   2.27949
    R4        1.87090   0.00137   0.00054   0.00443   0.00497   1.87587
    R5        2.11308  -0.00142  -0.00017  -0.00374  -0.00391   2.10917
    R6        2.11560   0.00087   0.00100   0.00472   0.00572   2.12132
    R7        2.80652   0.00251  -0.00163   0.00960   0.00797   2.81449
    R8        1.92578   0.00094  -0.00008   0.00278   0.00271   1.92848
    R9        1.91650   0.00129   0.00007   0.00350   0.00357   1.92008
    A1        1.91489  -0.00143  -0.00241  -0.00810  -0.01056   1.90434
    A2        2.11009  -0.00083  -0.00045  -0.00525  -0.00574   2.10435
    A3        2.25764   0.00227   0.00293   0.01279   0.01568   2.27332
    A4        1.98947  -0.00279  -0.00332  -0.01652  -0.01984   1.96963
    A5        1.88620   0.00015   0.00152   0.00666   0.00817   1.89437
    A6        1.91514  -0.00041   0.00114  -0.00174  -0.00061   1.91453
    A7        1.91617   0.00128  -0.00205   0.00714   0.00509   1.92126
    A8        1.85427   0.00006   0.00125  -0.00276  -0.00155   1.85272
    A9        2.01166  -0.00071  -0.00024  -0.00374  -0.00402   2.00764
   A10        1.87834  -0.00043  -0.00141  -0.00605  -0.00746   1.87087
   A11        1.93407   0.00061  -0.00337   0.00561   0.00217   1.93624
   A12        1.91274   0.00139  -0.00282   0.00983   0.00695   1.91968
   A13        1.88080  -0.00083  -0.00076  -0.00416  -0.00505   1.87575
    D1        3.09263   0.00081  -0.00000   0.00000   0.00000   3.09264
    D2       -0.01609   0.00066  -0.00180   0.01611   0.01418  -0.00191
    D3       -1.30934  -0.00028  -0.00526  -0.03293  -0.03814  -1.34748
    D4        0.70548  -0.00035  -0.00238  -0.03346  -0.03579   0.66969
    D5        2.76649  -0.00035  -0.00464  -0.03761  -0.04223   2.72426
    D6        1.79577  -0.00019  -0.00340  -0.05131  -0.05474   1.74103
    D7       -2.47259  -0.00026  -0.00052  -0.05184  -0.05239  -2.52498
    D8       -0.41158  -0.00026  -0.00278  -0.05599  -0.05883  -0.47041
    D9        0.61273  -0.00005   0.00047  -0.01625  -0.01583   0.59690
   D10        2.68614   0.00017  -0.00461  -0.01175  -0.01633   2.66981
   D11       -1.52174  -0.00074   0.00025  -0.02796  -0.02772  -1.54946
   D12        0.55168  -0.00052  -0.00483  -0.02345  -0.02823   0.52345
   D13        2.69642  -0.00008  -0.00019  -0.01788  -0.01812   2.67830
   D14       -1.51335   0.00015  -0.00527  -0.01338  -0.01862  -1.53197
         Item               Value     Threshold  Converged?
 Maximum Force            0.002789     0.000450     NO 
 RMS     Force            0.001131     0.000300     NO 
 Maximum Displacement     0.093176     0.001800     NO 
 RMS     Displacement     0.025655     0.001200     NO 
 Predicted change in Energy=-1.730836D-04
 Lowest energy point so far.  Saving SCF results.
 GradGradGradGradGradGradGradGradGradGradGradGradGradGradGradGradGradGrad

 Leave Link  103 at Sat Nov 25 14:43:45 2023, MaxMem=   134217728 cpu:               0.0 elap:               0.0
 (Enter /home/emanuele/chem_software/gaussian//gdv/l202.exe)
                          Input orientation:                          
 ---------------------------------------------------------------------
 Center     Atomic      Atomic             Coordinates (Angstroms)
 Number     Number       Type             X           Y           Z
 ---------------------------------------------------------------------
      1          6           0       -0.525200    0.149379    0.052650
      2          8           0       -1.621565   -0.656139   -0.128625
      3          6           0        0.709424   -0.711178    0.147361
      4          1           0        0.745766   -1.168913    1.164656
      5          1           0        0.631648   -1.565353   -0.576836
      6          7           0        1.913749    0.078933   -0.231491
      7          1           0        1.818255    1.052041    0.060704
      8          1           0        2.736338   -0.298859    0.230030
      9          8           0       -0.652749    1.344004    0.160600
     10          1           0       -2.473640   -0.147503   -0.154098
 ---------------------------------------------------------------------
                    Distance matrix (angstroms):
                    1          2          3          4          5
     1  C    0.000000
     2  O    1.372492   0.000000
     3  C    1.507921   2.347915   0.000000
     4  H    2.142384   2.745864   1.116124   0.000000
     5  H    2.162141   2.470735   1.122552   1.789688   0.000000
     6  N    2.456455   3.612389   1.489363   2.206928   2.113462
     7  H    2.511304   3.845268   2.084696   2.702144   2.943679
     8  H    3.296970   4.387209   2.070078   2.364931   2.585490
     9  O    1.206255   2.241166   2.465657   3.046100   3.264635
    10  H    1.981742   0.992669   3.246614   3.625875   3.439741
                    6          7          8          9         10
     6  N    0.000000
     7  H    1.020508   0.000000
     8  H    1.016062   1.642096   0.000000
     9  O    2.888087   2.490197   3.766925   0.000000
    10  H    4.393910   4.461548   5.226312   2.374715   0.000000
 Symmetry turned off by external request.
 Stoichiometry    C2H5NO2
 Framework group  C1[X(C2H5NO2)]
 Deg. of freedom    24
[...]
    A5        1.90650  -0.00000  -0.00001  -0.00006  -0.00007   1.90643
    A6        1.91007  -0.00000   0.00000   0.00000   0.00001   1.91008
    A7        1.99097  -0.00000   0.00000  -0.00002  -0.00002   1.99094
    A8        1.83023  -0.00000   0.00001  -0.00000   0.00001   1.83024
    A9        1.90916   0.00000   0.00001   0.00000   0.00001   1.90917
   A10        1.91001   0.00001  -0.00001   0.00008   0.00007   1.91008
   A11        1.93699   0.00000   0.00000  -0.00000   0.00000   1.93699
   A12        1.93681  -0.00000  -0.00000  -0.00000  -0.00000   1.93680
   A13        1.86853  -0.00000  -0.00000  -0.00001  -0.00001   1.86853
    D1        3.09264   0.00085   0.00000   0.00000  -0.00000   3.09264
    D2       -0.04149   0.00055   0.00002  -0.00008  -0.00006  -0.04154
    D3       -1.01766  -0.00017   0.00019  -0.00005   0.00014  -1.01752
    D4        0.97698  -0.00017   0.00020  -0.00008   0.00012   0.97710
    D5        3.12316  -0.00016   0.00019   0.00000   0.00020   3.12336
    D6        2.11560   0.00017   0.00017   0.00004   0.00020   2.11580
    D7       -2.17295   0.00016   0.00017   0.00001   0.00018  -2.17277
    D8       -0.02677   0.00017   0.00017   0.00009   0.00026  -0.02651
    D9       -1.04599  -0.00000  -0.00004  -0.00004  -0.00008  -1.04606
   D10        1.02941  -0.00000  -0.00004  -0.00005  -0.00009   1.02932
   D11        3.09628   0.00000  -0.00003   0.00005   0.00002   3.09631
   D12       -1.11150   0.00000  -0.00003   0.00004   0.00001  -1.11149
   D13        1.10022  -0.00000  -0.00004   0.00001  -0.00003   1.10019
   D14       -3.10756  -0.00000  -0.00004  -0.00000  -0.00004  -3.10760
         Item               Value     Threshold  Converged?
 Maximum Force            0.000029     0.000450     YES
 RMS     Force            0.000008     0.000300     YES
 Maximum Displacement     0.000333     0.001800     YES
 RMS     Displacement     0.000101     0.001200     YES
 Predicted change in Energy=-4.694781D-09
 Optimization completed.
    -- Stationary point found.
                           ----------------------------
                           !   Optimized Parameters   !
                           ! (Angstroms and Degrees)  !
 --------------------------                            --------------------------
 ! Name  Definition              Value          Derivative Info.                !
 --------------------------------------------------------------------------------
 ! R1    R(1,2)                  1.3731         -DE/DX =    0.0                 !
 ! R2    R(1,3)                  1.5162         -DE/DX =    0.0                 !
 ! R3    R(1,9)                  1.2074         -DE/DX =    0.0                 !
 ! R4    R(2,10)                 0.9953         -DE/DX =    0.0                 !
 ! R5    R(3,4)                  1.1191         -DE/DX =    0.0                 !
 ! R6    R(3,5)                  1.1191         -DE/DX =    0.0                 !
 ! R7    R(3,6)                  1.4737         -DE/DX =    0.0                 !
 ! R8    R(6,7)                  1.0178         -DE/DX =    0.0                 !
 ! R9    R(6,8)                  1.018          -DE/DX =    0.0                 !
 ! A1    A(2,1,3)              110.015          -DE/DX =    0.0                 !
 ! A2    A(2,1,9)              120.499          -DE/DX =    0.0                 !
 ! A3    A(3,1,9)              129.4844         -DE/DX =    0.0                 !
 ! A4    A(1,2,10)             112.9898         -DE/DX =    0.0                 !
 ! A5    A(1,3,4)              109.2344         -DE/DX =    0.0                 !
 ! A6    A(1,3,5)              109.4391         -DE/DX =    0.0                 !
 ! A7    A(1,3,6)              114.0741         -DE/DX =    0.0                 !
 ! A8    A(4,3,5)              104.8647         -DE/DX =    0.0                 !
 ! A9    A(4,3,6)              109.387          -DE/DX =    0.0                 !
 ! A10   A(5,3,6)              109.4356         -DE/DX =    0.0                 !
 ! A11   A(3,6,7)              110.9813         -DE/DX =    0.0                 !
 ! A12   A(3,6,8)              110.9709         -DE/DX =    0.0                 !
 ! A13   A(7,6,8)              107.0591         -DE/DX =    0.0                 !
 ! D1    D(3,1,2,10)           177.195          -DE/DX =    0.0009              !
 ! D2    D(9,1,2,10)            -2.3769         -DE/DX =    0.0006              !
 ! D3    D(2,1,3,4)            -58.3074         -DE/DX =   -0.0002              !
 ! D4    D(2,1,3,5)             55.9771         -DE/DX =   -0.0002              !
 ! D5    D(2,1,3,6)            178.9442         -DE/DX =   -0.0002              !
 ! D6    D(9,1,3,4)            121.2147         -DE/DX =    0.0002              !
 ! D7    D(9,1,3,5)           -124.5008         -DE/DX =    0.0002              !
 ! D8    D(9,1,3,6)             -1.5337         -DE/DX =    0.0002              !
 ! D9    D(1,3,6,7)            -59.9308         -DE/DX =    0.0                 !
 ! D10   D(1,3,6,8)             58.981          -DE/DX =    0.0                 !
 ! D11   D(4,3,6,7)            177.404          -DE/DX =    0.0                 !
 ! D12   D(4,3,6,8)            -63.6842         -DE/DX =    0.0                 !
 ! D13   D(5,3,6,7)             63.0382         -DE/DX =    0.0                 !
 ! D14   D(5,3,6,8)           -178.0501         -DE/DX =    0.0                 !
 --------------------------------------------------------------------------------
 Lowest energy point so far.  Saving SCF results.
 Summary of Optimized Potential Surface Scan (add -0.0 to energies):
                           1         2         3         4         5
     Eigenvalues --    -0.14826  -0.14381  -0.13400  -0.13067  -0.13459
           R1           1.37305   1.37892   1.39285   1.39460   1.38488
           R2           1.51612   1.51611   1.51650   1.51859   1.52161
           R3           1.20747   1.20535   1.19978   1.19814   1.20085
           R4           0.99572   0.98925   0.97096   0.96628   0.97638
           R5           1.11916   1.11937   1.11977   1.12043   1.11908
           R6           1.11907   1.11977   1.11850   1.11607   1.11564
           R7           1.47364   1.47315   1.47379   1.47513   1.47641
           R8           1.01782   1.01847   1.01802   1.01770   1.01816
           R9           1.01801   1.01703   1.01733   1.01807   1.01852
           A1         110.01923 109.97978 110.74265 113.00864 115.21653
           A2         120.49026 120.62712 120.27197 118.54105 117.22877
           A3         129.48885 129.26491 128.97860 128.11134 127.20219
           A4         112.97102 113.72036 115.83719 116.65445 115.96941
           A5         109.22346 110.06050 109.65083 108.68214 108.87146
           A6         109.44524 108.33701 108.67458 110.27951 110.71762
           A7         114.07975 114.36594 114.65995 114.54059 114.14428
           A8         104.86390 104.73917 104.67961 104.85334 105.50692
           A9         109.38575 109.66675 109.57458 109.15902 108.72247
           A10        109.43626 109.21657 109.12181 108.87565 108.50634
           A11        110.97521 110.95661 111.00397 110.91031 110.70639
           A12        110.97312 111.03251 110.97049 110.78313 110.62428
           A13        107.06149 107.16329 107.16115 107.03483 106.88020
           D1         177.19500-146.80494-110.80510 -74.80499 -38.80489
           D2          -2.37876  29.44604  68.33020 111.33874 147.51516
           D3         -58.36180 -47.70584 -47.77706 -51.33735 -53.02358
           D4          55.91907  66.27112  66.09709  63.08303  62.53027
           D5         178.89568-171.67207-171.51473-173.69714-174.68910
           D6         121.16227 136.46163 133.18359 121.79994 119.91744
           D7        -124.55685-109.56141-112.94226-123.77969-124.52871
           D8          -1.58024  12.49540   9.44592  -0.55986  -1.74809
           D9         -59.94107 -55.11412 -54.58932 -57.40868 -58.74802
           D10         58.97113  63.95221  64.46478  61.30542  59.54253
           D11        177.40497-179.29068-178.36764-179.50920 179.50437
           D12        -63.68283 -60.22435 -59.31353 -60.79511 -62.20508
           D13         63.04042  66.46069  67.55637  66.56276  65.22862
           D14       -178.04738-174.47297-173.38953-174.72314-176.48082
                           6         7         8         9        10
     Eigenvalues --    -0.13733  -0.13526  -0.13102  -0.13281  -0.14235
           R1           1.37959   1.38347   1.39328   1.39434   1.38091
           R2           1.52229   1.52178   1.51933   1.51650   1.51638
           R3           1.20231   1.20125   1.19838   1.19906   1.20452
           R4           0.98095   0.97754   0.96775   0.96860   0.98629
           R5           1.11738   1.11586   1.11580   1.11801   1.11947
           R6           1.11697   1.11900   1.12013   1.12006   1.11887
           R7           1.47718   1.47651   1.47542   1.47399   1.47350
           R8           1.01854   1.01856   1.01814   1.01749   1.01736
           R9           1.01857   1.01825   1.01740   1.01806   1.01824
           A1         116.16462 115.46123 113.37249 111.00531 110.00260
           A2         116.83912 117.11860 118.25442 120.07248 120.67082
           A3         126.99368 127.13862 127.96733 128.92153 129.18423
           A4         115.88587 115.92824 116.58347 116.15244 114.04428
           A5         109.85602 110.65922 110.45061 108.92257 108.23204
           A6         110.02448 109.00109 108.60004 109.48020 110.08198
           A7         113.98618 114.12030 114.47259 114.69124 114.38597
           A8         105.80318 105.56109 105.00911 104.64949 104.83237
           A9         108.42261 108.46489 108.79179 109.09474 109.20696
           A10        108.40965 108.66822 109.08396 109.52059 109.65188
           A11        110.57635 110.61141 110.75303 110.94113 111.01874
           A12        110.56848 110.67987 110.88543 110.99461 110.97371
           A13        106.80418 106.85970 107.03349 107.13680 107.15697
           D1          -2.80502  33.19502  69.19514 105.19504 141.19512
           D2         177.73780-152.45935-117.53248 -75.08029 -34.85080
           D3         -57.62518 -62.15336 -62.97603 -65.55825 -66.67104
           D4          58.46544  53.50872  51.67691  48.32357  47.37037
           D5        -179.52508 175.18368 173.83102 171.87826 171.34883
           D6         121.76840 124.16240 124.54521 114.74800 108.94049
           D7        -122.14098-120.17552-120.80185-131.37018-137.01810
           D8          -0.13150   1.49944   1.35226  -7.81549 -13.03964
           D9         -59.03790 -59.49323 -60.86638 -64.07513 -64.27142
           D10         59.04163  58.74704  57.81075  54.92323  54.78916
           D11        178.27506 176.65475 175.05180 173.45442 174.28309
           D12        -63.64540 -65.10498 -66.27107 -67.54722 -66.65632
           D13         63.85680  62.36509  61.02368  59.45799  59.93664
           D14       -178.06366-179.39464 179.70082 178.45635 178.99723
                          11
     Eigenvalues --    -0.14826
           R1           1.37309
           R2           1.51616
           R3           1.20742
           R4           0.99530
           R5           1.11915
           R6           1.11906
           R7           1.47367
           R8           1.01777
           R9           1.01798
           A1         110.01500
           A2         120.49895
           A3         129.48437
           A4         112.98984
           A5         109.23440
           A6         109.43911
           A7         114.07409
           A8         104.86471
           A9         109.38703
           A10        109.43559
           A11        110.98128
           A12        110.97089
           A13        107.05915
           D1         177.19500
           D2          -2.37694
           D3         -58.30737
           D4          55.97711
           D5         178.94416
           D6         121.21474
           D7        -124.50078
           D8          -1.53373
           D9         -59.93077
           D10         58.98099
           D11        177.40404
           D12        -63.68420
           D13         63.03819
           D14       -178.05005
 Largest change from initial coordinates is atom    8       0.399 Angstoms.
 GradGradGradGradGradGradGradGradGradGradGradGradGradGradGradGradGradGrad

 Leave Link  103 at Sat Nov 25 14:44:31 2023, MaxMem=   134217728 cpu:               0.1 elap:               0.0
 (Enter /home/emanuele/chem_software/gaussian//gdv/l202.exe)
                          Input orientation:                          
 ---------------------------------------------------------------------
 Center     Atomic      Atomic             Coordinates (Angstroms)
 Number     Number       Type             X           Y           Z
 ---------------------------------------------------------------------
      1          6           0       -0.472331    0.101983    0.218595
      2          8           0       -1.623307   -0.629800    0.060062
      3          6           0        0.734767   -0.748191   -0.126180
      4          1           0        0.748063   -1.653550    0.531569
      5          1           0        0.623220   -1.149537   -1.164822
      6          7           0        2.021862   -0.040001   -0.009740
      7          1           0        2.052227    0.765346   -0.631314
      8          1           0        2.162037    0.307762    0.936675
      9          8           0       -0.522046    1.249045    0.592276
     10          1           0       -2.442467   -0.126645    0.317830
 ---------------------------------------------------------------------
                    Distance matrix (angstroms):
                    1          2          3          4          5
     1  C    0.000000
     2  O    1.373093   0.000000
     3  C    1.516164   2.368379   0.000000
     4  H    2.160836   2.625601   1.119146   0.000000
     5  H    2.163418   2.611006   1.119062   1.774079   0.000000
     6  N    2.508645   3.693237   1.473670   2.125823   2.126379
     7  H    2.745140   3.991740   2.069215   2.983990   2.448156
     8  H    2.738226   3.997037   2.069250   2.451567   2.984622
     9  O    1.207419   2.241894   2.466720   3.168899   3.186256
    10  H    1.985838   0.995305   3.267764   3.543530   3.555700
                    6          7          8          9         10
     6  N    0.000000
     7  H    1.017772   0.000000
     8  H    1.017983   1.637080   0.000000
     9  O    2.914709   2.891024   2.865122   0.000000
    10  H    4.477169   4.679615   4.666169   2.378205   0.000000
 Symmetry turned off by external request.
 Stoichiometry    C2H5NO2
 Framework group  C1[X(C2H5NO2)]
 Deg. of freedom    24
 Full point group                 C1      NOp   1
 Rotational constants (GHZ):          10.1372872           3.8109866           2.8619986
 Leave Link  202 at Sat Nov 25 14:44:31 2023, MaxMem=   134217728 cpu:               0.1 elap:               0.0
 (Enter /home/emanuele/chem_software/gaussian//gdv/l601.exe)
 Copying SCF densities to generalized density rwf, IOpCl= 0 IROHF=0.

 **********************************************************************

            Population analysis using the SCF Density.

 **********************************************************************

 Alpha  occ. eigenvalues --       -1.20534      -1.15833      -1.13505      -0.95596      -0.79220
 Alpha  occ. eigenvalues --       -0.67520      -0.66415      -0.63177      -0.59078      -0.56950
 Alpha  occ. eigenvalues --       -0.51833      -0.49000      -0.46141      -0.43380      -0.37363
 Alpha virt. eigenvalues --        0.00807       0.04824       0.08473       0.11243       0.13856
 Alpha virt. eigenvalues --        0.16134       0.16856       0.18524       0.20553       0.23557
          Condensed to atoms (all electrons):
               1          2          3          4          5          6
     1  C    3.418670   0.000000   0.000000   0.000000   0.000000   0.000000
     2  O    0.000000   6.529044   0.000000   0.000000   0.000000   0.000000
     3  C    0.000000   0.000000   4.250611   0.000000   0.000000   0.000000
     4  H    0.000000   0.000000   0.000000   0.805796   0.000000   0.000000
     5  H    0.000000   0.000000   0.000000   0.000000   0.805674   0.000000
     6  N    0.000000   0.000000   0.000000   0.000000   0.000000   5.464224
     7  H    0.000000   0.000000   0.000000   0.000000   0.000000   0.000000
     8  H    0.000000   0.000000   0.000000   0.000000   0.000000   0.000000
     9  O    0.000000   0.000000   0.000000   0.000000   0.000000   0.000000
    10  H    0.000000   0.000000   0.000000   0.000000   0.000000   0.000000
               7          8          9         10
     1  C    0.000000   0.000000   0.000000   0.000000
     2  O    0.000000   0.000000   0.000000   0.000000
     3  C    0.000000   0.000000   0.000000   0.000000
     4  H    0.000000   0.000000   0.000000   0.000000
     5  H    0.000000   0.000000   0.000000   0.000000
     6  N    0.000000   0.000000   0.000000   0.000000
     7  H    0.781130   0.000000   0.000000   0.000000
     8  H    0.000000   0.780679   0.000000   0.000000
     9  O    0.000000   0.000000   6.507360   0.000000
    10  H    0.000000   0.000000   0.000000   0.656810
 Mulliken charges:
               1
     1  C    0.581330
     2  O   -0.529044
     3  C   -0.250611
     4  H    0.194204
     5  H    0.194326
     6  N   -0.464224
     7  H    0.218870
     8  H    0.219321
     9  O   -0.507360
    10  H    0.343190
 Sum of Mulliken charges =   0.00000
 Mulliken charges with hydrogens summed into heavy atoms:
               1
     1  C    0.581330
     2  O   -0.185855
     3  C    0.137918
     6  N   -0.026033
     9  O   -0.507360
 Charge=              0.0000 electrons
 Dipole moment (field-independent basis, Debye):
    X=             -0.7978    Y=             -0.6717    Z=             -0.1082  Tot=              1.0485
 N-N= 1.247893844108D+02 E-N=-1.629599282115D+02  KE=-6.560449594912D+01
 Leave Link  601 at Sat Nov 25 14:44:31 2023, MaxMem=   134217728 cpu:               0.1 elap:               0.0
 (Enter /home/emanuele/chem_software/gaussian//gdv/l9999.exe)
 Unable to Open any file for archive entry.
 1\1\GINC-EMANUELE-XPS-13-9343\Scan\RPM6\ZDO\C2H5N1O2\EMANUELE\25-Nov-2
 023\0\\#p nosymm geom=nocrowd opt=(modredundant,maxcycle=100) PM6\\Tit
 le\\0,1\C,-0.4723313804,0.1019826604,0.218595493\O,-1.6233073958,-0.62
 97999014,0.0600619153\C,0.7347674913,-0.7481905096,-0.1261803457\H,0.7
 480632062,-1.6535502641,0.5315690537\H,0.6232196372,-1.1495372795,-1.1
 648220574\N,2.0218620907,-0.0400006483,-0.0097399118\H,2.0522269489,0.
 7653457106,-0.6313142819\H,2.1620371675,0.3077620343,0.936674947\O,-0.
 5220458524,1.2490451877,0.5922760995\H,-2.4424669133,-0.1266449902,0.3
 178300884\\Version=ES64L-GDVRevJ.14\HF=-0.14826,-0.1438136,-0.1339967,
 -0.1306705,-0.1345872,-0.1373307,-0.1352637,-0.1310151,-0.1328115,-0.1
 423528,-0.14826\RMSD=2.620e-09,8.825e-09,7.110e-09,4.867e-09,2.954e-09
 ,1.772e-09,8.118e-09,5.983e-09,3.916e-09,7.925e-09,3.865e-09\PG=C01 [X
 (C2H5N1O2)]\\@
 The archive entry for this job was punched.


 OLD HORSE! OLD HORSE! WHAT BROUGHT YOU HERE?
 FROM SACARAP' TO PORTLAND PIER
 I'VE CARTED STONE THIS MANY A YEAR;
 TILL, KILLED BY BLOWS AND SORE ABUSE,
 THEY SALTED ME DOWN FOR SAILORS' USE.
 THE SAILORS THEY DO ME DESPISE;
 THEY TURN ME OVER AND DAMN MY EYES;
 CUT OFF MY MEAT, AND SCRAPE MY BONES,
 AND PITCH ME OVER TO DAVY JONES.

    SAILORS' COMPLAINT ABOUT THE BEEF
    SERVED ON SHIPBOARD, CIRCA 1835.
 Job cpu time:       0 days  0 hours  2 minutes 49.3 seconds.
 Elapsed time:       0 days  0 hours  0 minutes 43.2 seconds.
 File lengths (MBytes):  RWF=      6 Int=      0 D2E=      0 Chk=      2 Scr=      1
 Normal termination of Gaussian DV at Sat Nov 25 14:44:31 2023.
