 Entering Gaussian System, Link 0=/home/emanuele/chem_software/gaussian//g09/g09
 Input=4_mm_80.gjf
 Output=4_mm_80.log
 Initial command:
 /home/emanuele/chem_software/gaussian//gdv/l1.exe "/home/emanuele/chem_software/gaussian/scratch/Gau-4581.inp" -scrdir="/home/emanuele/chem_software/gaussian/scratch/"
 Entering Link 1 = /home/emanuele/chem_software/gaussian//gdv/l1.exe PID=      4583.
  
 Copyright (c) 1988-2020, Gaussian, Inc.  All Rights Reserved.
  
 This is the private, development version of
 the Gaussian(R) DV system of programs. It is based on
 the Gaussian(R) 16 system (copyright 2016, Gaussian, Inc.),
 the Gaussian(R) 09 system (copyright 2009, Gaussian, Inc.),
 the Gaussian(R) 03 system (copyright 2003, Gaussian, Inc.),
 the Gaussian(R) 98 system (copyright 1998, Gaussian, Inc.),
 the Gaussian(R) 94 system (copyright 1995, Gaussian, Inc.),
 the Gaussian 92(TM) system (copyright 1992, Gaussian, Inc.),
 the Gaussian 90(TM) system (copyright 1990, Gaussian, Inc.),
 the Gaussian 88(TM) system (copyright 1988, Gaussian, Inc.),
 the Gaussian 86(TM) system (copyright 1986, Carnegie Mellon
 University), and the Gaussian 82(TM) system (copyright 1983,
 Carnegie Mellon University). Gaussian is a federally registered
 trademark of Gaussian, Inc.
  
 This software contains proprietary and confidential information,
 including trade secrets, belonging to Gaussian, Inc.
  
 This software is provided under written license and may be
 used, copied, transmitted, or stored only in accord with that
 written license.
  
 The following legend is applicable only to US Government
 contracts under FAR:
  
                    RESTRICTED RIGHTS LEGEND
  
 Use, reproduction and disclosure by the US Government is
 subject to restrictions as set forth in subparagraphs (a)
 and (c) of the Commercial Computer Software - Restricted
 Rights clause in FAR 52.227-19.
  
 Gaussian, Inc.
 340 Quinnipiac St., Bldg. 40, Wallingford CT 06492
  
  
 ---------------------------------------------------------------
 Warning -- This program may not be used in any manner that
 competes with the business of Gaussian, Inc. or will provide
 assistance to any competitor of Gaussian, Inc.  The licensee
 of this program is prohibited from giving any competitor of
 Gaussian, Inc. access to this program.  By using this program,
 the user acknowledges that Gaussian, Inc. is engaged in the
 business of creating and licensing software in the field of
 computational chemistry and represents and warrants to the
 licensee that it is not a competitor of Gaussian, Inc. and that
 it will not use this program in any manner prohibited above.
 ---------------------------------------------------------------
  

 Cite this work as:
 Gaussian Development Version, Revision J.14,
 M. J. Frisch, G. W. Trucks, H. B. Schlegel, G. E. Scuseria, 
 M. A. Robb, J. R. Cheeseman, G. Scalmani, V. Barone, 
 G. A. Petersson, H. Nakatsuji, X. Li, A. V. Marenich, M. Caricato, 
 J. Bloino, B. G. Janesko, J. Zheng, R. Gomperts, B. Mennucci, 
 H. P. Hratchian, J. V. Ortiz, A. F. Izmaylov, J. L. Sonnenberg, 
 D. Williams-Young, F. Ding, F. Lipparini, F. Egidi, J. Goings, 
 B. Peng, A. Petrone, T. Henderson, D. Ranasinghe, V. G. Zakrzewski, 
 J. Gao, N. Rega, G. Zheng, W. Liang, M. Hada, M. Ehara, K. Toyota, 
 R. Fukuda, J. Hasegawa, M. Ishida, T. Nakajima, Y. Honda, O. Kitao, 
 H. Nakai, T. Vreven, K. Throssell, J. A. Montgomery, Jr., 
 J. E. Peralta, F. Ogliaro, M. J. Bearpark, J. J. Heyd, 
 E. N. Brothers, K. N. Kudin, V. N. Staroverov, T. A. Keith, 
 R. Kobayashi, J. Normand, K. Raghavachari, A. P. Rendell, 
 J. C. Burant, S. S. Iyengar, J. Tomasi, M. Cossi, J. M. Millam, 
 M. Klene, C. Adamo, R. Cammi, J. W. Ochterski, R. L. Martin, 
 K. Morokuma, O. Farkas, J. B. Foresman, and D. J. Fox, 
 Gaussian, Inc., Wallingford CT, 2020.
 
 ******************************************
 Gaussian DV:  ES64L-GDVRevJ.14 29-Dec-2020
                28-Nov-2023 
 ******************************************
 %mem=1GB
 %nprocshared=1
 Will use up to    1 processors via shared memory.
 %chk=4_mm_80.chk
 -----------------------------------------------------------------
 #p Amber=(SoftFirst,Print) geom=nocrowd nosymm opt=(maxcycle=300)
 -----------------------------------------------------------------
 1/6=300,10=10,18=4000020,19=15,37=210000000,38=1,56=2,64=203/1,3;
 2/9=110,12=1,15=1,40=1/2;
 3/5=30,11=9,25=1,30=1,41=10030000,43=2,71=1/1;
 4/20=11,22=1001,24=3,119=11/2;
 7/30=1,44=-1/16;
 1/6=300,10=10,18=4000020,19=15,64=203/3(2);
 2/9=110,12=1,15=1/2;
 99//99;
 2/9=110,12=1,15=1/2;
 3/5=30,11=9,25=1,30=1,41=10030000,43=2,71=1/1;
 4/16=2,20=11,22=1001,24=3,119=11/2;
 7/30=1,44=-1/16;
 1/6=300,10=10,18=4000020,19=15,64=203/3(-4);
 2/9=110,12=1,15=1/2;
 99/9=10/99;
 Leave Link    1 at Tue Nov 28 09:32:12 2023, MaxMem=   134217728 cpu:               0.0 elap:               0.0
 (Enter /home/emanuele/chem_software/gaussian//gdv/l101.exe)
 -----
 Title
 -----
 Symbolic Z-matrix:
 Charge =  0 Multiplicity = 1
 C-C-+0.299289        -0.64019  -0.22659   0.32191 
 O-OH--0.289770       -0.70305  -0.11506  -1.05109 
 C-CT--0.035454        0.79478  -0.19503   0.80331 
 H-HC-+0.090426        1.12289   0.52672   1.59246 
 H-HC-+0.095387        0.71783  -1.19474   1.31473 
 N-N3--0.336253        1.8396   -0.35345  -0.23088 
 H-H-+0.142619         1.32586  -0.48132  -1.11327 
 H-H-+0.128282         2.11615   0.59648  -0.47724 
 O-O2--0.308037       -1.65636  -0.3347    0.96195 
 H-HO-+0.213510       -1.6355   -0.1459   -1.39693 
 
 ITRead=  3  3  3  3  3  3  3  3  3  3
 MicOpt=  0  0  0  0  0  0  0  0  0  0
 NAtoms=     10 NQM=        0 NQMF=       0 NMMI=      0 NMMIF=      0
                NMic=      10 NMicF=      0.
                    Isotopes and Nuclear Properties:
 (Nuclear quadrupole moments (NQMom) in fm**2, nuclear magnetic moments (NMagM)
  in nuclear magnetons)

  Atom         1           2           3           4           5           6           7           8           9          10
 IAtWgt=          12          16          12           1           1          14           1           1          16           1
 AtmWgt=  12.0000000  15.9949146  12.0000000   1.0078250   1.0078250  14.0030740   1.0078250   1.0078250  15.9949146   1.0078250
 NucSpn=           0           0           0           1           1           2           1           1           0           1
 AtZEff=  -0.0000000  -0.0000000  -0.0000000  -0.0000000  -0.0000000  -0.0000000  -0.0000000  -0.0000000  -0.0000000  -0.0000000
 NQMom=    0.0000000   0.0000000   0.0000000   0.0000000   0.0000000   2.0440000   0.0000000   0.0000000   0.0000000   0.0000000
 NMagM=    0.0000000   0.0000000   0.0000000   2.7928460   2.7928460   0.4037610   2.7928460   2.7928460   0.0000000   2.7928460
 AtZNuc=   6.0000000   8.0000000   6.0000000   1.0000000   1.0000000   7.0000000   1.0000000   1.0000000   8.0000000   1.0000000
 Generating MM parameters.
 I=    1 IAn=  6 Valence= 5.
          JB=  1 J=    2 IAn=  8 IBT=12 Dist= 1.38D+00
          JB=  2 J=    3 IAn=  6 IBT= 1 Dist= 1.51D+00
          JB=  3 J=    9 IAn=  8 IBT= 2 Dist= 1.21D+00
 I=    2 IAn=  8 Valence= 3.
          JB=  1 J=    1 IAn=  6 IBT=12 Dist= 1.38D+00
          JB=  2 J=   10 IAn=  1 IBT= 1 Dist= 9.95D-01
 Read MM parameter file:
 Include all MM classes

 MM sanity checks:
 All charges sum to:               -0.00000100
 Charges of atoms sum to:          -0.00000100
 WARNING -- The following centers have non-zero partial charges, but zero Vanderwaals
 parameters.  These centers can collapse onto other centers with non-zero charge.
   Center  Layer   Charge
     10 H    R    0.213510
 MMInit generated parameter data with length LenPar=        2069.
 MM Charge=             -0.0000 electrons
 MM Dipole moment (Debye):
    X=              0.7539    Y=              0.5033    Z=             -0.4567  Tot=              1.0150
 MM Quadrupole moment (Debye-Ang):
   XX=             -2.2409   YY=              0.8556   ZZ=              1.9302
   XY=              0.8015   XZ=              3.5286   YZ=              0.1434
 MM Traceless Quadrupole moment (Debye-Ang):
   XX=             -2.4225   YY=              0.6740   ZZ=              1.7485
   XY=              0.8015   XZ=              3.5286   YZ=              0.1434
 MM Octapole moment (Debye-Ang**2):
  XXX=              0.4235  YYY=             -0.5532  ZZZ=             -0.7337  XYY=              1.1073
  XXY=              3.9295  XXZ=             -7.1234  XZZ=              2.9626  YZZ=             -0.3296
  YYZ=              0.6650  XYZ=             -1.1587
 MM Hexadecapole moment (Debye-Ang**3):
 XXXX=             -7.1769 YYYY=              1.0417 ZZZZ=              6.1257 XXXY=              4.8402
 XXXZ=             10.9959 YYYX=             -0.2594 YYYZ=             -0.8688 ZZZX=              6.8751
 ZZZY=              0.7569 XXYY=              0.6875 XXZZ=              4.4548 YYZZ=              1.5442
 XXYZ=              1.2590 YYXZ=              0.7437 ZZXY=             -0.7037
 Leave Link  101 at Tue Nov 28 09:32:12 2023, MaxMem=   134217728 cpu:               0.2 elap:               0.2
 (Enter /home/emanuele/chem_software/gaussian//gdv/l103.exe)

 GradGradGradGradGradGradGradGradGradGradGradGradGradGradGradGradGradGrad
 Berny optimization.
 Initialization pass.
 No Z-matrix variables, so optimization will use Cartesian coordinates.
 Trust Radius=1.00D-01 FncErr=1.00D-07 GrdErr=1.00D-07 EigMax=2.50D+02 EigMin=1.00D-04
 Number of steps in this run=      2 maximum allowed number of steps=      2.
 GradGradGradGradGradGradGradGradGradGradGradGradGradGradGradGradGradGrad

 Leave Link  103 at Tue Nov 28 09:32:12 2023, MaxMem=   134217728 cpu:               0.0 elap:               0.0
 (Enter /home/emanuele/chem_software/gaussian//gdv/l202.exe)
                          Input orientation:                          
 ---------------------------------------------------------------------
 Center     Atomic      Atomic             Coordinates (Angstroms)
 Number     Number       Type             X           Y           Z
 ---------------------------------------------------------------------
      1          6    20001002       -0.640185   -0.226590    0.321913
      2          8    20001022       -0.703048   -0.115060   -1.051089
      3          6    20001001        0.794783   -0.195032    0.803307
      4          1    20001034        1.122891    0.526724    1.592461
      5          1    20001034        0.717834   -1.194739    1.314728
      6          7    20001020        1.839597   -0.353449   -0.230884
      7          1    20001029        1.325862   -0.481320   -1.113266
      8          1    20001029        2.116148    0.596475   -0.477237
      9          8    20001025       -1.656360   -0.334701    0.961948
     10          1    20001031       -1.635497   -0.145897   -1.396929
 ---------------------------------------------------------------------
                    Distance matrix (angstroms):
                    1          2          3          4          5
     1  C    0.000000
     2  O    1.378958   0.000000
     3  C    1.513892   2.385095   0.000000
     4  H    2.300046   3.276324   1.118638   0.000000
     5  H    1.940930   2.963394   1.125561   1.790151   0.000000
     6  N    2.543815   2.682277   1.478609   2.147780   2.086873
     7  H    2.447441   2.062641   2.009293   2.894531   2.602656
     8  H    2.985540   2.963689   2.003068   2.296753   2.893936
     9  O    1.205796   2.238161   2.460239   2.977219   2.549689
    10  H    1.987857   0.994996   3.278676   4.122812   3.740497
                    6          7          8          9         10
     6  N    0.000000
     7  H    1.029015   0.000000
     8  H    1.019571   1.480110   0.000000
     9  O    3.693902   3.636160   4.143689   0.000000
    10  H    3.671378   2.993764   3.933420   2.366513   0.000000
 Symmetry turned off by external request.
 Stoichiometry    C2H5NO2
 Framework group  C1[X(C2H5NO2)]
 Deg. of freedom    24
 Full point group                 C1      NOp   1
 Rotational constants (GHZ):          10.0774241           4.0035530           2.9551293
 Leave Link  202 at Tue Nov 28 09:32:12 2023, MaxMem=   134217728 cpu:               0.0 elap:               0.0
 (Enter /home/emanuele/chem_software/gaussian//gdv/l301.exe)
 Standard basis: Dummy (5D, 7F)
    10 basis functions,    10 primitive gaussians,    10 cartesian basis functions
     7 alpha electrons        7 beta electrons
       nuclear repulsion energy        22.8735497950 Hartrees.
 IExCor=       0 DFT=F Ex=HF Corr=None N6=None ScaHFX=  1.000000
 ScaDFX=  1.000000  1.000000  1.000000  1.000000  1.000000  0.000000
 ScaDFX=  0.000000  0.000000  0.000000  0.000000  0.000000  0.000000
 IRadAn=      5 IRanWt=     -1 IRanGd=            0 ICorTp=0 IEmpDi=  4
 NAtoms=   10 NActive=   10 NUniq=   10 SFac= 1.00D+00 NAtFMM=   60 NAOKFM=F Big=F
 Integral buffers will be    131072 words long.
 Raffenetti 1 integral format.
 Two-electron integral symmetry is turned off.
 Leave Link  301 at Tue Nov 28 09:32:12 2023, MaxMem=   134217728 cpu:               0.1 elap:               0.0
 (Enter /home/emanuele/chem_software/gaussian//gdv/l402.exe)
 AMBER calculation of energy and first derivatives.
 NRF= 0 NRA=   0 NVA=  10 HaveQM=F NVQ=       0
 Convergence limit is  0.750E-04 MaxStp= 10000 StMxLn= 3.00D-04 StpMin= 1.00D-06.
 Convergence criteria             0.00011250 0.00007500 0.00045000 0.00030000
  Step  NS  ND Rises OKQ   Scale  Max. Force  RMS Force Max. Disp.  RMS Disp.     Energy   Flag
     1   0   0   F    T  1.00D+00 0.04874481 0.02009573 0.04874481 0.02009573    0.1013390 ----
     2   0   0   F    F  4.12D-01 0.04874481 0.02009573 0.02010271 0.00828762    0.0935424 ----
     3   0   0   F    T  2.75D+00 0.01611767 0.00937035 0.05719232 0.02838335    0.0928201 ----
     4   0   0   F    F  8.21D-01 0.01611767 0.00937035 0.04694007 0.02329537    0.0875487 ----
     5   0   0   F    T  2.80D+00 0.03219009 0.01106020 0.11588655 0.05167872    0.0861949 ----
     6   0   0   F    F -4.58D-01 0.03219009 0.01106020 0.05302060 0.02364413    0.0854174 ----
     7   0   0   F    T  3.42D+00 0.01442660 0.00624041 0.06444630 0.02803459    0.0833950 ----
     8   0   0   T    F  3.66D-01 0.01442660 0.00624041 0.02356992 0.01025308    0.0848284 ----
     9   0   0   F    T  1.04D+00 0.01495986 0.00605914 0.02356855 0.01025308    0.0826662 ----
    10   0   0   F    F  2.59D+00 0.01495986 0.00605914 0.06096525 0.02652186    0.0816878 ----
    11   0   0   F    F -7.49D-03 0.01495986 0.00605914 0.00045662 0.00019864    0.0806575 ---+
    12   0   0   F    T  1.75D+00 0.01725967 0.00831722 0.08376624 0.03657629    0.0806574 ----
    13   0   0   F    F  3.85D-01 0.01725967 0.00831722 0.03226717 0.01408937    0.0780329 ----
    14   0   0   F    F  1.90D-02 0.01725967 0.00831722 0.00061413 0.00026816    0.0777584 ---+
    15   0   0   F    T  3.72D+00 0.01534311 0.00725332 0.14010938 0.05093382    0.0777583 ----
    16   0   0   F    F -3.70D-01 0.01534311 0.00725332 0.05188217 0.01886067    0.0765763 ----
    17   0   0   F    T  2.15D+00 0.01629846 0.00796480 0.08533397 0.03207315    0.0758595 ----
    18   0   0   F    F  1.36D+00 0.01629846 0.00796480 0.11586730 0.04354923    0.0726521 ----
    19   0   0   F    F -1.23D-01 0.01629846 0.00796480 0.01423058 0.00534862    0.0712471 ----
    20   0   0   F    T  4.05D+00 0.02265874 0.00884028 0.13832344 0.07027375    0.0712171 ----
    21   0   0   T    F  4.51D-01 0.02265874 0.00884028 0.06243182 0.03171782    0.0723431 ----
    22   0   0   F    T  1.64D+00 0.02725643 0.00890853 0.06704864 0.03171782    0.0690703 ----
    23   0   0   F    F -8.79D-02 0.02725643 0.00890853 0.00589533 0.00278883    0.0673233 ----
    24   0   0   F    T  1.59D+00 0.01827055 0.00809682 0.06667957 0.02892899    0.0673072 ----
    25   0   0   F    F  1.25D+00 0.01827055 0.00809682 0.08307404 0.03604175    0.0648682 ----
    26   0   0   F    F -2.80D-02 0.01827055 0.00809682 0.00232940 0.00101061    0.0637949 ----
    27   0   0   F    T  5.74D+00 0.01576577 0.00572420 0.13338480 0.06396013    0.0637940 ----
    28   0   0   T    F  3.68D-01 0.01576577 0.00572420 0.04902816 0.02350978    0.0660416 ----
    29   0   0   F    T  2.36D+00 0.01172339 0.00516115 0.06697539 0.02350978    0.0627488 ----
    30   0   0   F    F  4.23D-01 0.01172339 0.00516115 0.02831325 0.00993855    0.0615464 ----
    31   0   0   F    T  1.34D+00 0.02055695 0.00792769 0.09581179 0.03344833    0.0614336 ----
    32   0   0   F    F  3.06D-01 0.02055695 0.00792769 0.02934017 0.01024279    0.0598508 ----
    33   0   0   F    F -1.45D-02 0.02055695 0.00792769 0.00042516 0.00014842    0.0597574 --++
    34   0   0   F    T  1.95D+00 0.01842279 0.00722558 0.13013485 0.04354270    0.0597574 ----
    35   0   0   F    F -1.81D-01 0.01842279 0.00722558 0.02358384 0.00789108    0.0585274 ----
    36   0   0   F    T  3.74D+00 0.01228010 0.00517633 0.13537062 0.03565162    0.0584580 ----
    37   0   0   F    F -1.07D-01 0.01228010 0.00517633 0.01443254 0.00380100    0.0571824 ----
    38   0   0   F    T  1.85D+00 0.02031830 0.00663577 0.11659309 0.03185062    0.0571656 ----
    39   0   0   F    F  3.36D-01 0.02031830 0.00663577 0.03913089 0.01068968    0.0555686 ----
    40   0   0   F    F -1.67D-02 0.02031830 0.00663577 0.00065364 0.00017856    0.0554546 ---+
    41   0   0   F    T  4.22D+00 0.01400361 0.00445212 0.16571671 0.04236175    0.0554545 ----
    42   0   0   F    F -1.99D-01 0.01400361 0.00445212 0.03290944 0.00841256    0.0545522 ----
    43   0   0   F    T  3.02D+00 0.00946349 0.00445981 0.12068771 0.03394919    0.0545016 ----
    44   0   0   F    F -2.52D-01 0.00946349 0.00445981 0.03039343 0.00854961    0.0538962 ----
    45   0   0   F    T  1.59D+00 0.01625836 0.00506494 0.08499083 0.02539958    0.0538146 ----
    46   0   0   F    F -2.99D-01 0.01625836 0.00506494 0.02545336 0.00760676    0.0534625 ----
    47   0   0   F    T  3.54D+00 0.00601615 0.00293688 0.04630991 0.01779282    0.0533798 ----
    48   0   0   F    F -4.22D-01 0.00601615 0.00293688 0.01954764 0.00751044    0.0532547 ----
    49   0   0   F    T  2.40D+00 0.00552360 0.00245005 0.02278712 0.01028238    0.0531165 ----
    50   0   0   F    F  1.41D-01 0.00552360 0.00245005 0.00321932 0.00145268    0.0528734 ----
    51   0   0   F    T  1.92D+00 0.00578369 0.00274815 0.02844684 0.01173506    0.0528696 ----
    52   0   0   F    F -4.10D-01 0.00578369 0.00274815 0.01166640 0.00481269    0.0528035 ----
    53   0   0   F    T  1.85D+00 0.00533612 0.00198462 0.01826040 0.00692237    0.0527414 ----
    54   0   0   F    F  2.36D-01 0.00533612 0.00198462 0.00431822 0.00163700    0.0526113 ----
    55   0   0   F    T  1.87D+00 0.00489652 0.00207236 0.01824654 0.00855937    0.0526064 ----
    56   0   0   F    F  9.75D-01 0.00489652 0.00207236 0.01779112 0.00834574    0.0524252 ----
    57   0   0   F    T  3.51D+00 0.00471559 0.00205547 0.03897651 0.01690511    0.0523660 ----
    58   0   0   T    F  3.12D-01 0.00471559 0.00205547 0.01217022 0.00527854    0.0526355 ----
    59   0   0   F    T  1.57D+00 0.00486649 0.00162412 0.01144294 0.00527854    0.0522966 ----
    60   0   0   F    F  5.10D-01 0.00486649 0.00162412 0.00583697 0.00269255    0.0522137 ----
    61   0   0   F    T  1.72D+00 0.00550592 0.00182932 0.01695440 0.00797108    0.0522031 ----
    62   0   0   F    F  2.16D-01 0.00550592 0.00182932 0.00365368 0.00171777    0.0521019 ----
    63   0   0   F    T  4.14D+00 0.00263142 0.00118328 0.02831704 0.00968885    0.0520986 ----
    64   0   0   F    F -3.50D-01 0.00263142 0.00118328 0.00990072 0.00338760    0.0520584 ----
    65   0   0   F    T  1.61D+00 0.00330211 0.00147466 0.01864664 0.00630126    0.0520419 ----
    66   0   0   F    T  1.48D+00 0.00333319 0.00149405 0.01736665 0.00630126    0.0519894 ----
    67   0   0   F    F  3.83D-01 0.00333319 0.00149405 0.00665524 0.00241477    0.0519264 ----
    68   0   0   F    T  3.45D+00 0.00306324 0.00107629 0.02118446 0.00871602    0.0519211 ----
    69   0   0   F    F -3.07D-01 0.00306324 0.00107629 0.00649839 0.00267366    0.0518877 ----
    70   0   0   F    T  2.02D+00 0.00283277 0.00112921 0.01755943 0.00604236    0.0518794 ----
    71   0   0   F    F  1.09D+00 0.00283277 0.00112921 0.01909577 0.00657103    0.0518211 ----
    72   0   0   F    T  1.35D+00 0.00639406 0.00197894 0.03862378 0.01261339    0.0517999 ----
    73   0   0   F    F  1.35D-01 0.00639406 0.00197894 0.00521524 0.00170314    0.0517093 ----
    74   0   0   F    T  1.92D+00 0.00419209 0.00178475 0.04588125 0.01431653    0.0517080 ----
    75   0   0   F    F -6.37D-02 0.00419209 0.00178475 0.00292454 0.00091256    0.0516197 ----
    76   0   0   F    T  3.49D+00 0.00352021 0.00143854 0.04334478 0.01340397    0.0516193 ----
    77   0   0   F    F  2.76D-01 0.00352021 0.00143854 0.01196669 0.00370059    0.0514903 ----
    78   0   0   F    T  2.42D+00 0.00482108 0.00193635 0.05357957 0.01710456    0.0514842 ----
    79   0   0   T    F  4.28D-01 0.00482108 0.00193635 0.02292408 0.00731821    0.0515331 ----
    80   0   0   F    T  2.32D+00 0.00235365 0.00125053 0.02006855 0.00731821    0.0514258 ----
    81   0   0   F    F -2.54D-01 0.00235365 0.00125053 0.00508959 0.00185597    0.0513899 ----
    82   0   0   F    T  2.32D+00 0.00220754 0.00103454 0.01373177 0.00546223    0.0513852 ----
    83   0   0   F    F  7.60D-01 0.00220754 0.00103454 0.01043964 0.00415269    0.0513317 ----
    84   0   0   F    T  1.84D+00 0.00315412 0.00151341 0.02576846 0.00961492    0.0513193 ----
    85   0   0   F    F  1.76D+00 0.00315412 0.00151341 0.04525897 0.01688737    0.0512163 ----
    86   0   0   F    F -1.59D-02 0.00315412 0.00151341 0.00071760 0.00026776    0.0511474 ---+
    87   0   0   F    T  2.81D+00 0.00518035 0.00203262 0.07478306 0.02623454    0.0511474 ----
    88   0   0   F    F -4.74D-01 0.00518035 0.00203262 0.03544402 0.01243407    0.0511290 ----
    89   0   0   F    T  1.31D+00 0.00650863 0.00211164 0.03719034 0.01380047    0.0510562 ----
    90   0   0   F    F  1.19D+00 0.00650863 0.00211164 0.04413304 0.01637675    0.0509174 ----
    91   0   0   F    F -7.38D-03 0.00650863 0.00211164 0.00032590 0.00012093    0.0508568 --++
    92   0   0   F    T  2.22D+00 0.00639613 0.00244035 0.08256273 0.03005628    0.0508568 ----
    93   0   0   F    F -1.50D-01 0.00639613 0.00244035 0.01239212 0.00451125    0.0506935 ----
    94   0   0   F    T  5.47D+00 0.00332242 0.00156284 0.07344658 0.02554503    0.0506882 ----
    95   0   0   F    F -1.73D-01 0.00332242 0.00156284 0.01272306 0.00442513    0.0505322 ----
    96   0   0   F    T  1.42D+00 0.00738111 0.00274670 0.05864601 0.02111990    0.0505254 ----
    97   0   0   F    F  6.18D-01 0.00738111 0.00274670 0.03621832 0.01304312    0.0502994 ----
    98   0   0   F    T  1.31D+00 0.01132519 0.00357870 0.09728262 0.03416302    0.0502598 ----
    99   0   0   F    F  1.07D-01 0.01132519 0.00357870 0.01042120 0.00365964    0.0499798 ----
   100   0   0   F    T  6.27D+00 0.00545349 0.00211598 0.11040108 0.03782267    0.0499771 ----
   101   0   0   T    F  3.48D-01 0.00545349 0.00211598 0.03845640 0.01317490    0.0503247 ----
   102   0   0   F    T  1.34D+00 0.00618697 0.00264747 0.03680456 0.01317490    0.0498314 ----
   103   0   0   F    F  4.27D-01 0.00618697 0.00264747 0.01573116 0.00563127    0.0496472 ----
   104   0   0   F    T  1.31D+00 0.00906889 0.00314807 0.05291235 0.01880617    0.0496288 ----
   105   0   0   F    F  7.26D-01 0.00906889 0.00314807 0.03843678 0.01366125    0.0493493 ----
   106   0   0   F    T  3.08D+00 0.00639659 0.00282524 0.09138380 0.03246742    0.0492884 ----
   107   0   0   F    F -3.84D-01 0.00639659 0.00282524 0.03508332 0.01246463    0.0491488 ----
   108   0   0   F    T  1.82D+00 0.00797101 0.00283150 0.05599953 0.02000280    0.0490640 ----
   109   0   0   F    F -1.38D-01 0.00797101 0.00283150 0.00771336 0.00275518    0.0488786 ----
   110   0   0   F    T  1.35D+00 0.00649898 0.00299731 0.04974578 0.01724762    0.0488736 ----
   111   0   0   F    F  5.70D-01 0.00649898 0.00299731 0.02836286 0.00983384    0.0486284 ----
   112   0   0   F    T  3.56D+00 0.00565971 0.00229728 0.08271601 0.02708145    0.0485922 ----
   113   0   0   F    F -4.10D-01 0.00565971 0.00229728 0.03394711 0.01111438    0.0485044 ----
   114   0   0   F    T  1.42D+00 0.00859292 0.00269109 0.05092831 0.01596707    0.0484289 ----
   115   0   0   F    T  1.58D+00 0.00695113 0.00251558 0.05292650 0.01596707    0.0482713 ----
   116   0   0   F    F  4.58D-01 0.00695113 0.00251558 0.02426155 0.00731932    0.0480707 ----
   117   0   0   F    T  2.59D+00 0.00519833 0.00250146 0.07685785 0.02328639    0.0480484 ----
   118   0   0   F    F -3.87D-01 0.00519833 0.00250146 0.02976651 0.00901866    0.0479576 ----
   119   0   0   F    T  1.28D+00 0.00872946 0.00270125 0.04706218 0.01426773    0.0479024 ----
   120   0   0   F    F  4.04D-01 0.00872946 0.00270125 0.01902525 0.00576784    0.0477202 ----
   121   0   0   F    T  1.62D+00 0.00642471 0.00274838 0.06352651 0.02003558    0.0477034 ----
   122   0   0   F    F  6.73D-01 0.00642471 0.00274838 0.04272677 0.01347556    0.0474427 ----
   123   0   0   F    F -1.51D-02 0.00642471 0.00274838 0.00064322 0.00020287    0.0473920 ---+
   124   0   0   F    T  2.79D+00 0.00815606 0.00286779 0.09663285 0.03330827    0.0473920 ----
   125   0   0   T    F  3.65D-01 0.00815606 0.00286779 0.03529886 0.01216713    0.0476119 ----
   126   0   0   F    T  1.68D+00 0.00654212 0.00207558 0.03331053 0.01216713    0.0472679 ----
   127   0   0   F    F  2.45D-01 0.00654212 0.00207558 0.00814762 0.00297603    0.0471390 ----
   128   0   0   F    T  2.17D+00 0.00484170 0.00190955 0.03874342 0.01514316    0.0471339 ----
   129   0   0   F    F  2.24D-01 0.00484170 0.00190955 0.00866435 0.00338653    0.0469929 ----
   130   0   0   F    T  1.42D+00 0.00599105 0.00257663 0.04458531 0.01852968    0.0469880 ----
   131   0   0   F    F -1.71D-01 0.00599105 0.00257663 0.00762624 0.00316947    0.0468759 ----
   132   0   0   F    T  2.35D+00 0.00363914 0.00179768 0.03802723 0.01536021    0.0468709 ----
   133   0   0   F    F -3.52D-01 0.00363914 0.00179768 0.01339710 0.00541145    0.0468191 ----
   134   0   0   F    T  2.41D+00 0.00355208 0.00138483 0.02536131 0.00994877    0.0467972 ----
   135   0   0   F    F -8.13D-02 0.00355208 0.00138483 0.00206171 0.00080877    0.0467336 ----
   136   0   0   F    T  1.12D+00 0.00561365 0.00192182 0.02145039 0.00914000    0.0467331 ----
   137   0   0   F    F  1.87D-01 0.00561365 0.00192182 0.00401237 0.00170967    0.0466618 ----
   138   0   0   F    T  3.90D+00 0.00281771 0.00107426 0.02343456 0.01084967    0.0466601 ----
   139   0   0   T    F  3.75D-01 0.00281771 0.00107426 0.00879099 0.00407003    0.0467049 ----
   140   0   0   F    T  2.35D+00 0.00194520 0.00079077 0.00870252 0.00407003    0.0466348 ----
   141   0   0   F    F -4.94D-01 0.00194520 0.00079077 0.00429953 0.00201082    0.0466343 ----
   142   0   0   F    T  1.11D+00 0.00162815 0.00078107 0.00359692 0.00205921    0.0466236 ----
   143   0   0   F    F  2.26D+00 0.00162815 0.00078107 0.00811324 0.00464476    0.0466064 ----
   144   0   0   F    T  2.45D+00 0.00223664 0.00092131 0.01208672 0.00670397    0.0465906 ----
   145   0   0   T    F  4.97D-01 0.00223664 0.00092131 0.00600354 0.00332990    0.0465910 ----
   146   0   0   F    T  1.65D+00 0.00190966 0.00076067 0.00627212 0.00332990    0.0465751 ----
   147   0   0   F    F -1.55D-01 0.00190966 0.00076067 0.00097305 0.00051659    0.0465634 ----
   148   0   0   F    T  1.66D+00 0.00215474 0.00066986 0.00585410 0.00281330    0.0465629 ----
   149   0   0   F    F  4.83D-01 0.00215474 0.00066986 0.00282607 0.00135812    0.0465482 ----
   150   0   0   F    T  2.22D+00 0.00193142 0.00068058 0.00977471 0.00417143    0.0465464 ----
   151   0   0   F    F -4.47D-01 0.00193142 0.00068058 0.00436479 0.00186270    0.0465434 ----
   152   0   0   F    T  1.42D+00 0.00148765 0.00060882 0.00557997 0.00230872    0.0465379 ----
   153   0   0   F    T  3.31D+00 0.00100713 0.00038503 0.00484324 0.00230872    0.0465296 ----
   154   0   0   F    F -3.39D-01 0.00100713 0.00038503 0.00164158 0.00078253    0.0465259 ----
   155   0   0   F    T  1.02D+00 0.00142913 0.00053561 0.00282136 0.00152620    0.0465245 ----
   156   0   0   F    F  5.89D-01 0.00142913 0.00053561 0.00166057 0.00089827    0.0465185 ----
   157   0   0   F    T  1.75D+00 0.00134017 0.00051543 0.00490408 0.00242447    0.0465176 ----
   158   0   0   F    F  1.27D-01 0.00134017 0.00051543 0.00062262 0.00030781    0.0465098 ----
   159   0   0   F    T  2.41D+00 0.00105012 0.00044778 0.00511184 0.00273228    0.0465097 ----
   160   0   0   F    F -4.59D-01 0.00105012 0.00044778 0.00234455 0.00125316    0.0465086 ----
   161   0   0   F    T  1.23D+00 0.00105998 0.00044466 0.00283082 0.00147912    0.0465058 ----
   162   0   0   F    F  5.63D-01 0.00105998 0.00044466 0.00159508 0.00083344    0.0465008 ----
   163   0   0   F    T  1.96D+00 0.00118283 0.00042460 0.00415065 0.00231256    0.0465001 ----
   164   0   0   F    T  2.16D+00 0.00141952 0.00039857 0.00393982 0.00231256    0.0464945 ----
   165   0   0   F    F -4.87D-01 0.00141952 0.00039857 0.00191970 0.00112681    0.0464942 ----
   166   0   0   F    T  1.33D+00 0.00101472 0.00033431 0.00202757 0.00118575    0.0464917 ----
   167   0   0   F    F  1.11D+00 0.00101472 0.00033431 0.00226020 0.00132179    0.0464883 ----
   168   0   0   F    T  2.66D+00 0.00073482 0.00034800 0.00450741 0.00250754    0.0464870 ----
   169   0   0   T    F  4.75D-01 0.00073482 0.00034800 0.00214039 0.00119073    0.0464875 ----
   170   0   0   F    T  1.44D+00 0.00105729 0.00031344 0.00286110 0.00119073    0.0464847 ----
   171   0   0   F    T  1.90D+00 0.00050754 0.00025682 0.00327455 0.00119073    0.0464826 ----
   172   0   0   F    F  8.27D-01 0.00050754 0.00025682 0.00270864 0.00098495    0.0464800 ----
   173   0   0   F    T  1.23D+00 0.00115341 0.00043002 0.00587839 0.00217569    0.0464793 ----
   174   0   0   F    F  4.79D-01 0.00115341 0.00043002 0.00281814 0.00104304    0.0464748 ----
   175   0   0   F    T  1.39D+00 0.00132399 0.00047865 0.00928139 0.00321873    0.0464742 ----
   176   0   0   F    T  4.21D+00 0.00064449 0.00026612 0.00939047 0.00321873    0.0464694 ----
   177   0   0   F    F -4.77D-01 0.00064449 0.00026612 0.00448146 0.00153609    0.0464690 ----
   178   0   0   F    T  1.03D+00 0.00116623 0.00038304 0.00450336 0.00168264    0.0464671 ----
   179   0   0   F    F  7.82D-01 0.00116623 0.00038304 0.00352182 0.00131590    0.0464638 ----
   180   0   0   F    T  1.51D+00 0.00096123 0.00042039 0.00807561 0.00299853    0.0464630 ----
   181   0   0   F    F  7.66D-01 0.00096123 0.00042039 0.00618462 0.00229639    0.0464573 ----
   182   0   0   F    T  2.70D+00 0.00113928 0.00041318 0.01484228 0.00529493    0.0464559 ----
   183   0   0   T    F  4.59D-01 0.00113928 0.00041318 0.00681229 0.00243026    0.0464572 ----
   184   0   0   F    T  1.27D+00 0.00139739 0.00040289 0.00647178 0.00243026    0.0464528 ----
   185   0   0   F    F  7.94D-01 0.00139739 0.00040289 0.00514123 0.00193062    0.0464483 ----
   186   0   0   F    T  1.95D+00 0.00137849 0.00043104 0.01198434 0.00436087    0.0464472 ----
   187   0   0   F    F -4.63D-02 0.00137849 0.00043104 0.00055528 0.00020206    0.0464421 ---+
   188   0   0   F    T  2.47D+00 0.00091332 0.00036462 0.01290710 0.00415882    0.0464421 ----
   189   0   0   T    F  4.23D-01 0.00091332 0.00036462 0.00545500 0.00175767    0.0464439 ----
   190   0   0   F    T  1.69D+00 0.00089455 0.00028248 0.00564221 0.00175767    0.0464400 ----
   191   0   0   F    F  1.38D-01 0.00089455 0.00028248 0.00078000 0.00024298    0.0464377 ---+
   192   0   0   F    T  2.33D+00 0.00051227 0.00025177 0.00657734 0.00200065    0.0464377 ----
   193   0   0   F    F  5.37D-02 0.00051227 0.00025177 0.00035331 0.00010747    0.0464354 --++
   194   0   0   F    T  1.09D+00 0.00100421 0.00037342 0.00732556 0.00210812    0.0464354 ----
   195   0   0   F    F  1.62D-01 0.00100421 0.00037342 0.00118734 0.00034169    0.0464327 ----
   196   0   0   F    T  3.30D+00 0.00050153 0.00022748 0.00793242 0.00244980    0.0464327 ----
   197   0   0   F    F -2.02D-01 0.00050153 0.00022748 0.00159968 0.00049404    0.0464308 ----
   198   0   0   F    T  1.38D+00 0.00071496 0.00031183 0.00574505 0.00195577    0.0464306 ----
   199   0   0   F    T  1.68D+00 0.00073523 0.00027052 0.00585464 0.00195577    0.0464287 ----
   200   0   0   F    F -1.05D-01 0.00073523 0.00027052 0.00061348 0.00020493    0.0464271 ---+
   201   0   0   F    T  3.35D+00 0.00066955 0.00018876 0.00518125 0.00175083    0.0464271 ----
   202   0   0   T    F  4.85D-01 0.00066955 0.00018876 0.00251290 0.00084915    0.0464272 ----
   203   0   0   F    T  1.22D+00 0.00067754 0.00021162 0.00221276 0.00084915    0.0464263 ----
   204   0   0   F    F  4.44D-01 0.00067754 0.00021162 0.00098286 0.00037717    0.0464252 ----
   205   0   0   F    T  1.49D+00 0.00060070 0.00022562 0.00328657 0.00122632    0.0464251 ----
   206   0   0   F    F  4.89D-01 0.00060070 0.00022562 0.00160817 0.00060006    0.0464236 ----
   207   0   0   F    T  2.95D+00 0.00063553 0.00019004 0.00516178 0.00182638    0.0464234 ----
   208   0   0   T    F  4.91D-01 0.00063553 0.00019004 0.00253228 0.00089599    0.0464234 ----
   209   0   0   F    T  1.01D+00 0.00060768 0.00022465 0.00228317 0.00089599    0.0464226 ----
   210   0   0   F    F  1.61D+00 0.00060768 0.00022465 0.00366827 0.00143955    0.0464214 ----
   211   0   0   F    T  2.18D+00 0.00054530 0.00024455 0.00571877 0.00233555    0.0464206 ----
   212   0   0   F    T  1.69D+00 0.00075793 0.00027250 0.00605930 0.00233555    0.0464187 ----
   213   0   0   F    F -4.02D-01 0.00075793 0.00027250 0.00243343 0.00093796    0.0464181 ----
   214   0   0   F    T  2.33D+00 0.00044079 0.00017799 0.00330340 0.00139759    0.0464176 ----
   215   0   0   F    T  1.50D+00 0.00052883 0.00021851 0.00309669 0.00139759    0.0464164 ----
   216   0   0   F    F  6.59D-01 0.00052883 0.00021851 0.00204052 0.00092092    0.0464149 ----
   217   0   0   F    T  1.28D+00 0.00075109 0.00030100 0.00548398 0.00231851    0.0464146 ----
   218   0   0   F    F -1.07D-01 0.00075109 0.00030100 0.00058679 0.00024808    0.0464131 ---+
   219   0   0   F    T  3.31D+00 0.00037756 0.00017669 0.00473051 0.00207043    0.0464131 ----
   220   0   0   F    F -1.54D-01 0.00037756 0.00017669 0.00072724 0.00031829    0.0464118 ----
   221   0   0   F    T  1.29D+00 0.00073411 0.00025860 0.00387175 0.00175213    0.0464118 ----
   222   0   0   F    T  1.99D+00 0.00047383 0.00021185 0.00391041 0.00175213    0.0464104 ----
   223   0   0   F    F -1.45D-01 0.00047383 0.00021185 0.00056854 0.00025475    0.0464092 ---+
   224   0   0   F    T  2.68D+00 0.00038487 0.00014980 0.00363068 0.00149739    0.0464092 ----
   225   0   0   F    F -3.16D-01 0.00038487 0.00014980 0.00114737 0.00047320    0.0464087 ----
   226   0   0   F    T  1.29D+00 0.00066900 0.00017947 0.00254223 0.00102418    0.0464086 ----
   227   0   0   F    T  2.42D+00 0.00040214 0.00013863 0.00234549 0.00102418    0.0464079 ----
   228   0   0   F    F -2.14D-01 0.00040214 0.00013863 0.00050184 0.00021913    0.0464074 ---+
   229   0   0   F    T  2.13D+00 0.00032926 0.00011704 0.00200930 0.00080505    0.0464073 ----
   230   0   0   F    F -2.57D-01 0.00032926 0.00011704 0.00051682 0.00020707    0.0464070 ---+
   231   0   0   F    T  1.10D+00 0.00035469 0.00014112 0.00160074 0.00059798    0.0464070 ----
   232   0   0   F    F  8.33D-01 0.00035469 0.00014112 0.00133371 0.00049823    0.0464065 ----
   233   0   0   F    T  2.25D+00 0.00040143 0.00013119 0.00294120 0.00109620    0.0464064 ----
   234   0   0   F    T  1.69D+00 0.00035938 0.00014692 0.00296248 0.00109620    0.0464058 ----
   235   0   0   F    F -4.99D-01 0.00035938 0.00014692 0.00147790 0.00054686    0.0464058 ----
   236   0   0   F    T  3.77D+00 0.00025941 0.00007635 0.00144803 0.00054934    0.0464056 ----
   237   0   0   T    F  4.82D-01 0.00025941 0.00007635 0.00069831 0.00026492    0.0464056 ---+
   238   0   0   F    T  1.70D+00 0.00015881 0.00007346 0.00063815 0.00026492    0.0464054 -+-+
   239   0   0   F    T  1.12D+00 0.00021341 0.00008488 0.00066542 0.00026492    0.0464053 ---+
   240   0   0   F    T  3.58D+00 0.00016246 0.00006617 0.00058551 0.00026492    0.0464052 -+-+
   241   0   0   T    T  1.00D+00 0.00052157 0.00021795 0.00052157 0.00021795    0.0464055 ---+
   242   0   0   T    F  5.00D-01 0.00052157 0.00021795 0.00026078 0.00010897    0.0464067 --++
   243   0   0   T    F  5.00D-01 0.00052157 0.00021795 0.00013039 0.00005449    0.0464056 --++
   244   0   0   T    F  5.00D-01 0.00052157 0.00021795 0.00006520 0.00002724    0.0464053 --++
   245   0   0   T    F  5.00D-01 0.00052157 0.00021795 0.00003260 0.00001362    0.0464052 --++
   246   0   0   T    F  5.00D-01 0.00052157 0.00021795 0.00001630 0.00000681    0.0464052 --++
   247   0   0   T    F  5.00D-01 0.00052157 0.00021795 0.00000815 0.00000341    0.0464052 --++
   248   0   0   T    F  5.00D-01 0.00052157 0.00021795 0.00000407 0.00000170    0.0464052 --++
   249   0   0   T    F  5.00D-01 0.00052157 0.00021795 0.00000204 0.00000085    0.0464052 --++
   250   0   0   T    F  5.00D-01 0.00052157 0.00021795 0.00000102 0.00000043    0.0464052 --++
   251   0   0   T    F  5.00D-01 0.00052157 0.00021795 0.00000051 0.00000021    0.0464052 --++
   252   0   0   T    T  1.00D+00 0.00016270 0.00006641 0.00010342 0.00004312    0.0464052 -+++
   253   0   0   F    T  1.00D+00 0.00016493 0.00006556 0.00015902 0.00006495    0.0464051 -+++
   254   0   0   F    T  1.24D+00 0.00010720 0.00004635 0.00014502 0.00006495    0.0464051 ====
 ****************************
 MOLECULAR MECHANICS FUNCTION
 ****************************
 Atomic parameters:
 Center  VDW
      1 1.9080 0.0860000
      2 1.7210 0.2104000
      3 1.9080 0.1094000
      4 1.4870 0.0157000
      5 1.4870 0.0157000
      6 1.8750 0.1700000
      7 0.6000 0.0157000
      8 0.6000 0.0157000
      9 1.6612 0.2100000
     10 0.0000 0.0000000
 Molecular mechanics terms:
 NBDir 3 1      0      0
 HrmStr1  1- 2  431.53 1.3510
 HrmStr1  1- 3  294.15 1.5090
 HrmStr1  1- 9  946.08 1.2030
 HrmStr1  2-10  566.76 0.9680
 HrmStr1  3- 4  358.05 1.0960
 HrmStr1  3- 5  358.05 1.0960
 HrmStr1  3- 6  380.82 1.4520
 HrmStr1  6- 7  506.01 1.0110
 HrmStr1  6- 8  506.01 1.0110
 HrmBnd1  1- 2-10  56.55 107.23
 HrmBnd1  1- 3- 4  46.41 106.89
 HrmBnd1  1- 3- 5  46.41 106.89
 HrmBnd1  1- 3- 6  59.93 110.61
 HrmBnd1  2- 1- 3  67.92 111.72
 HrmBnd1  2- 1- 9  91.40 123.02
 HrmBnd1  3- 1- 9  62.83 125.24
 HrmBnd1  3- 6- 7  52.60 110.71
 HrmBnd1  3- 6- 8  52.60 110.71
 HrmBnd1  4- 3- 5  44.68 106.22
 HrmBnd1  4- 3- 6  52.45 112.94
 HrmBnd1  5- 3- 6  52.45 112.94
 HrmBnd1  7- 6- 8  47.09 108.63
 AmbTrs  3- 1- 2-10   0 180   0   0  0.0000 14.5000  0.0000  0.0000  2.0
 AmbTrs  9- 1- 2-10   0   0   0   0  0.0000 14.5000  0.0000  0.0000  2.0
 AmbTrs  2- 1- 3- 4   0   0   0   0  0.0000 14.5000  0.0000  0.0000  6.0
 AmbTrs  2- 1- 3- 5   0   0   0   0  0.0000 14.5000  0.0000  0.0000  6.0
 AmbTrs  2- 1- 3- 6   0   0   0   0  0.0000 14.5000  0.0000  0.0000  6.0
 AmbTrs  9- 1- 3- 4   0   0   0   0  0.0000 14.5000  0.0000  0.0000  6.0
 AmbTrs  9- 1- 3- 5   0   0   0   0  0.0000 14.5000  0.0000  0.0000  6.0
 AmbTrs  9- 1- 3- 6   0   0   0   0  0.0000 14.5000  0.0000  0.0000  6.0
 AmbTrs  1- 3- 6- 7   0 180   0   0  0.0000 25.6300  0.0000  0.0000  6.0
 AmbTrs  1- 3- 6- 8   0 180   0   0  0.0000 25.6300  0.0000  0.0000  6.0
 AmbTrs  4- 3- 6- 7   0   0   0   0  0.0000 16.9300  0.0000  0.0000  6.0
 AmbTrs  4- 3- 6- 8   0   0   0   0  0.0000 16.9300  0.0000  0.0000  6.0
 AmbTrs  5- 3- 6- 7   0   0   0   0  0.0000 16.9300  0.0000  0.0000  6.0
 AmbTrs  5- 3- 6- 8   0   0   0   0  0.0000 16.9300  0.0000  0.0000  6.0
 NBPair  2- 1 3 1      0      0 -1.000 -1.000
 NBPair  3- 2 3 1      0      0 -1.000 -1.000
 NBPair 10- 3 3 1      0      0 -0.500 -0.167
 NBPair  9- 2 3 1      0      0 -1.000 -1.000
 NBPair 10- 9 3 1      0      0 -0.500 -0.167
 NBPair  3- 1 3 1      0      0 -1.000 -1.000
 NBPair  4- 2 3 1      0      0 -0.500 -0.167
 NBPair  5- 2 3 1      0      0 -0.500 -0.167
 NBPair  6- 2 3 1      0      0 -0.500 -0.167
 NBPair  9- 3 3 1      0      0 -1.000 -1.000
 NBPair  9- 4 3 1      0      0 -0.500 -0.167
 NBPair  9- 5 3 1      0      0 -0.500 -0.167
 NBPair  9- 6 3 1      0      0 -0.500 -0.167
 NBPair  9- 1 3 1      0      0 -1.000 -1.000
 NBPair 10- 1 3 1      0      0 -1.000 -1.000
 NBPair 10- 2 3 1      0      0 -1.000 -1.000
 NBPair  4- 1 3 1      0      0 -1.000 -1.000
 NBPair  5- 1 3 1      0      0 -1.000 -1.000
 NBPair  6- 1 3 1      0      0 -1.000 -1.000
 NBPair  4- 3 3 1      0      0 -1.000 -1.000
 NBPair  5- 4 3 1      0      0 -1.000 -1.000
 NBPair  6- 4 3 1      0      0 -1.000 -1.000
 NBPair  5- 3 3 1      0      0 -1.000 -1.000
 NBPair  6- 5 3 1      0      0 -1.000 -1.000
 NBPair  6- 3 3 1      0      0 -1.000 -1.000
 NBPair  7- 1 3 1      0      0 -0.500 -0.167
 NBPair  8- 1 3 1      0      0 -0.500 -0.167
 NBPair  7- 4 3 1      0      0 -0.500 -0.167
 NBPair  8- 4 3 1      0      0 -0.500 -0.167
 NBPair  7- 5 3 1      0      0 -0.500 -0.167
 NBPair  8- 5 3 1      0      0 -0.500 -0.167
 NBPair  7- 3 3 1      0      0 -1.000 -1.000
 NBPair  8- 3 3 1      0      0 -1.000 -1.000
 NBPair  7- 6 3 1      0      0 -1.000 -1.000
 NBPair  8- 7 3 1      0      0 -1.000 -1.000
 NBPair  8- 6 3 1      0      0 -1.000 -1.000
 Energy per function type:
 Direct Coulomb + vdW (small)                           0.003842554
 Direct Coulomb (large)                                -0.131910598
 Direct vdW (large)                                   268.380076026
 Non-direct Coulomb + vdW (small)                      -0.012129697
 Non-direct Coulomb (large)                             0.138195910
 Non-direct vdW (large)                              -268.380076026
 Harmonic stretch I                                     0.000126175
 Harmonic bend I                                        0.010066217
 Amber torsion                                          0.038214518
 Energy per function class:
        Coulomb              -0.003811450
    Vanderwaals               0.001809619
     Stretching               0.000126175
        Bending               0.010066217
        Torsion               0.038214518
 Energy=    4.640507911E-02 NIter=   0.
 Dipole moment=       0.522688      -0.123642      -0.356468
 Leave Link  402 at Tue Nov 28 09:32:13 2023, MaxMem=   134217728 cpu:               0.4 elap:               0.4
 (Enter /home/emanuele/chem_software/gaussian//gdv/l716.exe)
 Dipole        = 5.22688438D-01-1.23642136D-01-3.56467649D-01
 -------------------------------------------------------------------
 Center     Atomic                   Forces (Hartrees/Bohr)
 Number     Number              X              Y              Z
 -------------------------------------------------------------------
      1        6          -0.000105024    0.000104744    0.000090065
      2        8           0.000003540   -0.000028844   -0.000004941
      3        6           0.000018614   -0.000034950    0.000001046
      4        1          -0.000037333   -0.000015069   -0.000016021
      5        1           0.000030245   -0.000019639    0.000006481
      6        7          -0.000016648   -0.000004663   -0.000017415
      7        1           0.000006000    0.000041399   -0.000014240
      8        1           0.000016809   -0.000005730    0.000032487
      9        8           0.000107199   -0.000024686   -0.000105586
     10        1          -0.000023402   -0.000012561    0.000028124
 -------------------------------------------------------------------
 Cartesian Forces:  Max     0.000107199 RMS     0.000046347
 Z-matrix is all fixed cartesians, so copy forces.
 Leave Link  716 at Tue Nov 28 09:32:13 2023, MaxMem=   134217728 cpu:               0.0 elap:               0.0
 (Enter /home/emanuele/chem_software/gaussian//gdv/l103.exe)

 GradGradGradGradGradGradGradGradGradGradGradGradGradGradGradGradGradGrad
 Berny optimization.
 Search for a local minimum.
 Step number   1 out of a maximum of    2
 All quantities printed in internal units (Hartrees-Bohrs-Radians)
 RMS Force = .46347D-04 SwitMx=.10000D-02 MixMth= 2
 Mixed Optimization -- En-DIIS/RFO-DIIS
 Second derivative matrix not updated -- unit matrix used.
 ITU=  0
 RFO step:  Lambda=-6.44424227D-08 EMin= 1.00000000D+00
 Linear search not attempted -- first point.
 Variable       Old X    -DE/DX   Delta X   Delta X   Delta X     New X
                                 (Linear)    (Quad)   (Total)
    X1       -1.25223  -0.00011   0.00000  -0.00011  -0.00011  -1.25233
    Y1        0.00437   0.00010   0.00000   0.00010   0.00010   0.00448
    Z1        0.28899   0.00009   0.00000   0.00009   0.00009   0.28908
    X2       -1.95171   0.00000   0.00000   0.00000   0.00000  -1.95171
    Y2       -1.88242  -0.00003   0.00000  -0.00003  -0.00003  -1.88244
    Z2       -1.28073  -0.00000   0.00000  -0.00000  -0.00000  -1.28074
    X3        1.39460   0.00002   0.00000   0.00002   0.00002   1.39462
    Y3       -0.55627  -0.00003   0.00000  -0.00003  -0.00003  -0.55631
    Z3        1.26889   0.00000   0.00000   0.00000   0.00000   1.26889
    X4        1.47205  -0.00004   0.00000  -0.00004  -0.00004   1.47201
    Y4        0.48445  -0.00002   0.00000  -0.00002  -0.00002   0.48443
    Z4        3.06064  -0.00002   0.00000  -0.00002  -0.00002   3.06063
    X5        1.39856   0.00003   0.00000   0.00003   0.00003   1.39859
    Y5       -2.58345  -0.00002   0.00000  -0.00002  -0.00002  -2.58347
    Z5        1.70628   0.00001   0.00000   0.00001   0.00001   1.70628
    X6        3.28713  -0.00002   0.00000  -0.00002  -0.00002   3.28711
    Y6        0.31006  -0.00000   0.00000  -0.00000  -0.00000   0.31005
    Z6       -0.54070  -0.00002   0.00000  -0.00002  -0.00002  -0.54072
    X7        2.74297   0.00001   0.00000   0.00001   0.00001   2.74297
    Y7        0.95903   0.00004   0.00000   0.00004   0.00004   0.95907
    Z7       -2.25445  -0.00001   0.00000  -0.00001  -0.00001  -2.25447
    X8        5.13975   0.00002   0.00000   0.00002   0.00002   5.13977
    Y8       -0.04468  -0.00001   0.00000  -0.00001  -0.00001  -0.04469
    Z8       -0.23214   0.00003   0.00000   0.00003   0.00003  -0.23210
    X9       -2.79335   0.00011   0.00000   0.00011   0.00011  -2.79325
    Y9        0.85260  -0.00002   0.00000  -0.00002  -0.00002   0.85257
    Z9        1.72757  -0.00011   0.00000  -0.00011  -0.00011   1.72747
   X10       -3.23563  -0.00002   0.00000  -0.00002  -0.00002  -3.23566
   Y10       -1.17874  -0.00001   0.00000  -0.00001  -0.00001  -1.17876
   Z10       -2.37439   0.00003   0.00000   0.00003   0.00003  -2.37436
         Item               Value     Threshold  Converged?
 Maximum Force            0.000107     0.000450     YES
 RMS     Force            0.000046     0.000300     YES
 Maximum Displacement     0.000107     0.001800     YES
 RMS     Displacement     0.000046     0.001200     YES
 Predicted change in Energy=-3.222121D-08
 Optimization completed.
    -- Stationary point found.
 Largest change from initial coordinates is atom    2       0.504 Angstoms.
 GradGradGradGradGradGradGradGradGradGradGradGradGradGradGradGradGradGrad

 Leave Link  103 at Tue Nov 28 09:32:13 2023, MaxMem=   134217728 cpu:               0.0 elap:               0.0
 (Enter /home/emanuele/chem_software/gaussian//gdv/l202.exe)
                          Input orientation:                          
 ---------------------------------------------------------------------
 Center     Atomic      Atomic             Coordinates (Angstroms)
 Number     Number       Type             X           Y           Z
 ---------------------------------------------------------------------
      1          6    20001002       -0.662650    0.002315    0.152926
      2          8    20001022       -1.032800   -0.996131   -0.677735
      3          6    20001001        0.737990   -0.294367    0.671468
      4          1    20001034        0.778975    0.256357    1.619623
      5          1    20001034        0.740088   -1.367104    0.902922
      6          7    20001020        1.739472    0.164076   -0.286126
      7          1    20001029        1.451516    0.507499   -1.193005
      8          1    20001029        2.719838   -0.023645   -0.122841
      9          8    20001025       -1.478180    0.451176    0.914193
     10          1    20001031       -1.712224   -0.623765   -1.256474
 ---------------------------------------------------------------------
                    Distance matrix (angstroms):
                    1          2          3          4          5
     1  C    0.000000
     2  O    1.350520   0.000000
     3  C    1.522727   2.334207   0.000000
     4  H    2.072202   3.182627   1.097259   0.000000
     5  H    2.098922   2.404003   1.097424   1.775049   0.000000
     6  N    2.447269   3.030666   1.459494   2.136106   2.181081
     7  H    2.556646   2.949277   2.151364   2.902803   2.900547
     8  H    3.393810   3.916112   2.152194   2.623268   2.603168
     9  O    1.202536   2.197111   2.350779   2.372832   2.868271
    10  H    1.865473   0.967063   3.135125   3.905461   3.351026
                    6          7          8          9         10
     6  N    0.000000
     7  H    1.011577   0.000000
     8  H    1.011444   1.742414   0.000000
     9  O    3.446226   3.609234   4.350201   0.000000
    10  H    3.671032   3.360511   4.613940   2.433530   0.000000
 Symmetry turned off by external request.
 Stoichiometry    C2H5NO2
 Framework group  C1[X(C2H5NO2)]
 Deg. of freedom    24
 Full point group                 C1      NOp   1
 Rotational constants (GHZ):           9.5220728           3.9037832           3.1066156
 Leave Link  202 at Tue Nov 28 09:32:13 2023, MaxMem=   134217728 cpu:               0.0 elap:               0.0
 (Enter /home/emanuele/chem_software/gaussian//gdv/l9999.exe)
 Unable to Open any file for archive entry.
 1\1\GINC-EMANUELE-XPS-13-9343\FOpt\AMBER\ZDO\C2H5N1O2\EMANUELE\28-Nov-
 2023\0\\#p Amber=(SoftFirst,Print) geom=nocrowd nosymm opt=(maxcycle=3
 00)\\Title\\0,1\C,-0.6626498346,0.0023148797,0.1529264652\O,-1.0328003
 823,-0.9961313514,-0.6777353062\C,0.7379901019,-0.2943674096,0.6714679
 361\H,0.7789749351,0.2563574273,1.6196234422\H,0.7400878129,-1.3671039
 136,0.902922115\N,1.7394721613,0.1640761828,-0.2861255752\H,1.45151562
 12,0.5074986879,-1.1930052033\H,2.7198383957,-0.0236447792,-0.12284140
 23\O,-1.4781798032,0.4511761487,0.9141932201\H,-1.7122240081,-0.623764
 8724,-1.2564736915\\Version=ES64L-GDVRevJ.14\HF=0.0464051\RMSD=0.000e+
 00\RMSF=4.635e-05\Dipole=0.5226884,-0.1236421,-0.3564676\PG=C01 [X(C2H
 5N1O2)]\\@
 The archive entry for this job was punched.


 PATIENCE IS THE ABILITY TO IDLE YOUR MOTOR WHEN
 YOU FEEL LIKE STRIPPING YOUR GEARS.
 Job cpu time:       0 days  0 hours  0 minutes  0.9 seconds.
 Elapsed time:       0 days  0 hours  0 minutes  0.9 seconds.
 File lengths (MBytes):  RWF=      6 Int=      0 D2E=      0 Chk=      1 Scr=      1
 Normal termination of Gaussian DV at Tue Nov 28 09:32:13 2023.
