 Entering Gaussian System, Link 0=/home/emanuele/chem_software/gaussian//g09/g09
 Input=4_mm_40.gjf
 Output=4_mm_40.log
 Initial command:
 /home/emanuele/chem_software/gaussian//gdv/l1.exe "/home/emanuele/chem_software/gaussian/scratch/Gau-4569.inp" -scrdir="/home/emanuele/chem_software/gaussian/scratch/"
 Entering Link 1 = /home/emanuele/chem_software/gaussian//gdv/l1.exe PID=      4571.
  
 Copyright (c) 1988-2020, Gaussian, Inc.  All Rights Reserved.
  
 This is the private, development version of
 the Gaussian(R) DV system of programs. It is based on
 the Gaussian(R) 16 system (copyright 2016, Gaussian, Inc.),
 the Gaussian(R) 09 system (copyright 2009, Gaussian, Inc.),
 the Gaussian(R) 03 system (copyright 2003, Gaussian, Inc.),
 the Gaussian(R) 98 system (copyright 1998, Gaussian, Inc.),
 the Gaussian(R) 94 system (copyright 1995, Gaussian, Inc.),
 the Gaussian 92(TM) system (copyright 1992, Gaussian, Inc.),
 the Gaussian 90(TM) system (copyright 1990, Gaussian, Inc.),
 the Gaussian 88(TM) system (copyright 1988, Gaussian, Inc.),
 the Gaussian 86(TM) system (copyright 1986, Carnegie Mellon
 University), and the Gaussian 82(TM) system (copyright 1983,
 Carnegie Mellon University). Gaussian is a federally registered
 trademark of Gaussian, Inc.
  
 This software contains proprietary and confidential information,
 including trade secrets, belonging to Gaussian, Inc.
  
 This software is provided under written license and may be
 used, copied, transmitted, or stored only in accord with that
 written license.
  
 The following legend is applicable only to US Government
 contracts under FAR:
  
                    RESTRICTED RIGHTS LEGEND
  
 Use, reproduction and disclosure by the US Government is
 subject to restrictions as set forth in subparagraphs (a)
 and (c) of the Commercial Computer Software - Restricted
 Rights clause in FAR 52.227-19.
  
 Gaussian, Inc.
 340 Quinnipiac St., Bldg. 40, Wallingford CT 06492
  
  
 ---------------------------------------------------------------
 Warning -- This program may not be used in any manner that
 competes with the business of Gaussian, Inc. or will provide
 assistance to any competitor of Gaussian, Inc.  The licensee
 of this program is prohibited from giving any competitor of
 Gaussian, Inc. access to this program.  By using this program,
 the user acknowledges that Gaussian, Inc. is engaged in the
 business of creating and licensing software in the field of
 computational chemistry and represents and warrants to the
 licensee that it is not a competitor of Gaussian, Inc. and that
 it will not use this program in any manner prohibited above.
 ---------------------------------------------------------------
  

 Cite this work as:
 Gaussian Development Version, Revision J.14,
 M. J. Frisch, G. W. Trucks, H. B. Schlegel, G. E. Scuseria, 
 M. A. Robb, J. R. Cheeseman, G. Scalmani, V. Barone, 
 G. A. Petersson, H. Nakatsuji, X. Li, A. V. Marenich, M. Caricato, 
 J. Bloino, B. G. Janesko, J. Zheng, R. Gomperts, B. Mennucci, 
 H. P. Hratchian, J. V. Ortiz, A. F. Izmaylov, J. L. Sonnenberg, 
 D. Williams-Young, F. Ding, F. Lipparini, F. Egidi, J. Goings, 
 B. Peng, A. Petrone, T. Henderson, D. Ranasinghe, V. G. Zakrzewski, 
 J. Gao, N. Rega, G. Zheng, W. Liang, M. Hada, M. Ehara, K. Toyota, 
 R. Fukuda, J. Hasegawa, M. Ishida, T. Nakajima, Y. Honda, O. Kitao, 
 H. Nakai, T. Vreven, K. Throssell, J. A. Montgomery, Jr., 
 J. E. Peralta, F. Ogliaro, M. J. Bearpark, J. J. Heyd, 
 E. N. Brothers, K. N. Kudin, V. N. Staroverov, T. A. Keith, 
 R. Kobayashi, J. Normand, K. Raghavachari, A. P. Rendell, 
 J. C. Burant, S. S. Iyengar, J. Tomasi, M. Cossi, J. M. Millam, 
 M. Klene, C. Adamo, R. Cammi, J. W. Ochterski, R. L. Martin, 
 K. Morokuma, O. Farkas, J. B. Foresman, and D. J. Fox, 
 Gaussian, Inc., Wallingford CT, 2020.
 
 ******************************************
 Gaussian DV:  ES64L-GDVRevJ.14 29-Dec-2020
                28-Nov-2023 
 ******************************************
 %mem=1GB
 %nprocshared=1
 Will use up to    1 processors via shared memory.
 %chk=4_mm_40.chk
 -----------------------------------------------------------------
 #p Amber=(SoftFirst,Print) geom=nocrowd nosymm opt=(maxcycle=300)
 -----------------------------------------------------------------
 1/6=300,10=10,18=4000020,19=15,37=210000000,38=1,56=2,64=203/1,3;
 2/9=110,12=1,15=1,40=1/2;
 3/5=30,11=9,25=1,30=1,41=10030000,43=2,71=1/1;
 4/20=11,22=1001,24=3,119=11/2;
 7/30=1,44=-1/16;
 1/6=300,10=10,18=4000020,19=15,64=203/3(2);
 2/9=110,12=1,15=1/2;
 99//99;
 2/9=110,12=1,15=1/2;
 3/5=30,11=9,25=1,30=1,41=10030000,43=2,71=1/1;
 4/16=2,20=11,22=1001,24=3,119=11/2;
 7/30=1,44=-1/16;
 1/6=300,10=10,18=4000020,19=15,64=203/3(-4);
 2/9=110,12=1,15=1/2;
 99/9=10/99;
 Leave Link    1 at Tue Nov 28 09:32:08 2023, MaxMem=   134217728 cpu:               0.0 elap:               0.0
 (Enter /home/emanuele/chem_software/gaussian//gdv/l101.exe)
 -----
 Title
 -----
 Symbolic Z-matrix:
 Charge =  0 Multiplicity = 1
 C-C-+0.299289        -0.6389    0.01936   0.34583 
 O-OH--0.289770       -0.83109  -0.34001  -0.97121 
 C-CT--0.035454        0.7623   -0.35458   0.7831 
 H-HC-+0.090426        1.14093  -0.21085   1.82848 
 H-HC-+0.095387        0.62096  -1.44922   0.61683 
 N-N3--0.336253        1.70093   0.28434  -0.17717 
 H-H-+0.142619         2.47908  -0.38028  -0.26662 
 H-H-+0.128282         1.31674   0.08181  -1.10125 
 O-O2--0.308037       -1.53876   0.51044   0.97919 
 H-HO-+0.213510       -1.73016  -0.08461  -1.31223 
 
 ITRead=  3  3  3  3  3  3  3  3  3  3
 MicOpt=  0  0  0  0  0  0  0  0  0  0
 NAtoms=     10 NQM=        0 NQMF=       0 NMMI=      0 NMMIF=      0
                NMic=      10 NMicF=      0.
                    Isotopes and Nuclear Properties:
 (Nuclear quadrupole moments (NQMom) in fm**2, nuclear magnetic moments (NMagM)
  in nuclear magnetons)

  Atom         1           2           3           4           5           6           7           8           9          10
 IAtWgt=          12          16          12           1           1          14           1           1          16           1
 AtmWgt=  12.0000000  15.9949146  12.0000000   1.0078250   1.0078250  14.0030740   1.0078250   1.0078250  15.9949146   1.0078250
 NucSpn=           0           0           0           1           1           2           1           1           0           1
 AtZEff=  -0.0000000  -0.0000000  -0.0000000  -0.0000000  -0.0000000  -0.0000000  -0.0000000  -0.0000000  -0.0000000  -0.0000000
 NQMom=    0.0000000   0.0000000   0.0000000   0.0000000   0.0000000   2.0440000   0.0000000   0.0000000   0.0000000   0.0000000
 NMagM=    0.0000000   0.0000000   0.0000000   2.7928460   2.7928460   0.4037610   2.7928460   2.7928460   0.0000000   2.7928460
 AtZNuc=   6.0000000   8.0000000   6.0000000   1.0000000   1.0000000   7.0000000   1.0000000   1.0000000   8.0000000   1.0000000
 Generating MM parameters.
 I=    1 IAn=  6 Valence= 5.
          JB=  1 J=    2 IAn=  8 IBT=12 Dist= 1.38D+00
          JB=  2 J=    3 IAn=  6 IBT= 1 Dist= 1.51D+00
          JB=  3 J=    9 IAn=  8 IBT= 2 Dist= 1.21D+00
 I=    2 IAn=  8 Valence= 3.
          JB=  1 J=    1 IAn=  6 IBT=12 Dist= 1.38D+00
          JB=  2 J=   10 IAn=  1 IBT= 1 Dist= 9.95D-01
 Read MM parameter file:
 Include all MM classes

 MM sanity checks:
 All charges sum to:               -0.00000100
 Charges of atoms sum to:          -0.00000100
 WARNING -- The following centers have non-zero partial charges, but zero Vanderwaals
 parameters.  These centers can collapse onto other centers with non-zero charge.
   Center  Layer   Charge
     10 H    R    0.213510
 MMInit generated parameter data with length LenPar=        2069.
 MM Charge=             -0.0000 electrons
 MM Dipole moment (Debye):
    X=              1.1533    Y=             -1.7054    Z=             -0.5772  Tot=              2.1382
 MM Quadrupole moment (Debye-Ang):
   XX=              0.4408   YY=              0.3942   ZZ=              1.4737
   XY=             -0.9302   XZ=              3.2370   YZ=             -1.5101
 MM Traceless Quadrupole moment (Debye-Ang):
   XX=             -0.3288   YY=             -0.3753   ZZ=              0.7041
   XY=             -0.9302   XZ=              3.2370   YZ=             -1.5101
 MM Octapole moment (Debye-Ang**2):
  XXX=              5.0785  YYY=             -1.6081  ZZZ=             -0.5179  XYY=              1.3460
  XXY=             -4.8921  XXZ=             -6.7280  XZZ=              2.8127  YZZ=             -0.9174
  YYZ=              0.3736  XYZ=              1.1449
 MM Hexadecapole moment (Debye-Ang**3):
 XXXX=             15.4243 YYYY=              1.9039 ZZZZ=              6.2282 XXXY=             -3.4600
 XXXZ=              9.6070 YYYX=             -0.7625 YYYZ=             -1.0904 ZZZX=              6.9824
 ZZZY=             -1.6919 XXYY=             -0.3798 XXZZ=              4.4356 YYZZ=             -0.0832
 XXYZ=             -1.5061 YYXZ=              0.8315 ZZXY=              0.5317
 Leave Link  101 at Tue Nov 28 09:32:09 2023, MaxMem=   134217728 cpu:               0.3 elap:               0.2
 (Enter /home/emanuele/chem_software/gaussian//gdv/l103.exe)

 GradGradGradGradGradGradGradGradGradGradGradGradGradGradGradGradGradGrad
 Berny optimization.
 Initialization pass.
 No Z-matrix variables, so optimization will use Cartesian coordinates.
 Trust Radius=1.00D-01 FncErr=1.00D-07 GrdErr=1.00D-07 EigMax=2.50D+02 EigMin=1.00D-04
 Number of steps in this run=      2 maximum allowed number of steps=      2.
 GradGradGradGradGradGradGradGradGradGradGradGradGradGradGradGradGradGrad

 Leave Link  103 at Tue Nov 28 09:32:09 2023, MaxMem=   134217728 cpu:               0.0 elap:               0.0
 (Enter /home/emanuele/chem_software/gaussian//gdv/l202.exe)
                          Input orientation:                          
 ---------------------------------------------------------------------
 Center     Atomic      Atomic             Coordinates (Angstroms)
 Number     Number       Type             X           Y           Z
 ---------------------------------------------------------------------
      1          6    20001002       -0.638898    0.019356    0.345831
      2          8    20001022       -0.831085   -0.340014   -0.971207
      3          6    20001001        0.762297   -0.354577    0.783095
      4          1    20001034        1.140926   -0.210846    1.828479
      5          1    20001034        0.620962   -1.449217    0.616834
      6          7    20001020        1.700927    0.284344   -0.177167
      7          1    20001029        2.479076   -0.380275   -0.266623
      8          1    20001029        1.316738    0.081814   -1.101245
      9          8    20001025       -1.538759    0.510435    0.979187
     10          1    20001031       -1.730159   -0.084608   -1.312231
 ---------------------------------------------------------------------
                    Distance matrix (angstroms):
                    1          2          3          4          5
     1  C    0.000000
     2  O    1.378649   0.000000
     3  C    1.514719   2.369948   0.000000
     4  H    2.327877   3.426916   1.121092   0.000000
     5  H    1.953816   2.420877   1.116179   1.808870   0.000000
     6  N    2.412162   2.726061   1.487061   2.140428   2.191346
     7  H    3.202588   3.384557   2.012436   2.491747   2.318560
     8  H    2.433607   2.192713   2.012108   2.949550   2.404154
     9  O    1.205010   2.242343   2.466081   2.902112   2.938695
    10  H    1.987669   0.994919   3.267355   4.257126   3.333350
                    6          7          8          9         10
     6  N    0.000000
     7  H    1.027247   0.000000
     8  H    1.021048   1.503712   0.000000
     9  O    3.447294   4.299815   3.558901   0.000000
    10  H    3.632746   4.347226   3.058724   2.375143   0.000000
 Symmetry turned off by external request.
 Stoichiometry    C2H5NO2
 Framework group  C1[X(C2H5NO2)]
 Deg. of freedom    24
 Full point group                 C1      NOp   1
 Rotational constants (GHZ):           9.2556007           4.1056304           3.1621170
 Leave Link  202 at Tue Nov 28 09:32:09 2023, MaxMem=   134217728 cpu:               0.0 elap:               0.0
 (Enter /home/emanuele/chem_software/gaussian//gdv/l301.exe)
 Standard basis: Dummy (5D, 7F)
    10 basis functions,    10 primitive gaussians,    10 cartesian basis functions
     7 alpha electrons        7 beta electrons
       nuclear repulsion energy        22.8419863391 Hartrees.
 IExCor=       0 DFT=F Ex=HF Corr=None N6=None ScaHFX=  1.000000
 ScaDFX=  1.000000  1.000000  1.000000  1.000000  1.000000  0.000000
 ScaDFX=  0.000000  0.000000  0.000000  0.000000  0.000000  0.000000
 IRadAn=      5 IRanWt=     -1 IRanGd=            0 ICorTp=0 IEmpDi=  4
 NAtoms=   10 NActive=   10 NUniq=   10 SFac= 1.00D+00 NAtFMM=   60 NAOKFM=F Big=F
 Integral buffers will be    131072 words long.
 Raffenetti 1 integral format.
 Two-electron integral symmetry is turned off.
 Leave Link  301 at Tue Nov 28 09:32:09 2023, MaxMem=   134217728 cpu:               0.0 elap:               0.0
 (Enter /home/emanuele/chem_software/gaussian//gdv/l402.exe)
 AMBER calculation of energy and first derivatives.
 NRF= 0 NRA=   0 NVA=  10 HaveQM=F NVQ=       0
 Convergence limit is  0.750E-04 MaxStp= 10000 StMxLn= 3.00D-04 StpMin= 1.00D-06.
 Convergence criteria             0.00011250 0.00007500 0.00045000 0.00030000
  Step  NS  ND Rises OKQ   Scale  Max. Force  RMS Force Max. Disp.  RMS Disp.     Energy   Flag
     1   0   0   F    T  1.00D+00 0.06726507 0.01974077 0.06726507 0.01974077    0.0970061 ----
     2   0   0   F    F  9.85D-01 0.06726507 0.01974077 0.06623100 0.01943729    0.0883925 ----
     3   0   0   F    T  1.98D+00 0.03964866 0.01553480 0.08423050 0.03917807    0.0856603 ----
     4   0   0   F    F -5.15D-02 0.03964866 0.01553480 0.00433934 0.00201835    0.0788551 ----
     5   0   0   F    T  1.00D+00 0.04844517 0.01941079 0.09602971 0.03734297    0.0788349 ----
     6   0   0   F    F  6.01D-01 0.04844517 0.01941079 0.05767318 0.02242731    0.0709466 ----
     7   0   0   F    T  4.34D+00 0.03013270 0.01055914 0.13156881 0.05977028    0.0696204 ----
     8   0   0   T    F  4.71D-01 0.03013270 0.01055914 0.06201924 0.02817466    0.0704588 ----
     9   0   0   F    T  1.44D+00 0.02773621 0.01141156 0.06127969 0.02817466    0.0662112 ----
    10   0   0   F    F  1.24D+00 0.02773621 0.01141156 0.07619745 0.03503343    0.0617297 ----
    11   0   0   F    F -1.61D-02 0.02773621 0.01141156 0.00122568 0.00056353    0.0596512 ----
    12   0   0   F    T  1.25D+00 0.04247059 0.01775103 0.12929466 0.06264456    0.0596506 ----
    13   0   0   F    F -2.83D-01 0.04247059 0.01775103 0.03655742 0.01771244    0.0560016 ----
    14   0   0   F    T  4.94D+00 0.02815181 0.00908800 0.13806068 0.04493212    0.0552252 ----
    15   0   0   T    F  3.28D-01 0.02815181 0.00908800 0.04526342 0.01473107    0.0615777 ----
    16   0   0   F    T  1.32D+00 0.01935508 0.00824103 0.04106502 0.01473107    0.0532197 ----
    17   0   0   F    F  8.09D-02 0.01935508 0.00824103 0.00332124 0.00119141    0.0517682 ----
    18   0   0   F    T  1.53D+00 0.01569644 0.00686646 0.03462963 0.01592249    0.0517601 ----
    19   0   0   F    F  2.70D-01 0.01569644 0.00686646 0.00935037 0.00429924    0.0504403 ----
    20   0   0   F    T  2.55D+00 0.01436284 0.00525951 0.04510649 0.02022173    0.0503774 ----
    21   0   0   F    F  1.07D-01 0.01436284 0.00525951 0.00480545 0.00215434    0.0492295 ----
    22   0   0   F    T  2.34D+00 0.01285684 0.00530098 0.04355586 0.02237606    0.0492190 ----
    23   0   0   F    F  2.08D-01 0.01285684 0.00530098 0.00906051 0.00465468    0.0480497 ----
    24   0   0   F    T  4.60D+00 0.01047587 0.00363458 0.05733045 0.02703074    0.0480132 ----
    25   0   0   T    F  3.15D-01 0.01047587 0.00363458 0.01806191 0.00851601    0.0491120 ----
    26   0   0   F    T  1.63D+00 0.00873261 0.00311143 0.01952025 0.00851601    0.0477252 ----
    27   0   0   F    F -1.10D-01 0.00873261 0.00311143 0.00214306 0.00093494    0.0475180 ----
    28   0   0   F    T  1.76D+00 0.00491310 0.00255567 0.01596390 0.00758107    0.0475148 ----
    29   0   0   F    F  4.20D-01 0.00491310 0.00255567 0.00669715 0.00318040    0.0472936 ----
    30   0   0   F    T  2.74D+00 0.00576920 0.00220696 0.02607657 0.01076147    0.0472728 ----
    31   0   0   F    F -1.47D-01 0.00576920 0.00220696 0.00384039 0.00158488    0.0471068 ----
    32   0   0   F    T  2.96D+00 0.00445769 0.00175192 0.02240628 0.00917659    0.0471016 ----
    33   0   0   F    F  1.57D-01 0.00445769 0.00175192 0.00351259 0.00143859    0.0469478 ----
    34   0   0   F    T  4.64D+00 0.00298774 0.00134287 0.02953185 0.01061518    0.0469450 ----
    35   0   0   T    F  3.63D-01 0.00298774 0.00134287 0.01070672 0.00384852    0.0470425 ----
    36   0   0   F    T  1.86D+00 0.00358268 0.00116421 0.01096405 0.00384852    0.0468993 ----
    37   0   0   F    F -3.48D-01 0.00358268 0.00116421 0.00381898 0.00134051    0.0468818 ----
    38   0   0   F    T  1.76D+00 0.00184289 0.00086505 0.00730785 0.00250801    0.0468747 ----
    39   0   0   F    F  1.65D+00 0.00184289 0.00086505 0.01206242 0.00413975    0.0468429 ----
    40   0   0   F    T  1.43D+00 0.00423732 0.00151106 0.02079383 0.00664776    0.0468230 ----
    41   0   0   F    F  1.26D+00 0.00423732 0.00151106 0.02613576 0.00835557    0.0467454 ----
    42   0   0   F    T  7.85D+00 0.00174028 0.00084703 0.03708125 0.01500332    0.0467097 ----
    43   0   0   T    F  2.35D-01 0.00174028 0.00084703 0.00872916 0.00353188    0.0468938 ----
    44   0   0   F    T  2.93D+00 0.00121144 0.00062389 0.00764898 0.00353188    0.0466899 ----
    45   0   0   F    T  1.96D+00 0.00249807 0.00072133 0.00779474 0.00353188    0.0466735 ----
    46   0   0   T    F  4.54D-01 0.00249807 0.00072133 0.00353838 0.00160328    0.0466765 ----
    47   0   0   F    T  4.34D+00 0.00071559 0.00030270 0.00384893 0.00160328    0.0466668 ----
    48   0   0   F    F -4.32D-01 0.00071559 0.00030270 0.00166410 0.00069318    0.0466654 ----
    49   0   0   F    T  1.21D+00 0.00125880 0.00039658 0.00172439 0.00091010    0.0466634 ----
    50   0   0   F    F  4.50D+00 0.00125880 0.00039658 0.00776823 0.00409990    0.0466582 ----
    51   0   0   F    T  7.34D+00 0.00085279 0.00035112 0.01140063 0.00500999    0.0466477 ----
    52   0   0   T    F  3.66D-01 0.00085279 0.00035112 0.00417621 0.00183523    0.0466576 ----
    53   0   0   F    T  2.14D+00 0.00080315 0.00037378 0.00364467 0.00183523    0.0466427 ----
    54   0   0   F    F  5.30D-01 0.00080315 0.00037378 0.00193258 0.00097313    0.0466367 ----
    55   0   0   F    T  1.54D+00 0.00166874 0.00053199 0.00612657 0.00280836    0.0466359 ----
    56   0   0   F    T  1.64D+00 0.00109533 0.00050567 0.00649615 0.00280836    0.0466293 ----
    57   0   0   F    F  1.05D+00 0.00109533 0.00050567 0.00682010 0.00294840    0.0466196 ----
    58   0   0   F    T  2.02D+00 0.00142021 0.00063791 0.01365401 0.00575676    0.0466162 ----
    59   0   0   F    F  6.40D-01 0.00142021 0.00063791 0.00874102 0.00368536    0.0465990 ----
    60   0   0   F    T  6.78D+00 0.00110751 0.00045639 0.02454293 0.00944212    0.0465959 ----
    61   0   0   T    F  4.15D-01 0.00110751 0.00045639 0.01018539 0.00391851    0.0466043 ----
    62   0   0   F    T  2.90D+00 0.00088953 0.00043488 0.01076253 0.00391851    0.0465871 ----
    63   0   0   F    F  6.02D-01 0.00088953 0.00043488 0.00648084 0.00235960    0.0465758 ----
    64   0   0   F    T  2.56D+00 0.00147770 0.00057399 0.01751183 0.00627810    0.0465739 ----
    65   0   0   F    F -3.85D-01 0.00147770 0.00057399 0.00673497 0.00241453    0.0465692 ----
    66   0   0   F    T  2.43D+00 0.00111268 0.00045490 0.00983074 0.00386357    0.0465661 ----
    67   0   0   F    F -1.61D-01 0.00111268 0.00045490 0.00158728 0.00062382    0.0465600 ----
    68   0   0   F    T  1.07D+00 0.00157498 0.00062035 0.00846223 0.00323976    0.0465598 ----
    69   0   0   F    F  2.09D+00 0.00157498 0.00062035 0.01764963 0.00675714    0.0465494 ----
    70   0   0   F    T  6.68D+00 0.00101097 0.00042167 0.02589955 0.00999690    0.0465407 ----
    71   0   0   T    F  3.73D-01 0.00101097 0.00042167 0.00965562 0.00372695    0.0465528 ----
    72   0   0   F    T  2.29D+00 0.00124242 0.00043336 0.00989462 0.00372695    0.0465340 ----
    73   0   0   F    F  1.19D+00 0.00124242 0.00043336 0.01175653 0.00442826    0.0465241 ----
    74   0   0   F    T  2.69D+00 0.00171846 0.00058328 0.02280867 0.00815521    0.0465200 ----
    75   0   0   F    F -9.17D-02 0.00171846 0.00058328 0.00209248 0.00074816    0.0465076 ----
    76   0   0   F    T  2.94D+00 0.00128881 0.00052370 0.02124770 0.00740705    0.0465075 ----
    77   0   0   F    F -1.56D-02 0.00128881 0.00052370 0.00033156 0.00011558    0.0464956 --++
    78   0   0   F    T  1.78D+00 0.00163054 0.00066366 0.02179839 0.00729146    0.0464956 ----
    79   0   0   F    F -2.47D-01 0.00163054 0.00066366 0.00539247 0.00180376    0.0464876 ----
    80   0   0   F    T  1.81D+00 0.00147495 0.00057607 0.01560722 0.00548771    0.0464866 ----
    81   0   0   F    F  4.84D-01 0.00147495 0.00057607 0.00755213 0.00265543    0.0464747 ----
    82   0   0   F    T  6.89D+00 0.00107816 0.00037101 0.02205661 0.00814314    0.0464733 ----
    83   0   0   F    F -4.56D-01 0.00107816 0.00037101 0.01004688 0.00370923    0.0464709 ----
    84   0   0   F    T  1.59D+00 0.00142464 0.00056072 0.01238894 0.00443390    0.0464656 ----
    85   0   0   F    F  6.96D-01 0.00142464 0.00056072 0.00862440 0.00308660    0.0464550 ----
    86   0   0   F    T  2.31D+00 0.00239687 0.00059784 0.02037020 0.00752051    0.0464528 ----
    87   0   0   T    F  4.43D-01 0.00239687 0.00059784 0.00901574 0.00332853    0.0464558 ----
    88   0   0   F    T  2.55D+00 0.00088155 0.00036799 0.01008572 0.00332853    0.0464473 ----
    89   0   0   F    F  2.03D-01 0.00088155 0.00036799 0.00204384 0.00067452    0.0464413 ----
    90   0   0   F    T  5.69D+00 0.00056484 0.00025578 0.01324442 0.00400305    0.0464411 ----
    91   0   0   T    F  2.84D-01 0.00056484 0.00025578 0.00375540 0.00113505    0.0464497 ----
    92   0   0   F    T  4.23D+00 0.00044938 0.00014605 0.00366107 0.00113505    0.0464395 ----
    93   0   0   T    F  3.05D-01 0.00044938 0.00014605 0.00111594 0.00034598    0.0464412 ----
    94   0   0   F    T  1.08D+00 0.00031354 0.00014991 0.00129369 0.00034598    0.0464391 ----
    95   0   0   F    F  2.24D+00 0.00031354 0.00014991 0.00290081 0.00077577    0.0464385 ----
    96   0   0   F    T  4.23D+00 0.00032604 0.00012737 0.00352375 0.00112175    0.0464379 ----
    97   0   0   T    F  3.53D-01 0.00032604 0.00012737 0.00124490 0.00039630    0.0464388 ----
    98   0   0   F    T  2.24D+00 0.00017879 0.00009549 0.00089637 0.00039630    0.0464375 ----
    99   0   0   F    F  1.22D+00 0.00017879 0.00009549 0.00109650 0.00048479    0.0464371 ----
   100   0   0   F    T  1.62D+00 0.00050681 0.00016359 0.00212423 0.00088109    0.0464369 ----
   101   0   0   F    T  1.34D+00 0.00047816 0.00017839 0.00200101 0.00088109    0.0464362 ----
   102   0   0   F    F  9.17D-01 0.00047816 0.00017839 0.00183481 0.00080791    0.0464352 ----
   103   0   0   F    T  4.93D+00 0.00033423 0.00011420 0.00399999 0.00168899    0.0464349 ----
   104   0   0   F    F -2.00D-01 0.00033423 0.00011420 0.00080105 0.00033825    0.0464342 ----
   105   0   0   F    T  2.26D+00 0.00036946 0.00014953 0.00324987 0.00135075    0.0464342 ----
   106   0   0   F    F  2.47D-01 0.00036946 0.00014953 0.00080123 0.00033302    0.0464333 ----
   107   0   0   F    T  3.69D+00 0.00031311 0.00012785 0.00405465 0.00168377    0.0464332 ----
   108   0   0   T    F  4.65D-01 0.00031311 0.00012785 0.00188533 0.00078292    0.0464334 ----
   109   0   0   F    T  2.27D+00 0.00027996 0.00010807 0.00218815 0.00078292    0.0464328 ----
   110   0   0   F    F -3.91D-01 0.00027996 0.00010807 0.00085592 0.00030625    0.0464327 ----
   111   0   0   F    T  1.59D+00 0.00023038 0.00009791 0.00125756 0.00047667    0.0464326 ----
   112   0   0   F    F  7.18D-01 0.00023038 0.00009791 0.00090308 0.00034231    0.0464322 ----
   113   0   0   F    T  3.67D+00 0.00019513 0.00008178 0.00201767 0.00081898    0.0464322 ----
   114   0   0   F    T  2.60D+00 0.00022978 0.00009328 0.00196933 0.00081898    0.0464318 ----
   115   0   0   F    F  9.12D-01 0.00022978 0.00009328 0.00179635 0.00074704    0.0464313 ----
   116   0   0   F    T  3.30D+00 0.00027397 0.00011841 0.00346889 0.00156602    0.0464312 ----
   117   0   0   T    F  2.91D-01 0.00027397 0.00011841 0.00101038 0.00045613    0.0464322 ----
   118   0   0   F    T  1.84D+00 0.00021227 0.00008183 0.00114907 0.00045613    0.0464310 ----
   119   0   0   F    F  1.81D+00 0.00021227 0.00008183 0.00208080 0.00082599    0.0464307 ----
   120   0   0   F    T  2.00D+00 0.00038857 0.00013024 0.00309508 0.00128212    0.0464305 ----
   121   0   0   F    F  3.25D-01 0.00038857 0.00013024 0.00100657 0.00041697    0.0464298 ----
   122   0   0   F    T  5.37D+00 0.00017104 0.00008982 0.00397185 0.00169909    0.0464298 ----
   123   0   0   T    F  3.06D-01 0.00017104 0.00008982 0.00121443 0.00051951    0.0464306 ----
   124   0   0   F    T  2.71D+00 0.00017679 0.00006758 0.00103775 0.00051951    0.0464296 -+--
   125   0   0   F    T  1.16D+00 0.00027094 0.00010135 0.00114996 0.00051951    0.0464294 ----
   126   0   0   F    F  5.04D-01 0.00027094 0.00010135 0.00057955 0.00026182    0.0464292 ---+
   127   0   0   F    T  3.26D+00 0.00016460 0.00007886 0.00174528 0.00078134    0.0464292 ----
   128   0   0   F    F -2.34D-01 0.00016460 0.00007886 0.00040911 0.00018315    0.0464290 --++
   129   0   0   F    T  3.51D+00 0.00014823 0.00006284 0.00135100 0.00059818    0.0464289 -+--
   130   0   0   F    F -2.33D-01 0.00014823 0.00006284 0.00031495 0.00013945    0.0464288 -+++
   131   0   0   F    T  2.09D+00 0.00020679 0.00006953 0.00107035 0.00045873    0.0464288 -+--
   132   0   0   F    T  2.43D+00 0.00017573 0.00006481 0.00094666 0.00045873    0.0464286 -+--
   133   0   0   T    F  4.52D-01 0.00017573 0.00006481 0.00042797 0.00020738    0.0464286 -+++
   134   0   0   F    T  2.21D+00 0.00009101 0.00003892 0.00045544 0.00020738    0.0464285 ++-+
   135   0   0   F    T  3.33D+00 0.00006969 0.00003165 0.00048715 0.00020738    0.0464285 ++-+
   136   0   0   F    T  2.84D+00 0.00008380 0.00003163 0.00051340 0.00020738    0.0464284 ++-+
   137   0   0   F    T  1.19D+00 0.00011181 0.00004634 0.00058594 0.00020738    0.0464284 ++-+
   138   0   0   F    F  5.52D-01 0.00011181 0.00004634 0.00032350 0.00011450    0.0464284 ++++
   139   0   0   F    T  1.67D+00 0.00014117 0.00006248 0.00090228 0.00032188    0.0464284 -+--
   140   0   0   F    F  4.65D-01 0.00014117 0.00006248 0.00041966 0.00014971    0.0464282 -+++
   141   0   0   F    T  2.42D+00 0.00012540 0.00005257 0.00137661 0.00047159    0.0464282 -+--
   142   0   0   F    F  2.67D-01 0.00012540 0.00005257 0.00036772 0.00012597    0.0464281 -+++
   143   0   0   F    T  1.95D+00 0.00014474 0.00006517 0.00185658 0.00059757    0.0464281 -+--
   144   0   0   F    T  1.33D+00 0.00020502 0.00007753 0.00176879 0.00059757    0.0464280 ----
   145   0   0   F    F  2.27D-01 0.00020502 0.00007753 0.00040224 0.00013589    0.0464278 --++
   146   0   0   F    T  3.53D+00 0.00012697 0.00005679 0.00206041 0.00073346    0.0464278 -+--
   147   0   0   F    F -3.36D-01 0.00012697 0.00005679 0.00069291 0.00024666    0.0464278 -+-+
   148   0   0   F    T  1.71D+00 0.00016945 0.00006496 0.00134343 0.00048680    0.0464277 -+--
   149   0   0   F    F  4.75D-01 0.00016945 0.00006496 0.00063862 0.00023141    0.0464276 -+-+
   150   0   0   F    T  1.75D+00 0.00026894 0.00007739 0.00180030 0.00071821    0.0464276 ----
   151   0   0   F    F -3.20D-01 0.00026894 0.00007739 0.00057532 0.00022952    0.0464275 ---+
   152   0   0   F    T  2.38D+00 0.00018766 0.00005373 0.00121294 0.00048869    0.0464275 -+--
   153   0   0   F    T  3.11D+00 0.00013336 0.00004520 0.00118783 0.00048869    0.0464274 -+--
   154   0   0   F    T  1.21D+00 0.00016617 0.00006849 0.00109070 0.00048869    0.0464273 -+--
   155   0   0   F    F -3.58D-01 0.00016617 0.00006849 0.00039099 0.00017518    0.0464273 -+++
   156   0   0   F    T  5.50D+00 0.00012236 0.00005332 0.00059876 0.00031351    0.0464273 -+--
   157   0   0   T    T  1.00D+00 0.00060375 0.00023276 0.00060375 0.00023276    0.0464278 ---+
   158   0   0   T    F  5.00D-01 0.00060375 0.00023276 0.00030187 0.00011638    0.0464287 --++
   159   0   0   T    F  5.00D-01 0.00060375 0.00023276 0.00015094 0.00005819    0.0464277 --++
   160   0   0   T    F  5.00D-01 0.00060375 0.00023276 0.00007547 0.00002909    0.0464274 --++
   161   0   0   T    F  5.00D-01 0.00060375 0.00023276 0.00003773 0.00001455    0.0464273 --++
   162   0   0   T    F  5.00D-01 0.00060375 0.00023276 0.00001887 0.00000727    0.0464273 --++
   163   0   0   T    F  5.00D-01 0.00060375 0.00023276 0.00000943 0.00000364    0.0464273 --++
   164   0   0   T    F  5.00D-01 0.00060375 0.00023276 0.00000472 0.00000182    0.0464273 --++
   165   0   0   T    F  5.00D-01 0.00060375 0.00023276 0.00000236 0.00000091    0.0464273 --++
   166   0   0   T    F  5.00D-01 0.00060375 0.00023276 0.00000118 0.00000045    0.0464273 --++
   167   0   0   T    F  5.00D-01 0.00060375 0.00023276 0.00000059 0.00000023    0.0464273 --++
   168   0   0   T    T  1.00D+00 0.00012253 0.00005353 0.00007369 0.00003485    0.0464273 -+++
   169   0   0   F    T  1.00D+00 0.00012664 0.00005476 0.00012517 0.00005498    0.0464272 -+++
   170   0   0   F    T  1.35D+00 0.00008774 0.00003394 0.00011404 0.00005498    0.0464272 ====
 ****************************
 MOLECULAR MECHANICS FUNCTION
 ****************************
 Atomic parameters:
 Center  VDW
      1 1.9080 0.0860000
      2 1.7210 0.2104000
      3 1.9080 0.1094000
      4 1.4870 0.0157000
      5 1.4870 0.0157000
      6 1.8750 0.1700000
      7 0.6000 0.0157000
      8 0.6000 0.0157000
      9 1.6612 0.2100000
     10 0.0000 0.0000000
 Molecular mechanics terms:
 NBDir 3 1      0      0
 HrmStr1  1- 2  431.53 1.3510
 HrmStr1  1- 3  294.15 1.5090
 HrmStr1  1- 9  946.08 1.2030
 HrmStr1  2-10  566.76 0.9680
 HrmStr1  3- 4  358.05 1.0960
 HrmStr1  3- 5  358.05 1.0960
 HrmStr1  3- 6  380.82 1.4520
 HrmStr1  6- 7  506.01 1.0110
 HrmStr1  6- 8  506.01 1.0110
 HrmBnd1  1- 2-10  56.55 107.23
 HrmBnd1  1- 3- 4  46.41 106.89
 HrmBnd1  1- 3- 5  46.41 106.89
 HrmBnd1  1- 3- 6  59.93 110.61
 HrmBnd1  2- 1- 3  67.92 111.72
 HrmBnd1  2- 1- 9  91.40 123.02
 HrmBnd1  3- 1- 9  62.83 125.24
 HrmBnd1  3- 6- 7  52.60 110.71
 HrmBnd1  3- 6- 8  52.60 110.71
 HrmBnd1  4- 3- 5  44.68 106.22
 HrmBnd1  4- 3- 6  52.45 112.94
 HrmBnd1  5- 3- 6  52.45 112.94
 HrmBnd1  7- 6- 8  47.09 108.63
 AmbTrs  3- 1- 2-10   0 180   0   0  0.0000 14.5000  0.0000  0.0000  2.0
 AmbTrs  9- 1- 2-10   0   0   0   0  0.0000 14.5000  0.0000  0.0000  2.0
 AmbTrs  2- 1- 3- 4   0   0   0   0  0.0000 14.5000  0.0000  0.0000  6.0
 AmbTrs  2- 1- 3- 5   0   0   0   0  0.0000 14.5000  0.0000  0.0000  6.0
 AmbTrs  2- 1- 3- 6   0   0   0   0  0.0000 14.5000  0.0000  0.0000  6.0
 AmbTrs  9- 1- 3- 4   0   0   0   0  0.0000 14.5000  0.0000  0.0000  6.0
 AmbTrs  9- 1- 3- 5   0   0   0   0  0.0000 14.5000  0.0000  0.0000  6.0
 AmbTrs  9- 1- 3- 6   0   0   0   0  0.0000 14.5000  0.0000  0.0000  6.0
 AmbTrs  1- 3- 6- 7   0 180   0   0  0.0000 25.6300  0.0000  0.0000  6.0
 AmbTrs  1- 3- 6- 8   0 180   0   0  0.0000 25.6300  0.0000  0.0000  6.0
 AmbTrs  4- 3- 6- 7   0   0   0   0  0.0000 16.9300  0.0000  0.0000  6.0
 AmbTrs  4- 3- 6- 8   0   0   0   0  0.0000 16.9300  0.0000  0.0000  6.0
 AmbTrs  5- 3- 6- 7   0   0   0   0  0.0000 16.9300  0.0000  0.0000  6.0
 AmbTrs  5- 3- 6- 8   0   0   0   0  0.0000 16.9300  0.0000  0.0000  6.0
 NBPair  2- 1 3 1      0      0 -1.000 -1.000
 NBPair  3- 2 3 1      0      0 -1.000 -1.000
 NBPair 10- 3 3 1      0      0 -0.500 -0.167
 NBPair  9- 2 3 1      0      0 -1.000 -1.000
 NBPair 10- 9 3 1      0      0 -0.500 -0.167
 NBPair  3- 1 3 1      0      0 -1.000 -1.000
 NBPair  4- 2 3 1      0      0 -0.500 -0.167
 NBPair  5- 2 3 1      0      0 -0.500 -0.167
 NBPair  6- 2 3 1      0      0 -0.500 -0.167
 NBPair  9- 3 3 1      0      0 -1.000 -1.000
 NBPair  9- 4 3 1      0      0 -0.500 -0.167
 NBPair  9- 5 3 1      0      0 -0.500 -0.167
 NBPair  9- 6 3 1      0      0 -0.500 -0.167
 NBPair  9- 1 3 1      0      0 -1.000 -1.000
 NBPair 10- 1 3 1      0      0 -1.000 -1.000
 NBPair 10- 2 3 1      0      0 -1.000 -1.000
 NBPair  4- 1 3 1      0      0 -1.000 -1.000
 NBPair  5- 1 3 1      0      0 -1.000 -1.000
 NBPair  6- 1 3 1      0      0 -1.000 -1.000
 NBPair  4- 3 3 1      0      0 -1.000 -1.000
 NBPair  5- 4 3 1      0      0 -1.000 -1.000
 NBPair  6- 4 3 1      0      0 -1.000 -1.000
 NBPair  5- 3 3 1      0      0 -1.000 -1.000
 NBPair  6- 5 3 1      0      0 -1.000 -1.000
 NBPair  6- 3 3 1      0      0 -1.000 -1.000
 NBPair  7- 1 3 1      0      0 -0.500 -0.167
 NBPair  8- 1 3 1      0      0 -0.500 -0.167
 NBPair  7- 4 3 1      0      0 -0.500 -0.167
 NBPair  8- 4 3 1      0      0 -0.500 -0.167
 NBPair  7- 5 3 1      0      0 -0.500 -0.167
 NBPair  8- 5 3 1      0      0 -0.500 -0.167
 NBPair  7- 3 3 1      0      0 -1.000 -1.000
 NBPair  8- 3 3 1      0      0 -1.000 -1.000
 NBPair  7- 6 3 1      0      0 -1.000 -1.000
 NBPair  8- 7 3 1      0      0 -1.000 -1.000
 NBPair  8- 6 3 1      0      0 -1.000 -1.000
 Energy per function type:
 Direct Coulomb + vdW (small)                           0.003877781
 Direct Coulomb (large)                                -0.131918704
 Direct vdW (large)                                   268.417781787
 Non-direct Coulomb + vdW (small)                      -0.012115551
 Non-direct Coulomb (large)                             0.138202949
 Non-direct vdW (large)                              -268.417781787
 Harmonic stretch I                                     0.000128908
 Harmonic bend I                                        0.010151278
 Amber torsion                                          0.038100536
 Energy per function class:
        Coulomb              -0.003782666
    Vanderwaals               0.001829142
     Stretching               0.000128908
        Bending               0.010151278
        Torsion               0.038100536
 Energy=    4.642719795E-02 NIter=   0.
 Dipole moment=       0.527935      -0.161974      -0.363319
 Leave Link  402 at Tue Nov 28 09:32:09 2023, MaxMem=   134217728 cpu:               0.3 elap:               0.3
 (Enter /home/emanuele/chem_software/gaussian//gdv/l716.exe)
 Dipole        = 5.27935004D-01-1.61974231D-01-3.63318611D-01
 -------------------------------------------------------------------
 Center     Atomic                   Forces (Hartrees/Bohr)
 Number     Number              X              Y              Z
 -------------------------------------------------------------------
      1        6           0.000087741   -0.000071681   -0.000073545
      2        8           0.000004600    0.000034842    0.000018830
      3        6          -0.000009014    0.000005453    0.000019954
      4        1           0.000011209    0.000009115   -0.000014802
      5        1          -0.000002304    0.000026625   -0.000028808
      6        7          -0.000002645   -0.000026521    0.000003734
      7        1          -0.000027501    0.000000823    0.000011736
      8        1           0.000037011    0.000017487    0.000010122
      9        8          -0.000053785    0.000029035    0.000049123
     10        1          -0.000045314   -0.000025179    0.000003656
 -------------------------------------------------------------------
 Cartesian Forces:  Max     0.000087741 RMS     0.000033943
 Z-matrix is all fixed cartesians, so copy forces.
 Leave Link  716 at Tue Nov 28 09:32:09 2023, MaxMem=   134217728 cpu:               0.0 elap:               0.0
 (Enter /home/emanuele/chem_software/gaussian//gdv/l103.exe)

 GradGradGradGradGradGradGradGradGradGradGradGradGradGradGradGradGradGrad
 Berny optimization.
 Search for a local minimum.
 Step number   1 out of a maximum of    2
 All quantities printed in internal units (Hartrees-Bohrs-Radians)
 RMS Force = .33943D-04 SwitMx=.10000D-02 MixMth= 2
 Mixed Optimization -- En-DIIS/RFO-DIIS
 Second derivative matrix not updated -- unit matrix used.
 ITU=  0
 RFO step:  Lambda=-3.45630084D-08 EMin= 1.00000000D+00
 Linear search not attempted -- first point.
 Variable       Old X    -DE/DX   Delta X   Delta X   Delta X     New X
                                 (Linear)    (Quad)   (Total)
    X1       -1.17335   0.00009   0.00000   0.00009   0.00009  -1.17326
    Y1        0.24036  -0.00007   0.00000  -0.00007  -0.00007   0.24029
    Z1        0.40026  -0.00007   0.00000  -0.00007  -0.00007   0.40018
    X2       -2.17022   0.00000   0.00000   0.00000   0.00000  -2.17021
    Y2       -1.22292   0.00003   0.00000   0.00003   0.00003  -1.22288
    Z2       -1.43789   0.00002   0.00000   0.00002   0.00002  -1.43787
    X3        1.35988  -0.00001   0.00000  -0.00001  -0.00001   1.35987
    Y3       -0.87684   0.00001   0.00000   0.00001   0.00001  -0.87683
    Z3        1.18566   0.00002   0.00000   0.00002   0.00002   1.18568
    X4        1.59091   0.00001   0.00000   0.00001   0.00001   1.59092
    Y4       -0.21314   0.00001   0.00000   0.00001   0.00001  -0.21313
    Z4        3.13643  -0.00001   0.00000  -0.00001  -0.00001   3.13641
    X5        1.06079  -0.00000   0.00000  -0.00000  -0.00000   1.06078
    Y5       -2.92836   0.00003   0.00000   0.00003   0.00003  -2.92833
    Z5        1.24353  -0.00003   0.00000  -0.00003  -0.00003   1.24350
    X6        3.35843  -0.00000   0.00000  -0.00000  -0.00000   3.35842
    Y6        0.02372  -0.00003   0.00000  -0.00003  -0.00003   0.02369
    Z6       -0.48811   0.00000   0.00000   0.00000   0.00000  -0.48811
    X7        5.14274  -0.00003   0.00000  -0.00003  -0.00003   5.14271
    Y7       -0.63427   0.00000   0.00000   0.00000   0.00000  -0.63427
    Z7       -0.29485   0.00001   0.00000   0.00001   0.00001  -0.29484
    X8        2.91866   0.00004   0.00000   0.00004   0.00004   2.91870
    Y8        1.06991   0.00002   0.00000   0.00002   0.00002   1.06992
    Z8       -2.02634   0.00001   0.00000   0.00001   0.00001  -2.02633
    X9       -2.55295  -0.00005   0.00000  -0.00005  -0.00005  -2.55301
    Y9        1.06054   0.00003   0.00000   0.00003   0.00003   1.06057
    Z9        2.00872   0.00005   0.00000   0.00005   0.00005   2.00877
   X10       -3.33275  -0.00005   0.00000  -0.00005  -0.00005  -3.33280
   Y10       -0.15407  -0.00003   0.00000  -0.00003  -0.00003  -0.15409
   Z10       -2.35745   0.00000   0.00000   0.00000   0.00000  -2.35744
         Item               Value     Threshold  Converged?
 Maximum Force            0.000088     0.000450     YES
 RMS     Force            0.000034     0.000300     YES
 Maximum Displacement     0.000088     0.001800     YES
 RMS     Displacement     0.000034     0.001200     YES
 Predicted change in Energy=-1.728150D-08
 Optimization completed.
    -- Stationary point found.
 Largest change from initial coordinates is atom    8       0.073 Angstoms.
 GradGradGradGradGradGradGradGradGradGradGradGradGradGradGradGradGradGrad

 Leave Link  103 at Tue Nov 28 09:32:09 2023, MaxMem=   134217728 cpu:               0.0 elap:               0.0
 (Enter /home/emanuele/chem_software/gaussian//gdv/l202.exe)
                          Input orientation:                          
 ---------------------------------------------------------------------
 Center     Atomic      Atomic             Coordinates (Angstroms)
 Number     Number       Type             X           Y           Z
 ---------------------------------------------------------------------
      1          6    20001002       -0.620911    0.127196    0.211808
      2          8    20001022       -1.148429   -0.647140   -0.760899
      3          6    20001001        0.719618   -0.464003    0.627424
      4          1    20001034        0.841871   -0.112787    1.659726
      5          1    20001034        0.561344   -1.549619    0.658049
      6          7    20001020        1.777202    0.012552   -0.258296
      7          1    20001029        2.721421   -0.335641   -0.156029
      8          1    20001029        1.544490    0.566170   -1.072291
      9          8    20001025       -1.350964    0.561213    1.062969
     10          1    20001031       -1.763617   -0.081528   -1.247507
 ---------------------------------------------------------------------
                    Distance matrix (angstroms):
                    1          2          3          4          5
     1  C    0.000000
     2  O    1.350566   0.000000
     3  C    1.522915   2.334647   0.000000
     4  H    2.072147   3.179033   1.097245   0.000000
     5  H    2.099658   2.398167   1.097520   1.773848   0.000000
     6  N    2.446444   3.040907   1.459483   2.137606   2.181370
     7  H    3.394216   3.929203   2.153483   2.622848   2.608140
     8  H    2.555498   2.969999   2.151906   2.901477   2.904688
     9  O    1.202424   2.197187   2.351186   2.370427   2.876890
    10  H    1.865191   0.967036   3.134981   3.904042   3.345426
                    6          7          8          9         10
     6  N    0.000000
     7  H    1.011556   0.000000
     8  H    1.011551   1.742976   0.000000
     9  O    3.439796   4.344493   3.597640   0.000000
    10  H    3.677606   4.622927   3.375467   2.433453   0.000000
 Symmetry turned off by external request.
 Stoichiometry    C2H5NO2
 Framework group  C1[X(C2H5NO2)]
 Deg. of freedom    24
 Full point group                 C1      NOp   1
 Rotational constants (GHZ):           9.5057664           3.8983286           3.1084860
 Leave Link  202 at Tue Nov 28 09:32:09 2023, MaxMem=   134217728 cpu:               0.0 elap:               0.0
 (Enter /home/emanuele/chem_software/gaussian//gdv/l9999.exe)
 Unable to Open any file for archive entry.
 1\1\GINC-EMANUELE-XPS-13-9343\FOpt\AMBER\ZDO\C2H5N1O2\EMANUELE\28-Nov-
 2023\0\\#p Amber=(SoftFirst,Print) geom=nocrowd nosymm opt=(maxcycle=3
 00)\\Title\\0,1\C,-0.6209112325,0.1271955544,0.2118075532\O,-1.1484286
 561,-0.6471396301,-0.7608988958\C,0.7196175644,-0.4640029037,0.6274238
 606\H,0.8418714173,-0.1127867854,1.6597255523\H,0.5613443072,-1.549618
 7509,0.658048937\N,1.7772020838,0.0125515081,-0.2582963214\H,2.7214207
 048,-0.3356413596,-0.1560287544\H,1.5444896977,0.5661698225,-1.0722910
 659\O,-1.350964305,0.5612128863,1.0629687645\H,-1.7636165817,-0.081528
 3418,-1.2475066301\\Version=ES64L-GDVRevJ.14\HF=0.0464272\RMSD=0.000e+
 00\RMSF=3.394e-05\Dipole=0.527935,-0.1619742,-0.3633186\PG=C01 [X(C2H5
 N1O2)]\\@
 The archive entry for this job was punched.


 I WOULD TAKE COUNSEL OF MYSELF.
 I WOULD STOP AND LOOK WITHIN
 AND LOOKING WITHIN, LOOK BACK, ALSO
 THAT I MAY LOOK AHEAD WITH CLEARER UNDERSTANDING
 OF THE WAY I HAVE BEEN MOVING, AND IN WHAT DIRECTION.
 I NEED TO KNOW IF I AM GOING FORWARD OR RETREATING,
 WHETHER I HAVE BEEN WASTING, OR ENJOYING
 THE PRECIOUS MOMENTS OF LIFE.  THERE HAVE BEEN FRICTIONS,
 ANNOYANCES AND SOMETIMES WRATH,
 BUT WERE THEY BECAUSE I WAS RIGHT AND OTHERS WRONG.....
 HAVE I HAD MY THOUGHTS TOO SHARPLY FOCUSED
 ON THAT WHICH PLEASED ME, SERVED MY SELF-ESTEEM,
 UNDERGIRDED MY SECURITY,
 OF WHICH I DID NOT INQUIRE WHETHER IT SERVED OR HAMPERED OTHERS.....
 HAVE I BEEN TRYING TO STOP THE CLOCK
 TO HOLD THE WORLD
 IN PERPETUATION OF WHAT WAS AN IS ALREADY SLIPPING AWAY.....
 HAVE I BEEN CRITICAL OF OTHERS FOR WHAT REALLY NEEDED CHANGING IN ME...
 LET ME INDEED TAKE COUNSEL OF MYSELF
 AND SET MY DIRECTIONS STRAIGHT.

                          R.T. WESTON AS ADAPTED BY D. OSBORN 1967
 Job cpu time:       0 days  0 hours  0 minutes  0.8 seconds.
 Elapsed time:       0 days  0 hours  0 minutes  0.7 seconds.
 File lengths (MBytes):  RWF=      6 Int=      0 D2E=      0 Chk=      1 Scr=      1
 Normal termination of Gaussian DV at Tue Nov 28 09:32:09 2023.
