 Entering Gaussian System, Link 0=/home/emanuele/chem_software/gaussian//g09/g09
 Input=4_mm_70.gjf
 Output=4_mm_70.log
 Initial command:
 /home/emanuele/chem_software/gaussian//gdv/l1.exe "/home/emanuele/chem_software/gaussian/scratch/Gau-4578.inp" -scrdir="/home/emanuele/chem_software/gaussian/scratch/"
 Entering Link 1 = /home/emanuele/chem_software/gaussian//gdv/l1.exe PID=      4580.
  
 Copyright (c) 1988-2020, Gaussian, Inc.  All Rights Reserved.
  
 This is the private, development version of
 the Gaussian(R) DV system of programs. It is based on
 the Gaussian(R) 16 system (copyright 2016, Gaussian, Inc.),
 the Gaussian(R) 09 system (copyright 2009, Gaussian, Inc.),
 the Gaussian(R) 03 system (copyright 2003, Gaussian, Inc.),
 the Gaussian(R) 98 system (copyright 1998, Gaussian, Inc.),
 the Gaussian(R) 94 system (copyright 1995, Gaussian, Inc.),
 the Gaussian 92(TM) system (copyright 1992, Gaussian, Inc.),
 the Gaussian 90(TM) system (copyright 1990, Gaussian, Inc.),
 the Gaussian 88(TM) system (copyright 1988, Gaussian, Inc.),
 the Gaussian 86(TM) system (copyright 1986, Carnegie Mellon
 University), and the Gaussian 82(TM) system (copyright 1983,
 Carnegie Mellon University). Gaussian is a federally registered
 trademark of Gaussian, Inc.
  
 This software contains proprietary and confidential information,
 including trade secrets, belonging to Gaussian, Inc.
  
 This software is provided under written license and may be
 used, copied, transmitted, or stored only in accord with that
 written license.
  
 The following legend is applicable only to US Government
 contracts under FAR:
  
                    RESTRICTED RIGHTS LEGEND
  
 Use, reproduction and disclosure by the US Government is
 subject to restrictions as set forth in subparagraphs (a)
 and (c) of the Commercial Computer Software - Restricted
 Rights clause in FAR 52.227-19.
  
 Gaussian, Inc.
 340 Quinnipiac St., Bldg. 40, Wallingford CT 06492
  
  
 ---------------------------------------------------------------
 Warning -- This program may not be used in any manner that
 competes with the business of Gaussian, Inc. or will provide
 assistance to any competitor of Gaussian, Inc.  The licensee
 of this program is prohibited from giving any competitor of
 Gaussian, Inc. access to this program.  By using this program,
 the user acknowledges that Gaussian, Inc. is engaged in the
 business of creating and licensing software in the field of
 computational chemistry and represents and warrants to the
 licensee that it is not a competitor of Gaussian, Inc. and that
 it will not use this program in any manner prohibited above.
 ---------------------------------------------------------------
  

 Cite this work as:
 Gaussian Development Version, Revision J.14,
 M. J. Frisch, G. W. Trucks, H. B. Schlegel, G. E. Scuseria, 
 M. A. Robb, J. R. Cheeseman, G. Scalmani, V. Barone, 
 G. A. Petersson, H. Nakatsuji, X. Li, A. V. Marenich, M. Caricato, 
 J. Bloino, B. G. Janesko, J. Zheng, R. Gomperts, B. Mennucci, 
 H. P. Hratchian, J. V. Ortiz, A. F. Izmaylov, J. L. Sonnenberg, 
 D. Williams-Young, F. Ding, F. Lipparini, F. Egidi, J. Goings, 
 B. Peng, A. Petrone, T. Henderson, D. Ranasinghe, V. G. Zakrzewski, 
 J. Gao, N. Rega, G. Zheng, W. Liang, M. Hada, M. Ehara, K. Toyota, 
 R. Fukuda, J. Hasegawa, M. Ishida, T. Nakajima, Y. Honda, O. Kitao, 
 H. Nakai, T. Vreven, K. Throssell, J. A. Montgomery, Jr., 
 J. E. Peralta, F. Ogliaro, M. J. Bearpark, J. J. Heyd, 
 E. N. Brothers, K. N. Kudin, V. N. Staroverov, T. A. Keith, 
 R. Kobayashi, J. Normand, K. Raghavachari, A. P. Rendell, 
 J. C. Burant, S. S. Iyengar, J. Tomasi, M. Cossi, J. M. Millam, 
 M. Klene, C. Adamo, R. Cammi, J. W. Ochterski, R. L. Martin, 
 K. Morokuma, O. Farkas, J. B. Foresman, and D. J. Fox, 
 Gaussian, Inc., Wallingford CT, 2020.
 
 ******************************************
 Gaussian DV:  ES64L-GDVRevJ.14 29-Dec-2020
                28-Nov-2023 
 ******************************************
 %mem=1GB
 %nprocshared=1
 Will use up to    1 processors via shared memory.
 %chk=4_mm_70.chk
 -----------------------------------------------------------------
 #p Amber=(SoftFirst,Print) geom=nocrowd nosymm opt=(maxcycle=300)
 -----------------------------------------------------------------
 1/6=300,10=10,18=4000020,19=15,37=210000000,38=1,56=2,64=203/1,3;
 2/9=110,12=1,15=1,40=1/2;
 3/5=30,11=9,25=1,30=1,41=10030000,43=2,71=1/1;
 4/20=11,22=1001,24=3,119=11/2;
 7/30=1,44=-1/16;
 1/6=300,10=10,18=4000020,19=15,64=203/3(2);
 2/9=110,12=1,15=1/2;
 99//99;
 2/9=110,12=1,15=1/2;
 3/5=30,11=9,25=1,30=1,41=10030000,43=2,71=1/1;
 4/16=2,20=11,22=1001,24=3,119=11/2;
 7/30=1,44=-1/16;
 1/6=300,10=10,18=4000020,19=15,64=203/3(-4);
 2/9=110,12=1,15=1/2;
 99/9=10/99;
 Leave Link    1 at Tue Nov 28 09:32:11 2023, MaxMem=   134217728 cpu:               0.0 elap:               0.0
 (Enter /home/emanuele/chem_software/gaussian//gdv/l101.exe)
 -----
 Title
 -----
 Symbolic Z-matrix:
 Charge =  0 Multiplicity = 1
 C-C-+0.299289        -0.61918  -0.20962   0.32286 
 O-OH--0.289770       -0.65234  -0.03329  -1.04412 
 C-CT--0.035454        0.80775  -0.21762   0.83306 
 H-HC-+0.090426        1.11473   0.45559   1.67917 
 H-HC-+0.095387        0.75428  -1.24785   1.26881 
 N-N3--0.336253        1.86282  -0.20367  -0.19813 
 H-H-+0.142619         1.50501  -0.79394  -0.95868 
 H-H-+0.128282         1.73752   0.66854  -0.70905 
 O-O2--0.308037       -1.64982  -0.32736   0.93778 
 H-HO-+0.213510       -1.57875  -0.01436  -1.40674 
 
 ITRead=  3  3  3  3  3  3  3  3  3  3
 MicOpt=  0  0  0  0  0  0  0  0  0  0
 NAtoms=     10 NQM=        0 NQMF=       0 NMMI=      0 NMMIF=      0
                NMic=      10 NMicF=      0.
                    Isotopes and Nuclear Properties:
 (Nuclear quadrupole moments (NQMom) in fm**2, nuclear magnetic moments (NMagM)
  in nuclear magnetons)

  Atom         1           2           3           4           5           6           7           8           9          10
 IAtWgt=          12          16          12           1           1          14           1           1          16           1
 AtmWgt=  12.0000000  15.9949146  12.0000000   1.0078250   1.0078250  14.0030740   1.0078250   1.0078250  15.9949146   1.0078250
 NucSpn=           0           0           0           1           1           2           1           1           0           1
 AtZEff=  -0.0000000  -0.0000000  -0.0000000  -0.0000000  -0.0000000  -0.0000000  -0.0000000  -0.0000000  -0.0000000  -0.0000000
 NQMom=    0.0000000   0.0000000   0.0000000   0.0000000   0.0000000   2.0440000   0.0000000   0.0000000   0.0000000   0.0000000
 NMagM=    0.0000000   0.0000000   0.0000000   2.7928460   2.7928460   0.4037610   2.7928460   2.7928460   0.0000000   2.7928460
 AtZNuc=   6.0000000   8.0000000   6.0000000   1.0000000   1.0000000   7.0000000   1.0000000   1.0000000   8.0000000   1.0000000
 Generating MM parameters.
 I=    1 IAn=  6 Valence= 5.
          JB=  1 J=    2 IAn=  8 IBT=12 Dist= 1.38D+00
          JB=  2 J=    3 IAn=  6 IBT= 1 Dist= 1.52D+00
          JB=  3 J=    9 IAn=  8 IBT= 2 Dist= 1.21D+00
 I=    2 IAn=  8 Valence= 3.
          JB=  1 J=    1 IAn=  6 IBT=12 Dist= 1.38D+00
          JB=  2 J=   10 IAn=  1 IBT= 1 Dist= 9.95D-01
 Read MM parameter file:
 Include all MM classes

 MM sanity checks:
 All charges sum to:               -0.00000100
 Charges of atoms sum to:          -0.00000100
 WARNING -- The following centers have non-zero partial charges, but zero Vanderwaals
 parameters.  These centers can collapse onto other centers with non-zero charge.
   Center  Layer   Charge
     10 H    R    0.213510
 MMInit generated parameter data with length LenPar=        2069.
 MM Charge=             -0.0000 electrons
 MM Dipole moment (Debye):
    X=              0.6249    Y=              0.0748    Z=             -0.5176  Tot=              0.8149
 MM Quadrupole moment (Debye-Ang):
   XX=             -3.0158   YY=              1.3390   ZZ=              2.0808
   XY=             -0.2902   XZ=              3.3168   YZ=              0.1312
 MM Traceless Quadrupole moment (Debye-Ang):
   XX=             -3.1504   YY=              1.2043   ZZ=              1.9461
   XY=             -0.2902   XZ=              3.3168   YZ=              0.1312
 MM Octapole moment (Debye-Ang**2):
  XXX=             -1.5105  YYY=             -0.9538  ZZZ=             -0.3593  XYY=              1.8588
  XXY=              2.2838  XXZ=             -7.1277  XZZ=              3.0335  YZZ=             -0.2007
  YYZ=              0.3269  XYZ=             -0.6863
 MM Hexadecapole moment (Debye-Ang**3):
 XXXX=            -14.2032 YYYY=              1.5075 ZZZZ=              6.5236 XXXY=              0.4231
 XXXZ=             10.1170 YYYX=             -0.8724 YYYZ=             -0.8194 ZZZX=              7.1089
 ZZZY=              0.4979 XXYY=              1.6821 XXZZ=              4.9339 YYZZ=              1.7957
 XXYZ=              1.3235 YYXZ=              0.1406 ZZXY=             -1.0901
 Leave Link  101 at Tue Nov 28 09:32:11 2023, MaxMem=   134217728 cpu:               0.2 elap:               0.2
 (Enter /home/emanuele/chem_software/gaussian//gdv/l103.exe)

 GradGradGradGradGradGradGradGradGradGradGradGradGradGradGradGradGradGrad
 Berny optimization.
 Initialization pass.
 No Z-matrix variables, so optimization will use Cartesian coordinates.
 Trust Radius=1.00D-01 FncErr=1.00D-07 GrdErr=1.00D-07 EigMax=2.50D+02 EigMin=1.00D-04
 Number of steps in this run=      2 maximum allowed number of steps=      2.
 GradGradGradGradGradGradGradGradGradGradGradGradGradGradGradGradGradGrad

 Leave Link  103 at Tue Nov 28 09:32:11 2023, MaxMem=   134217728 cpu:               0.0 elap:               0.0
 (Enter /home/emanuele/chem_software/gaussian//gdv/l202.exe)
                          Input orientation:                          
 ---------------------------------------------------------------------
 Center     Atomic      Atomic             Coordinates (Angstroms)
 Number     Number       Type             X           Y           Z
 ---------------------------------------------------------------------
      1          6    20001002       -0.619177   -0.209619    0.322857
      2          8    20001022       -0.652341   -0.033286   -1.044123
      3          6    20001001        0.807750   -0.217621    0.833055
      4          1    20001034        1.114731    0.455586    1.679170
      5          1    20001034        0.754276   -1.247852    1.268812
      6          7    20001020        1.862824   -0.203673   -0.198126
      7          1    20001029        1.505007   -0.793936   -0.958680
      8          1    20001029        1.737524    0.668537   -0.709052
      9          8    20001025       -1.649820   -0.327359    0.937780
     10          1    20001031       -1.578749   -0.014364   -1.406741
 ---------------------------------------------------------------------
                    Distance matrix (angstroms):
                    1          2          3          4          5
     1  C    0.000000
     2  O    1.378705   0.000000
     3  C    1.515416   2.385297   0.000000
     4  H    2.299678   3.282966   1.123991   0.000000
     5  H    1.964467   2.967054   1.119875   1.788861   0.000000
     6  N    2.536097   2.659097   1.475368   2.125678   2.114497
     7  H    2.548710   2.289113   2.007142   2.944804   2.394025
     8  H    2.718462   2.513222   2.006950   2.477261   2.924255
     9  O    1.205910   2.238165   2.462247   2.967390   2.595490
    10  H    1.987564   0.995028   3.279234   4.122928   3.758069
                    6          7          8          9         10
     6  N    0.000000
     7  H    1.027076   0.000000
     8  H    1.018575   1.501734   0.000000
     9  O    3.693812   3.710416   3.895891   0.000000
    10  H    3.652535   3.212171   3.456992   2.366389   0.000000
 Symmetry turned off by external request.
 Stoichiometry    C2H5NO2
 Framework group  C1[X(C2H5NO2)]
 Deg. of freedom    24
 Full point group                 C1      NOp   1
 Rotational constants (GHZ):          10.0521583           4.0447617           2.9772818
 Leave Link  202 at Tue Nov 28 09:32:11 2023, MaxMem=   134217728 cpu:               0.0 elap:               0.0
 (Enter /home/emanuele/chem_software/gaussian//gdv/l301.exe)
 Standard basis: Dummy (5D, 7F)
    10 basis functions,    10 primitive gaussians,    10 cartesian basis functions
     7 alpha electrons        7 beta electrons
       nuclear repulsion energy        22.9035046902 Hartrees.
 IExCor=       0 DFT=F Ex=HF Corr=None N6=None ScaHFX=  1.000000
 ScaDFX=  1.000000  1.000000  1.000000  1.000000  1.000000  0.000000
 ScaDFX=  0.000000  0.000000  0.000000  0.000000  0.000000  0.000000
 IRadAn=      5 IRanWt=     -1 IRanGd=            0 ICorTp=0 IEmpDi=  4
 NAtoms=   10 NActive=   10 NUniq=   10 SFac= 1.00D+00 NAtFMM=   60 NAOKFM=F Big=F
 Integral buffers will be    131072 words long.
 Raffenetti 1 integral format.
 Two-electron integral symmetry is turned off.
 Leave Link  301 at Tue Nov 28 09:32:11 2023, MaxMem=   134217728 cpu:               0.0 elap:               0.0
 (Enter /home/emanuele/chem_software/gaussian//gdv/l402.exe)
 AMBER calculation of energy and first derivatives.
 NRF= 0 NRA=   0 NVA=  10 HaveQM=F NVQ=       0
 Convergence limit is  0.750E-04 MaxStp= 10000 StMxLn= 3.00D-04 StpMin= 1.00D-06.
 Convergence criteria             0.00011250 0.00007500 0.00045000 0.00030000
  Step  NS  ND Rises OKQ   Scale  Max. Force  RMS Force Max. Disp.  RMS Disp.     Energy   Flag
     1   0   0   F    T  1.00D+00 0.03554184 0.01647715 0.03554184 0.01647715    0.1012393 ----
     2   0   0   F    F  3.62D-01 0.03554184 0.01647715 0.01286426 0.00596385    0.0960878 ----
     3   0   0   F    T  2.64D+00 0.01663998 0.00771171 0.05764768 0.02244101    0.0956966 ----
     4   0   0   F    F  1.18D+00 0.01663998 0.00771171 0.06826026 0.02657226    0.0920643 ----
     5   0   0   F    F -7.31D-03 0.01663998 0.00771171 0.00049880 0.00019417    0.0905544 ---+
     6   0   0   F    T  2.63D+00 0.02572249 0.01036742 0.12546840 0.04881909    0.0905543 ----
     7   0   0   F    F -3.16D-01 0.02572249 0.01036742 0.03962176 0.01541662    0.0882630 ----
     8   0   0   F    T  4.84D+00 0.01296531 0.00548525 0.06821261 0.03340247    0.0876205 ----
     9   0   0   T    F  4.35D-01 0.01296531 0.00548525 0.02964262 0.01451545    0.0882018 ----
    10   0   0   F    T  1.06D+00 0.01981275 0.00711040 0.03974751 0.01451545    0.0866810 ----
    11   0   0   F    F  1.31D+00 0.01981275 0.00711040 0.05225013 0.01908130    0.0854187 ----
    12   0   0   F    F -2.48D-02 0.01981275 0.00711040 0.00129328 0.00047230    0.0848290 ----
    13   0   0   F    T  1.25D+00 0.02229377 0.00932200 0.10807204 0.03312445    0.0848286 ----
    14   0   0   F    F  6.75D-02 0.02229377 0.00932200 0.00729056 0.00223458    0.0828154 ----
    15   0   0   F    T  4.84D+00 0.01371431 0.00686579 0.08880811 0.03535903    0.0828048 ----
    16   0   0   T    F  3.59D-01 0.01371431 0.00686579 0.03184582 0.01267944    0.0854404 ----
    17   0   0   F    T  1.00D+00 0.02207619 0.00819033 0.03371854 0.01315768    0.0815819 ----
    18   0   0   F    F  1.24D+00 0.02207619 0.00819033 0.04164761 0.01625177    0.0800137 ----
    19   0   0   F    T  1.77D+00 0.02072655 0.00842305 0.07443557 0.02940945    0.0793209 ----
    20   0   0   F    F -9.75D-02 0.02072655 0.00842305 0.00726109 0.00286885    0.0776216 ----
    21   0   0   F    T  4.70D+00 0.01232614 0.00449361 0.06280220 0.02654060    0.0776009 ----
    22   0   0   F    F -4.99D-01 0.01232614 0.00449361 0.03130809 0.01323099    0.0775512 ----
    23   0   0   F    T  2.05D+00 0.00872053 0.00416693 0.03059976 0.01330961    0.0768975 ----
    24   0   0   F    F -1.77D-01 0.00872053 0.00416693 0.00540234 0.00234979    0.0764758 ----
    25   0   0   F    T  1.35D+00 0.01309853 0.00425393 0.02668952 0.01095982    0.0764553 ----
    26   0   0   F    F -7.79D-02 0.01309853 0.00425393 0.00207906 0.00085375    0.0761167 ----
    27   0   0   F    T  4.58D+00 0.00589916 0.00185775 0.03154432 0.01010607    0.0761142 ----
    28   0   0   T    F  3.99D-01 0.00589916 0.00185775 0.01258587 0.00403222    0.0762324 ----
    29   0   0   F    T  1.85D+00 0.00409837 0.00154420 0.01373363 0.00403222    0.0760197 ----
    30   0   0   F    F  2.55D-01 0.00409837 0.00154420 0.00350634 0.00102947    0.0759397 ----
    31   0   0   F    T  1.13D+00 0.00527670 0.00208303 0.01254622 0.00506169    0.0759363 ----
    32   0   0   F    F  2.63D-01 0.00527670 0.00208303 0.00329936 0.00133110    0.0758474 ----
    33   0   0   F    T  3.52D+00 0.00336025 0.00117260 0.01642771 0.00639279    0.0758433 ----
    34   0   0   F    F -4.06D-01 0.00336025 0.00117260 0.00666233 0.00259262    0.0758202 ----
    35   0   0   F    T  2.71D+00 0.00193728 0.00090366 0.00869998 0.00380017    0.0758002 ----
    36   0   0   F    F -3.04D-01 0.00193728 0.00090366 0.00264506 0.00115537    0.0757816 ----
    37   0   0   F    T  1.39D+00 0.00246482 0.00097180 0.00619807 0.00264480    0.0757771 ----
    38   0   0   F    F -9.21D-02 0.00246482 0.00097180 0.00057094 0.00024363    0.0757594 ---+
    39   0   0   F    T  1.97D+00 0.00135464 0.00070500 0.00599838 0.00240117    0.0757592 ----
    40   0   0   F    F  1.91D+00 0.00135464 0.00070500 0.01145839 0.00458683    0.0757349 ----
    41   0   0   F    T  2.12D+00 0.00447627 0.00112156 0.01844528 0.00698800    0.0757164 ----
    42   0   0   F    F -1.68D-02 0.00447627 0.00112156 0.00030979 0.00011736    0.0756769 --++
    43   0   0   F    T  1.52D+00 0.00381742 0.00129615 0.02112301 0.00687064    0.0756769 ----
    44   0   0   F    F -6.39D-02 0.00381742 0.00129615 0.00135044 0.00043926    0.0756414 ----
    45   0   0   F    T  1.73D+00 0.00340584 0.00114573 0.02002513 0.00643138    0.0756413 ----
    46   0   0   F    F  3.66D+00 0.00340584 0.00114573 0.07331425 0.02354602    0.0755810 ----
    47   0   0   F    F -3.35D-02 0.00340584 0.00114573 0.00245353 0.00078799    0.0754894 ----
    48   0   0   F    T  2.99D+00 0.00479966 0.00175041 0.09193325 0.02918942    0.0754893 ----
    49   0   0   T    F  5.01D-01 0.00479966 0.00175041 0.04608582 0.01463255    0.0754972 ----
    50   0   0   F    T  3.07D+00 0.00275025 0.00131825 0.04978735 0.01463255    0.0754183 ----
    51   0   0   F    F -4.34D-01 0.00275025 0.00131825 0.02162206 0.00635475    0.0753991 ----
    52   0   0   F    T  1.00D+00 0.00441121 0.00175692 0.02894717 0.00864500    0.0753734 ----
    53   0   0   F    F  5.47D+00 0.00441121 0.00175692 0.15837353 0.04729788    0.0752875 ----
    54   0   0   F    F -1.28D-01 0.00441121 0.00175692 0.02022035 0.00603876    0.0750887 ----
    55   0   0   F    F -2.60D-02 0.00441121 0.00175692 0.00052621 0.00015715    0.0750837 ---+
    56   0   0   F    T  3.52D+00 0.00445875 0.00204284 0.17289511 0.05006127    0.0750837 ----
    57   0   0   F    F -4.26D-01 0.00445875 0.00204284 0.07373070 0.02134851    0.0750249 ----
    58   0   0   F    F -4.20D-03 0.00445875 0.00204284 0.00030987 0.00008972    0.0749597 --++
    59   0   0   F    T  2.52D+00 0.00445855 0.00189482 0.10035344 0.02880249    0.0749597 ----
    60   0   0   F    F  1.39D-01 0.00445855 0.00189482 0.01392114 0.00399551    0.0747985 ----
    61   0   0   F    T  1.33D+00 0.00708569 0.00283423 0.11497705 0.03279800    0.0747958 ----
    62   0   0   F    F  9.77D-01 0.00708569 0.00283423 0.11231803 0.03203950    0.0745697 ----
    63   0   0   F    F -1.71D-01 0.00708569 0.00283423 0.01924261 0.00548909    0.0745147 ----
    64   0   0   F    F -1.59D-02 0.00708569 0.00283423 0.00030583 0.00008724    0.0745121 --++
    65   0   0   F    T  5.86D+00 0.00608722 0.00244348 0.19948530 0.05943565    0.0745121 ----
    66   0   0   T    F  3.59D-01 0.00608722 0.00244348 0.07167534 0.02135531    0.0749681 ----
    67   0   0   F    T  2.60D+00 0.00461193 0.00219701 0.06754025 0.02135531    0.0743226 ----
    68   0   0   F    F  1.72D+00 0.00461193 0.00219701 0.11618537 0.03673623    0.0740282 ----
    69   0   0   F    F -5.90D-02 0.00461193 0.00219701 0.00685121 0.00216626    0.0738569 ----
    70   0   0   F    T  3.84D+00 0.00971142 0.00288310 0.17505325 0.05592528    0.0738563 ----
    71   0   0   F    F -1.86D-01 0.00971142 0.00288310 0.03257533 0.01040703    0.0734749 ----
    72   0   0   F    F -1.13D-02 0.00971142 0.00288310 0.00036970 0.00011811    0.0734521 --++
    73   0   0   F    T  2.73D+00 0.00990788 0.00303040 0.13957224 0.04563636    0.0734521 ----
    74   0   0   F    F -2.63D-01 0.00990788 0.00303040 0.03674465 0.01201451    0.0732129 ----
    75   0   0   F    T  2.05D+00 0.00725278 0.00300751 0.10333509 0.03362185    0.0731799 ----
    76   0   0   F    F -3.92D-01 0.00725278 0.00300751 0.04052243 0.01318467    0.0730837 ----
    77   0   0   F    T  1.94D+00 0.00583429 0.00244628 0.05797941 0.02043718    0.0730077 ----
    78   0   0   F    F  1.95D+00 0.00583429 0.00244628 0.11296468 0.03981895    0.0727193 ----
    79   0   0   F    F -4.51D-02 0.00583429 0.00244628 0.00509074 0.00179444    0.0725030 ----
    80   0   0   F    T  2.81D+00 0.00903012 0.00364608 0.15769728 0.05846169    0.0725025 ----
    81   0   0   F    F -2.22D-02 0.00903012 0.00364608 0.00349966 0.00129740    0.0719519 ----
    82   0   0   F    T  5.45D+00 0.00519592 0.00265191 0.12668757 0.05716430    0.0719516 ----
    83   0   0   T    F  3.41D-01 0.00519592 0.00265191 0.04324406 0.01951270    0.0723875 ----
    84   0   0   F    T  1.97D+00 0.00676766 0.00238916 0.04209156 0.01951270    0.0717594 ----
    85   0   0   F    F -1.68D-01 0.00676766 0.00238916 0.00706126 0.00327344    0.0716248 ----
    86   0   0   F    T  1.29D+00 0.00653700 0.00262035 0.03052174 0.01623926    0.0716191 ----
    87   0   0   F    F  1.75D+00 0.00653700 0.00262035 0.05337460 0.02839825    0.0714005 ----
    88   0   0   F    F -1.93D-02 0.00653700 0.00262035 0.00103179 0.00054897    0.0712522 ----
    89   0   0   F    T  3.53D+00 0.00744984 0.00256904 0.08227772 0.04408854    0.0712521 ----
    90   0   0   F    F -3.17D-01 0.00744984 0.00256904 0.02608837 0.01397946    0.0710651 ----
    91   0   0   F    T  2.42D+00 0.00830793 0.00256540 0.06164588 0.03010908    0.0710143 ----
    92   0   0   F    F -2.04D-01 0.00830793 0.00256540 0.01259675 0.00615250    0.0708343 ----
    93   0   0   F    T  1.09D+00 0.00861895 0.00339905 0.04961571 0.02395657    0.0708210 ----
    94   0   0   F    F  1.38D+00 0.00861895 0.00339905 0.06839660 0.03302478    0.0705336 ----
    95   0   0   F    F -4.31D-02 0.00861895 0.00339905 0.00294748 0.00142317    0.0704036 ----
    96   0   0   F    T  5.01D+00 0.00607300 0.00259694 0.12777034 0.05555819    0.0704033 ----
    97   0   0   T    F  3.23D-01 0.00607300 0.00259694 0.04124016 0.01793240    0.0709568 ----
    98   0   0   F    T  2.56D+00 0.00483613 0.00194662 0.04054548 0.01793240    0.0702400 ----
    99   0   0   T    F  4.15D-01 0.00483613 0.00194662 0.01684585 0.00745056    0.0703004 ----
   100   0   0   F    T  1.81D+00 0.00330613 0.00145991 0.01748630 0.00745056    0.0701795 ----
   101   0   0   F    F  4.60D-01 0.00330613 0.00145991 0.00804019 0.00342576    0.0701035 ----
   102   0   0   F    T  2.66D+00 0.00487625 0.00141002 0.02628413 0.01087632    0.0700952 ----
   103   0   0   F    F -1.60D-01 0.00487625 0.00141002 0.00419496 0.00173587    0.0700310 ----
   104   0   0   F    T  2.36D+00 0.00311776 0.00131930 0.02255117 0.00914046    0.0700286 ----
   105   0   0   T    F  3.61D-01 0.00311776 0.00131930 0.00814103 0.00329973    0.0700761 ----
   106   0   0   F    T  2.65D+00 0.00213318 0.00068493 0.00893020 0.00329973    0.0700063 ----
   107   0   0   F    F  1.19D-01 0.00213318 0.00068493 0.00106655 0.00039409    0.0699857 ----
   108   0   0   F    T  2.70D+00 0.00144596 0.00067155 0.01132000 0.00369382    0.0699855 ----
   109   0   0   F    F -3.68D-01 0.00144596 0.00067155 0.00416958 0.00136057    0.0699779 ----
   110   0   0   F    T  1.20D+00 0.00284076 0.00076590 0.00766245 0.00233325    0.0699739 ----
   111   0   0   F    F  4.52D-01 0.00284076 0.00076590 0.00346189 0.00105416    0.0699601 ----
   112   0   0   F    T  1.84D+00 0.00191626 0.00071410 0.01174541 0.00338741    0.0699586 ----
   113   0   0   F    F  5.32D-01 0.00191626 0.00071410 0.00624919 0.00180229    0.0699395 ----
   114   0   0   F    T  2.75D+00 0.00162193 0.00069946 0.01912429 0.00518970    0.0699369 ----
   115   0   0   F    F -2.78D-01 0.00162193 0.00069946 0.00531241 0.00144161    0.0699245 ----
   116   0   0   F    T  1.08D+00 0.00308949 0.00093151 0.01406952 0.00374809    0.0699224 ----
   117   0   0   F    F  7.04D-01 0.00308949 0.00093151 0.00991123 0.00264033    0.0699025 ----
   118   0   0   F    T  2.38D+00 0.00179737 0.00079976 0.02350476 0.00638841    0.0698984 ----
   119   0   0   F    F  7.74D-01 0.00179737 0.00079976 0.01819142 0.00494429    0.0698660 ----
   120   0   0   F    T  1.94D+00 0.00254244 0.00115242 0.04049026 0.01133270    0.0698586 ----
   121   0   0   F    F -1.73D-01 0.00254244 0.00115242 0.00702410 0.00196596    0.0698279 ----
   122   0   0   F    T  1.23D+00 0.00313176 0.00129158 0.03283849 0.00936675    0.0698265 ----
   123   0   0   F    F  9.53D-01 0.00313176 0.00129158 0.03130839 0.00893031    0.0697795 ----
   124   0   0   F    T  1.33D+00 0.00333292 0.00178452 0.06396510 0.01829705    0.0697641 ----
   125   0   0   F    F  2.04D+00 0.00333292 0.00178452 0.13058987 0.03735490    0.0696457 ----
   126   0   0   F    F -8.65D-02 0.00333292 0.00178452 0.01129782 0.00323171    0.0695276 ----
   127   0   0   F    T  1.10D+00 0.00898945 0.00389971 0.18283023 0.05242024    0.0695260 ----
   128   0   0   F    F -2.20D-01 0.00898945 0.00389971 0.04022344 0.01153268    0.0693240 ----
   129   0   0   F    F -1.42D-02 0.00898945 0.00389971 0.00056992 0.00016340    0.0692986 ---+
   130   0   0   F    T  1.63D+00 0.01403636 0.00480901 0.13917958 0.04105096    0.0692986 ----
   131   0   0   F    F  5.18D+00 0.01403636 0.00480901 0.72036638 0.21247180    0.0684711 ----
   132   0   0   T    F  2.36D-01 0.01403636 0.00480901 0.17029840 0.05022945    0.0836278 ----
   133   0   0   F    F -7.56D-02 0.01403636 0.00480901 0.01287347 0.00379703    0.0681186 ----
   134   0   0   F    F -6.36D-02 0.01403636 0.00480901 0.00081921 0.00024162    0.0681160 ---+
   135   0   0   F    T  1.94D+00 0.01384411 0.00714121 0.28830806 0.08772501    0.0681160 ----
   136   0   0   F    F -4.06D-01 0.01384411 0.00714121 0.11712133 0.03563712    0.0677701 ----
   137   0   0   F    F -9.78D-03 0.01384411 0.00714121 0.00114502 0.00034840    0.0671553 ----
   138   0   0   F    T  1.63D+00 0.01492702 0.00705486 0.15752014 0.05243629    0.0671552 ----
   139   0   0   F    F  1.11D+00 0.01492702 0.00705486 0.17555052 0.05843835    0.0652541 ----
   140   0   0   F    F -2.88D-01 0.01492702 0.00705486 0.05055118 0.01682779    0.0647887 ----
   141   0   0   F    F -8.36D-03 0.01492702 0.00705486 0.00042265 0.00014069    0.0646648 --++
   142   0   0   F    T  3.51D+00 0.02147529 0.00878355 0.30174059 0.09418754    0.0646648 ----
   143   0   0   F    F  9.65D-02 0.02147529 0.00878355 0.02911849 0.00908926    0.0599468 ----
   144   0   0   F    F -1.65D-01 0.02147529 0.00878355 0.00480872 0.00150103    0.0599134 ----
   145   0   0   F    T  2.27D+00 0.02776939 0.01252153 0.34050107 0.10177578    0.0599120 ----
   146   0   0   F    F -3.45D-01 0.02776939 0.01252153 0.11760924 0.03515340    0.0574064 ----
   147   0   0   F    F -1.80D-02 0.02776939 0.01252153 0.00212197 0.00063426    0.0563593 ----
   148   0   0   F    T  1.71D+00 0.02814674 0.01240339 0.22142694 0.06725663    0.0563590 ----
   149   0   0   F    F  4.12D-02 0.02814674 0.01240339 0.00911285 0.00276795    0.0524490 ----
   150   0   0   F    F -3.64D-02 0.02814674 0.01240339 0.00033198 0.00010084    0.0524437 --++
   151   0   0   F    T  2.87D+00 0.01890666 0.00841497 0.20340190 0.06992375    0.0524437 ----
   152   0   0   F    F -1.95D-01 0.01890666 0.00841497 0.03960693 0.01361573    0.0501102 ----
   153   0   0   F    F -1.60D-02 0.01890666 0.00841497 0.00063288 0.00021757    0.0499642 ---+
   154   0   0   F    T  2.80D+00 0.01781295 0.00697863 0.15311505 0.05652559    0.0499641 ----
   155   0   0   T    F  4.27D-01 0.01781295 0.00697863 0.06534527 0.02412356    0.0506178 ----
   156   0   0   F    T  2.42D+00 0.01034975 0.00447057 0.07168436 0.02412356    0.0490993 ----
   157   0   0   F    F -2.80D-01 0.01034975 0.00447057 0.02005556 0.00674919    0.0486574 ----
   158   0   0   F    T  2.80D+00 0.00716841 0.00311876 0.04367199 0.01737437    0.0485813 ----
   159   0   0   F    F -9.90D-02 0.00716841 0.00311876 0.00432518 0.00172072    0.0482181 ----
   160   0   0   F    T  3.81D+00 0.00604445 0.00228679 0.04607664 0.01565365    0.0482137 ----
   161   0   0   T    F  4.44D-01 0.00604445 0.00228679 0.02046782 0.00695355    0.0482898 ----
   162   0   0   F    T  1.52D+00 0.00530768 0.00225186 0.02075910 0.00695355    0.0480808 ----
   163   0   0   F    F -6.93D-02 0.00530768 0.00225186 0.00143852 0.00048185    0.0479739 ----
   164   0   0   F    T  2.96D+00 0.00253664 0.00137569 0.01675903 0.00647169    0.0479733 ----
   165   0   0   F    F -1.35D-01 0.00253664 0.00137569 0.00225763 0.00087181    0.0479022 ----
   166   0   0   F    T  2.57D+00 0.00293713 0.00124849 0.01437131 0.00559989    0.0479004 ----
   167   0   0   F    F  4.87D-02 0.00293713 0.00124849 0.00069955 0.00027259    0.0478375 ---+
   168   0   0   F    T  1.50D+00 0.00356625 0.00159795 0.01618581 0.00587247    0.0478373 ----
   169   0   0   F    F  3.16D-01 0.00356625 0.00159795 0.00510835 0.00185339    0.0477658 ----
   170   0   0   F    T  1.62D+00 0.00433752 0.00171634 0.02137488 0.00772586    0.0477615 ----
   171   0   0   F    F  4.04D-01 0.00433752 0.00171634 0.00863625 0.00312154    0.0476698 ----
   172   0   0   F    T  2.06D+00 0.00363260 0.00174944 0.03113934 0.01084741    0.0476617 ----
   173   0   0   F    F  4.23D-01 0.00363260 0.00174944 0.01317300 0.00458882    0.0475369 ----
   174   0   0   F    T  3.69D+00 0.00318362 0.00152681 0.03834719 0.01543623    0.0475245 ----
   175   0   0   T    F  4.93D-01 0.00318362 0.00152681 0.01890732 0.00761093    0.0475251 ----
   176   0   0   F    T  1.80D+00 0.00369951 0.00147811 0.01880781 0.00761093    0.0474619 ----
   177   0   0   F    F -1.70D-01 0.00369951 0.00147811 0.00319567 0.00129319    0.0474151 ----
   178   0   0   F    T  2.20D+00 0.00263051 0.00112700 0.01696950 0.00631774    0.0474131 ----
   179   0   0   F    F  1.77D-01 0.00263051 0.00112700 0.00300718 0.00111957    0.0473642 ----
   180   0   0   F    T  2.18D+00 0.00232449 0.00119986 0.01686502 0.00743731    0.0473630 ----
   181   0   0   F    F  2.33D-01 0.00232449 0.00119986 0.00393339 0.00173458    0.0473079 ----
   182   0   0   F    T  3.28D+00 0.00234839 0.00105091 0.02015750 0.00917189    0.0473059 ----
   183   0   0   T    F  4.78D-01 0.00234839 0.00105091 0.00962748 0.00438061    0.0473106 ----
   184   0   0   F    T  1.70D+00 0.00309721 0.00095547 0.01013739 0.00438061    0.0472800 ----
   185   0   0   F    F -1.33D-01 0.00309721 0.00095547 0.00134801 0.00058251    0.0472603 ----
   186   0   0   F    T  3.39D+00 0.00106995 0.00057715 0.00926417 0.00379811    0.0472598 ----
   187   0   0   F    F -2.57D-01 0.00106995 0.00057715 0.00238185 0.00097651    0.0472488 ----
   188   0   0   F    T  2.84D+00 0.00110788 0.00050141 0.00666743 0.00282160    0.0472473 ----
   189   0   0   F    F -8.07D-02 0.00110788 0.00050141 0.00053818 0.00022775    0.0472375 ---+
   190   0   0   F    T  1.56D+00 0.00141311 0.00062284 0.00573633 0.00259385    0.0472374 ----
   191   0   0   F    F  1.79D-01 0.00141311 0.00062284 0.00102611 0.00046398    0.0472269 ----
   192   0   0   F    T  1.57D+00 0.00144216 0.00065707 0.00770037 0.00305783    0.0472267 ----
   193   0   0   F    F  7.46D-01 0.00144216 0.00065707 0.00574626 0.00228185    0.0472123 ----
   194   0   0   F    T  1.99D+00 0.00192427 0.00074905 0.01513830 0.00533968    0.0472091 ----
   195   0   0   F    F  9.87D-01 0.00192427 0.00074905 0.01494119 0.00527015    0.0471834 ----
   196   0   0   F    T  2.58D+00 0.00187396 0.00092028 0.03118658 0.01060983    0.0471747 ----
   197   0   0   F    F -1.96D-01 0.00187396 0.00092028 0.00610810 0.00207801    0.0471500 ----
   198   0   0   F    T  1.86D+00 0.00271399 0.00099832 0.02421592 0.00853183    0.0471484 ----
   199   0   0   F    F -2.15D-01 0.00271399 0.00099832 0.00521822 0.00183850    0.0471283 ----
   200   0   0   F    T  2.45D+00 0.00176668 0.00074912 0.01693642 0.00669333    0.0471267 ----
   201   0   0   F    F  1.90D-01 0.00176668 0.00074912 0.00321881 0.00127209    0.0471023 ----
   202   0   0   F    T  2.65D+00 0.00206730 0.00078693 0.01906346 0.00796541    0.0471017 ----
   203   0   0   F    F -3.03D-01 0.00206730 0.00078693 0.00577880 0.00241460    0.0470878 ----
   204   0   0   F    T  1.82D+00 0.00230302 0.00079553 0.01379421 0.00555082    0.0470845 ----
   205   0   0   F    F  2.12D-01 0.00230302 0.00079553 0.00291759 0.00117404    0.0470642 ----
   206   0   0   F    T  1.98D+00 0.00246950 0.00082664 0.01686535 0.00672486    0.0470636 ----
   207   0   0   F    F -1.49D-01 0.00246950 0.00082664 0.00250752 0.00099984    0.0470467 ----
   208   0   0   F    T  3.16D+00 0.00145473 0.00060578 0.01171880 0.00572502    0.0470462 ----
   209   0   0   F    F -1.71D-01 0.00145473 0.00060578 0.00199828 0.00097623    0.0470323 ----
   210   0   0   F    T  2.26D+00 0.00187833 0.00063704 0.00831712 0.00474879    0.0470317 ----
   211   0   0   F    F -4.30D-01 0.00187833 0.00063704 0.00357563 0.00204156    0.0470283 ----
   212   0   0   F    T  2.33D+00 0.00097013 0.00044832 0.00486534 0.00270723    0.0470239 ----
   213   0   0   F    T  2.52D+00 0.00080680 0.00041344 0.00586535 0.00270723    0.0470168 ----
   214   0   0   F    F -1.46D-01 0.00080680 0.00041344 0.00085506 0.00039467    0.0470115 ----
   215   0   0   F    T  1.99D+00 0.00101002 0.00041135 0.00561993 0.00231256    0.0470113 ----
   216   0   0   F    T  1.66D+00 0.00119538 0.00044046 0.00571964 0.00231256    0.0470062 ----
   217   0   0   F    F  2.16D-01 0.00119538 0.00044046 0.00123768 0.00050042    0.0470006 ----
   218   0   0   F    T  2.68D+00 0.00077378 0.00037199 0.00650038 0.00281298    0.0470004 ----
   219   0   0   F    F  1.16D-01 0.00077378 0.00037199 0.00075475 0.00032661    0.0469942 ----
   220   0   0   F    T  2.10D+00 0.00109934 0.00043513 0.00652960 0.00313959    0.0469942 ----
   221   0   0   F    F -2.26D-01 0.00109934 0.00043513 0.00147713 0.00071024    0.0469899 ----
   222   0   0   F    T  1.69D+00 0.00104597 0.00041992 0.00442339 0.00242935    0.0469895 ----
   223   0   0   F    F  3.61D-01 0.00104597 0.00041992 0.00159668 0.00087690    0.0469839 ----
   224   0   0   F    T  3.13D+00 0.00071733 0.00035087 0.00629611 0.00330626    0.0469835 ----
   225   0   0   F    F -9.55D-02 0.00071733 0.00035087 0.00060117 0.00031569    0.0469783 ----
   226   0   0   F    T  1.83D+00 0.00116570 0.00042877 0.00651000 0.00299056    0.0469782 ----
   227   0   0   F    F -2.04D-01 0.00116570 0.00042877 0.00132652 0.00060938    0.0469745 ----
   228   0   0   F    T  2.21D+00 0.00093180 0.00033851 0.00586992 0.00238119    0.0469742 ----
   229   0   0   F    F  1.48D-01 0.00093180 0.00033851 0.00086935 0.00035266    0.0469699 ----
   230   0   0   F    T  2.50D+00 0.00065735 0.00033272 0.00691569 0.00273385    0.0469699 ----
   231   0   0   F    F -2.22D-01 0.00065735 0.00033272 0.00153466 0.00060667    0.0469669 ----
   232   0   0   F    T  2.62D+00 0.00068916 0.00027777 0.00528750 0.00212718    0.0469666 ----
   233   0   0   F    F -3.26D-01 0.00068916 0.00027777 0.00172157 0.00069260    0.0469650 ----
   234   0   0   F    T  1.40D+00 0.00076027 0.00030561 0.00302867 0.00143459    0.0469646 ----
   235   0   0   F    F  1.06D+00 0.00076027 0.00030561 0.00321635 0.00152348    0.0469616 ----
   236   0   0   F    T  2.63D+00 0.00065056 0.00031254 0.00680364 0.00295807    0.0469605 ----
   237   0   0   F    F  3.27D-01 0.00065056 0.00031254 0.00222280 0.00096642    0.0469557 ----
   238   0   0   F    T  1.66D+00 0.00138755 0.00044894 0.00869471 0.00392449    0.0469554 ----
   239   0   0   F    F -8.52D-02 0.00138755 0.00044894 0.00074077 0.00033436    0.0469509 ----
   240   0   0   F    T  2.17D+00 0.00100485 0.00037185 0.00784032 0.00359013    0.0469508 ----
   241   0   0   F    F  3.10D-01 0.00100485 0.00037185 0.00243407 0.00111458    0.0469453 ----
   242   0   0   F    T  2.50D+00 0.00074212 0.00039094 0.00971103 0.00470471    0.0469450 ----
   243   0   0   F    F -3.52D-02 0.00074212 0.00039094 0.00034171 0.00016555    0.0469394 --++
   244   0   0   F    T  1.76D+00 0.00135148 0.00045290 0.01008144 0.00453916    0.0469394 ----
   245   0   0   F    F  2.49D-01 0.00135148 0.00045290 0.00250658 0.00112859    0.0469330 ----
   246   0   0   F    T  1.48D+00 0.00134716 0.00054962 0.01145298 0.00566775    0.0469327 ----
   247   0   0   F    F  8.21D-01 0.00134716 0.00054962 0.00940849 0.00465598    0.0469229 ----
   248   0   0   F    T  2.56D+00 0.00140207 0.00055761 0.02274917 0.01032373    0.0469203 ----
   249   0   0   F    F  3.40D-01 0.00140207 0.00055761 0.00774182 0.00351329    0.0469056 ----
   250   0   0   F    T  1.75D+00 0.00197945 0.00078693 0.02865037 0.01383702    0.0469047 ----
   251   0   0   F    F -5.70D-02 0.00197945 0.00078693 0.00163420 0.00078926    0.0468890 ----
   252   0   0   F    T  1.66D+00 0.00171055 0.00080035 0.02846209 0.01304777    0.0468889 ----
   253   0   0   F    F  1.33D+00 0.00171055 0.00080035 0.03785300 0.01735281    0.0468661 ----
   254   0   0   F    F -9.61D-02 0.00171055 0.00080035 0.00363756 0.00166755    0.0468578 ----
   255   0   0   F    T  3.58D+00 0.00201311 0.00080059 0.05766329 0.02873303    0.0468577 ----
   256   0   0   F    F -3.73D-01 0.00201311 0.00080059 0.02150852 0.01071748    0.0468447 ----
   257   0   0   F    T  1.86D+00 0.00214958 0.00090306 0.03685449 0.01801555    0.0468346 ----
   258   0   0   F    F  1.01D-01 0.00214958 0.00090306 0.00373757 0.00182703    0.0468102 ----
   259   0   0   F    T  1.83D+00 0.00262003 0.00101143 0.03854872 0.01984258    0.0468100 ----
   260   0   0   F    F  2.61D-02 0.00262003 0.00101143 0.00100497 0.00051730    0.0467809 ----
   261   0   0   F    T  3.18D+00 0.00208758 0.00078551 0.04213800 0.02035988    0.0467809 ----
   262   0   0   F    F -2.94D-01 0.00208758 0.00078551 0.01236784 0.00597579    0.0467638 ----
   263   0   0   F    T  1.48D+00 0.00256149 0.00094969 0.02871325 0.01438409    0.0467604 ----
   264   0   0   F    F  6.87D-01 0.00256149 0.00094969 0.01972999 0.00988387    0.0467310 ----
   265   0   0   F    F -2.24D-02 0.00256149 0.00094969 0.00044234 0.00022159    0.0467248 --++
   266   0   0   F    T  1.91D+00 0.00225569 0.00110390 0.05179468 0.02404636    0.0467248 ----
   267   0   0   F    F -9.77D-02 0.00225569 0.00110390 0.00506023 0.00234928    0.0466934 ----
   268   0   0   F    T  4.46D+00 0.00185770 0.00083406 0.05156462 0.02169708    0.0466930 ----
   269   0   0   F    F  1.46D-01 0.00185770 0.00083406 0.00752716 0.00316724    0.0466415 ----
   270   0   0   F    T  2.29D+00 0.00286839 0.00122202 0.06268800 0.02486432    0.0466407 ----
   271   0   0   F    F -3.27D-01 0.00286839 0.00122202 0.02049116 0.00812754    0.0466144 ----
   272   0   0   F    T  2.39D+00 0.00227474 0.00090590 0.04019159 0.01673679    0.0466069 ----
   273   0   0   F    F -3.93D-01 0.00227474 0.00090590 0.01577632 0.00656966    0.0465967 ----
   274   0   0   F    T  1.98D+00 0.00181578 0.00077706 0.02504396 0.01016713    0.0465887 ----
   275   0   0   F    F  6.82D-01 0.00181578 0.00077706 0.01708394 0.00693559    0.0465641 ----
   276   0   0   F    T  2.35D+00 0.00267822 0.00092622 0.04041997 0.01710272    0.0465595 ----
   277   0   0   F    F  1.05D-01 0.00267822 0.00092622 0.00425784 0.00180160    0.0465264 ----
   278   0   0   F    T  4.00D+00 0.00143469 0.00069779 0.04194022 0.01890432    0.0465261 ----
   279   0   0   F    F  1.05D-01 0.00143469 0.00069779 0.00442295 0.00199362    0.0464934 ----
   280   0   0   F    T  3.19D+00 0.00205746 0.00083322 0.04777536 0.02089794    0.0464931 ----
   281   0   0   T    F  4.55D-01 0.00205746 0.00083322 0.02173836 0.00950881    0.0464989 ----
   282   0   0   F    T  1.90D+00 0.00193415 0.00071927 0.02060629 0.00950881    0.0464781 ----
   283   0   0   F    F -2.34D-01 0.00193415 0.00071927 0.00482584 0.00222689    0.0464679 ----
   284   0   0   F    T  3.83D+00 0.00094632 0.00042655 0.01656900 0.00728192    0.0464668 ----
   285   0   0   T    F  3.96D-01 0.00094632 0.00042655 0.00656144 0.00288369    0.0464722 ----
   286   0   0   F    T  2.57D+00 0.00070339 0.00031871 0.00635305 0.00288369    0.0464627 ----
   287   0   0   F    F  6.33D-01 0.00070339 0.00031871 0.00401884 0.00182418    0.0464572 ----
   288   0   0   F    T  4.40D+00 0.00089090 0.00030466 0.01106740 0.00470787    0.0464563 ----
   289   0   0   T    F  4.72D-01 0.00089090 0.00030466 0.00522388 0.00222214    0.0464569 ----
   290   0   0   F    T  3.04D+00 0.00056730 0.00024439 0.00511539 0.00222214    0.0464534 ----
   291   0   0   F    F -3.74D-01 0.00056730 0.00024439 0.00191460 0.00083171    0.0464523 ----
   292   0   0   F    T  1.26D+00 0.00081405 0.00029478 0.00363033 0.00139043    0.0464517 ----
   293   0   0   F    F  5.50D-01 0.00081405 0.00029478 0.00199661 0.00076471    0.0464494 ----
   294   0   0   F    T  3.78D+00 0.00041845 0.00020509 0.00560400 0.00215515    0.0464491 ----
   295   0   0   T    F  4.72D-01 0.00041845 0.00020509 0.00264692 0.00101793    0.0464494 ----
   296   0   0   F    T  2.13D+00 0.00049890 0.00018060 0.00288491 0.00101793    0.0464480 ----
   297   0   0   F    F  1.77D+00 0.00049890 0.00018060 0.00511039 0.00180319    0.0464463 ----
   298   0   0   F    T  3.40D+00 0.00055563 0.00023299 0.00777513 0.00282112    0.0464451 ----
   299   0   0   F    F -3.62D-01 0.00055563 0.00023299 0.00281205 0.00102032    0.0464439 ----
   300   0   0   F    T  1.88D+00 0.00058763 0.00024595 0.00514904 0.00180080    0.0464433 ----
   301   0   0   F    F  1.85D-01 0.00058763 0.00024595 0.00095318 0.00033336    0.0464414 ----
   302   0   0   F    T  1.38D+00 0.00077817 0.00030897 0.00564767 0.00213416    0.0464413 ----
   303   0   0   F    F  4.82D-01 0.00077817 0.00030897 0.00272326 0.00102907    0.0464387 ----
   304   0   0   F    T  2.48D+00 0.00063190 0.00027882 0.00822009 0.00316323    0.0464384 ----
   305   0   0   F    F -2.09D-01 0.00063190 0.00027882 0.00172089 0.00066223    0.0464363 ----
   306   0   0   F    T  3.80D+00 0.00049180 0.00019540 0.00568117 0.00250101    0.0464361 ----
   307   0   0   F    T  3.43D+00 0.00044722 0.00020044 0.00557325 0.00250101    0.0464339 ----
   308   0   0   F    F -9.76D-02 0.00044722 0.00020044 0.00054382 0.00024404    0.0464321 ---+
   309   0   0   F    T  2.59D+00 0.00040816 0.00021635 0.00531520 0.00225696    0.0464321 ----
   310   0   0   F    F -4.98D-01 0.00040816 0.00021635 0.00264767 0.00112427    0.0464321 ----
   311   0   0   F    T  2.06D+00 0.00033266 0.00016710 0.00275943 0.00113270    0.0464312 ----
   312   0   0   F    F -1.22D-01 0.00033266 0.00016710 0.00033544 0.00013769    0.0464304 --++
   313   0   0   F    T  2.19D+00 0.00038614 0.00014791 0.00247497 0.00099501    0.0464304 ----
   314   0   0   F    F -1.84D-01 0.00038614 0.00014791 0.00045419 0.00018260    0.0464299 ---+
   315   0   0   F    T  4.15D+00 0.00019308 0.00009163 0.00192429 0.00081241    0.0464298 ----
   316   0   0   F    F -2.87D-01 0.00019308 0.00009163 0.00055285 0.00023341    0.0464295 ---+
   317   0   0   F    T  2.56D+00 0.00023635 0.00009388 0.00126910 0.00057900    0.0464295 ----
   318   0   0   F    F  6.83D-01 0.00023635 0.00009388 0.00086742 0.00039574    0.0464290 ----
   319   0   0   F    T  2.55D+00 0.00025787 0.00011871 0.00240439 0.00097474    0.0464289 ----
   320   0   0   F    F -3.40D-01 0.00025787 0.00011871 0.00081788 0.00033157    0.0464286 ----
   321   0   0   F    T  2.64D+00 0.00022164 0.00009140 0.00175460 0.00064317    0.0464285 ----
   322   0   0   F    F -4.81D-01 0.00022164 0.00009140 0.00084413 0.00030943    0.0464285 ----
   323   0   0   F    T  1.52D+00 0.00017490 0.00008333 0.00093901 0.00033375    0.0464284 ----
   324   0   0   F    F  7.82D-01 0.00017490 0.00008333 0.00073447 0.00026105    0.0464281 ---+
   325   0   0   F    T  3.65D+00 0.00013588 0.00006838 0.00157085 0.00059480    0.0464281 -+--
   326   0   0   F    F -4.65D-01 0.00013588 0.00006838 0.00072995 0.00027639    0.0464280 -+-+
   327   0   0   F    T  4.30D+00 0.00009546 0.00004190 0.00084676 0.00031840    0.0464279 ++--
   328   0   0   F    T  1.30D+00 0.00020830 0.00007140 0.00092552 0.00031840    0.0464279 -+--
   329   0   0   F    T  5.48D+00 0.00014948 0.00005755 0.00079861 0.00031840    0.0464278 -+--
   330   0   0   T    T  1.00D+00 0.00066702 0.00026941 0.00066702 0.00026941    0.0464286 ---+
   331   0   0   T    F  5.00D-01 0.00066702 0.00026941 0.00033351 0.00013470    0.0464295 --++
   332   0   0   T    F  5.00D-01 0.00066702 0.00026941 0.00016675 0.00006735    0.0464284 --++
   333   0   0   T    F  5.00D-01 0.00066702 0.00026941 0.00008338 0.00003368    0.0464280 --++
   334   0   0   T    F  5.00D-01 0.00066702 0.00026941 0.00004169 0.00001684    0.0464279 --++
   335   0   0   T    F  5.00D-01 0.00066702 0.00026941 0.00002084 0.00000842    0.0464279 --++
   336   0   0   T    F  5.00D-01 0.00066702 0.00026941 0.00001042 0.00000421    0.0464278 --++
   337   0   0   T    F  5.00D-01 0.00066702 0.00026941 0.00000521 0.00000210    0.0464278 --++
   338   0   0   T    F  5.00D-01 0.00066702 0.00026941 0.00000261 0.00000105    0.0464278 --++
   339   0   0   T    F  5.00D-01 0.00066702 0.00026941 0.00000130 0.00000053    0.0464278 --++
   340   0   0   T    F  5.00D-01 0.00066702 0.00026941 0.00000065 0.00000026    0.0464278 --++
   341   0   0   T    T  1.00D+00 0.00015030 0.00005782 0.00007060 0.00003409    0.0464278 -+++
   342   0   0   F    F  6.24D+00 0.00015030 0.00005782 0.00044044 0.00021267    0.0464278 -+++
   343   0   0   F    T  4.05D+00 0.00013999 0.00006172 0.00057604 0.00024676    0.0464277 -+-+
   344   0   0   T    T  1.00D+00 0.00073429 0.00029569 0.00073429 0.00029569    0.0464284 ---+
   345   0   0   T    F  5.00D-01 0.00073429 0.00029569 0.00036715 0.00014785    0.0464305 --++
   346   0   0   T    F  5.00D-01 0.00073429 0.00029569 0.00018357 0.00007392    0.0464285 --++
   347   0   0   T    F  5.00D-01 0.00073429 0.00029569 0.00009179 0.00003696    0.0464280 --++
   348   0   0   T    F  5.00D-01 0.00073429 0.00029569 0.00004589 0.00001848    0.0464278 --++
   349   0   0   T    F  5.00D-01 0.00073429 0.00029569 0.00002295 0.00000924    0.0464277 --++
   350   0   0   T    F  5.00D-01 0.00073429 0.00029569 0.00001147 0.00000462    0.0464277 --++
   351   0   0   T    F  5.00D-01 0.00073429 0.00029569 0.00000574 0.00000231    0.0464277 --++
   352   0   0   T    F  5.00D-01 0.00073429 0.00029569 0.00000287 0.00000116    0.0464277 --++
   353   0   0   T    F  5.00D-01 0.00073429 0.00029569 0.00000143 0.00000058    0.0464277 --++
   354   0   0   T    F  5.00D-01 0.00073429 0.00029569 0.00000072 0.00000029    0.0464277 --++
   355   0   0   T    T  1.00D+00 0.00014142 0.00006217 0.00007416 0.00002604    0.0464277 -+++
   356   0   0   F    T  1.00D+00 0.00018119 0.00006182 0.00017925 0.00006132    0.0464277 -+++
   357   0   0   F    T  1.26D+00 0.00012818 0.00004952 0.00014928 0.00006132    0.0464277 -+++
   358   0   0   T    F  5.00D-01 0.00012818 0.00004952 0.00007464 0.00003066    0.0464278 -+++
   359   0   0   T    F  5.00D-01 0.00012818 0.00004952 0.00003732 0.00001533    0.0464277 -+++
   360   0   0   T    F  5.00D-01 0.00012818 0.00004952 0.00001866 0.00000767    0.0464277 -+++
   361   0   0   T    F  5.00D-01 0.00012818 0.00004952 0.00000933 0.00000383    0.0464277 -+++
   362   0   0   T    F  5.00D-01 0.00012818 0.00004952 0.00000467 0.00000192    0.0464277 -+++
   363   0   0   T    F  5.00D-01 0.00012818 0.00004952 0.00000233 0.00000096    0.0464277 -+++
   364   0   0   T    F  5.00D-01 0.00012818 0.00004952 0.00000117 0.00000048    0.0464277 -+++
   365   0   0   T    F  5.00D-01 0.00012818 0.00004952 0.00000058 0.00000024    0.0464277 -+++
   366   0   0   T    T  1.00D+00 0.00012886 0.00004975 0.00010617 0.00004665    0.0464277 -+++
   367   0   0   F    T  1.66D+00 0.00009395 0.00002974 0.00009438 0.00004665    0.0464277 ====
 ****************************
 MOLECULAR MECHANICS FUNCTION
 ****************************
 Atomic parameters:
 Center  VDW
      1 1.9080 0.0860000
      2 1.7210 0.2104000
      3 1.9080 0.1094000
      4 1.4870 0.0157000
      5 1.4870 0.0157000
      6 1.8750 0.1700000
      7 0.6000 0.0157000
      8 0.6000 0.0157000
      9 1.6612 0.2100000
     10 0.0000 0.0000000
 Molecular mechanics terms:
 NBDir 3 1      0      0
 HrmStr1  1- 2  431.53 1.3510
 HrmStr1  1- 3  294.15 1.5090
 HrmStr1  1- 9  946.08 1.2030
 HrmStr1  2-10  566.76 0.9680
 HrmStr1  3- 4  358.05 1.0960
 HrmStr1  3- 5  358.05 1.0960
 HrmStr1  3- 6  380.82 1.4520
 HrmStr1  6- 7  506.01 1.0110
 HrmStr1  6- 8  506.01 1.0110
 HrmBnd1  1- 2-10  56.55 107.23
 HrmBnd1  1- 3- 4  46.41 106.89
 HrmBnd1  1- 3- 5  46.41 106.89
 HrmBnd1  1- 3- 6  59.93 110.61
 HrmBnd1  2- 1- 3  67.92 111.72
 HrmBnd1  2- 1- 9  91.40 123.02
 HrmBnd1  3- 1- 9  62.83 125.24
 HrmBnd1  3- 6- 7  52.60 110.71
 HrmBnd1  3- 6- 8  52.60 110.71
 HrmBnd1  4- 3- 5  44.68 106.22
 HrmBnd1  4- 3- 6  52.45 112.94
 HrmBnd1  5- 3- 6  52.45 112.94
 HrmBnd1  7- 6- 8  47.09 108.63
 AmbTrs  3- 1- 2-10   0 180   0   0  0.0000 14.5000  0.0000  0.0000  2.0
 AmbTrs  9- 1- 2-10   0   0   0   0  0.0000 14.5000  0.0000  0.0000  2.0
 AmbTrs  2- 1- 3- 4   0   0   0   0  0.0000 14.5000  0.0000  0.0000  6.0
 AmbTrs  2- 1- 3- 5   0   0   0   0  0.0000 14.5000  0.0000  0.0000  6.0
 AmbTrs  2- 1- 3- 6   0   0   0   0  0.0000 14.5000  0.0000  0.0000  6.0
 AmbTrs  9- 1- 3- 4   0   0   0   0  0.0000 14.5000  0.0000  0.0000  6.0
 AmbTrs  9- 1- 3- 5   0   0   0   0  0.0000 14.5000  0.0000  0.0000  6.0
 AmbTrs  9- 1- 3- 6   0   0   0   0  0.0000 14.5000  0.0000  0.0000  6.0
 AmbTrs  1- 3- 6- 7   0 180   0   0  0.0000 25.6300  0.0000  0.0000  6.0
 AmbTrs  1- 3- 6- 8   0 180   0   0  0.0000 25.6300  0.0000  0.0000  6.0
 AmbTrs  4- 3- 6- 7   0   0   0   0  0.0000 16.9300  0.0000  0.0000  6.0
 AmbTrs  4- 3- 6- 8   0   0   0   0  0.0000 16.9300  0.0000  0.0000  6.0
 AmbTrs  5- 3- 6- 7   0   0   0   0  0.0000 16.9300  0.0000  0.0000  6.0
 AmbTrs  5- 3- 6- 8   0   0   0   0  0.0000 16.9300  0.0000  0.0000  6.0
 NBPair  2- 1 3 1      0      0 -1.000 -1.000
 NBPair  3- 2 3 1      0      0 -1.000 -1.000
 NBPair 10- 3 3 1      0      0 -0.500 -0.167
 NBPair  9- 2 3 1      0      0 -1.000 -1.000
 NBPair 10- 9 3 1      0      0 -0.500 -0.167
 NBPair  3- 1 3 1      0      0 -1.000 -1.000
 NBPair  4- 2 3 1      0      0 -0.500 -0.167
 NBPair  5- 2 3 1      0      0 -0.500 -0.167
 NBPair  6- 2 3 1      0      0 -0.500 -0.167
 NBPair  9- 3 3 1      0      0 -1.000 -1.000
 NBPair  9- 4 3 1      0      0 -0.500 -0.167
 NBPair  9- 5 3 1      0      0 -0.500 -0.167
 NBPair  9- 6 3 1      0      0 -0.500 -0.167
 NBPair  9- 1 3 1      0      0 -1.000 -1.000
 NBPair 10- 1 3 1      0      0 -1.000 -1.000
 NBPair 10- 2 3 1      0      0 -1.000 -1.000
 NBPair  4- 1 3 1      0      0 -1.000 -1.000
 NBPair  5- 1 3 1      0      0 -1.000 -1.000
 NBPair  6- 1 3 1      0      0 -1.000 -1.000
 NBPair  4- 3 3 1      0      0 -1.000 -1.000
 NBPair  5- 4 3 1      0      0 -1.000 -1.000
 NBPair  6- 4 3 1      0      0 -1.000 -1.000
 NBPair  5- 3 3 1      0      0 -1.000 -1.000
 NBPair  6- 5 3 1      0      0 -1.000 -1.000
 NBPair  6- 3 3 1      0      0 -1.000 -1.000
 NBPair  7- 1 3 1      0      0 -0.500 -0.167
 NBPair  8- 1 3 1      0      0 -0.500 -0.167
 NBPair  7- 4 3 1      0      0 -0.500 -0.167
 NBPair  8- 4 3 1      0      0 -0.500 -0.167
 NBPair  7- 5 3 1      0      0 -0.500 -0.167
 NBPair  8- 5 3 1      0      0 -0.500 -0.167
 NBPair  7- 3 3 1      0      0 -1.000 -1.000
 NBPair  8- 3 3 1      0      0 -1.000 -1.000
 NBPair  7- 6 3 1      0      0 -1.000 -1.000
 NBPair  8- 7 3 1      0      0 -1.000 -1.000
 NBPair  8- 6 3 1      0      0 -1.000 -1.000
 Energy per function type:
 Direct Coulomb + vdW (small)                           0.003866966
 Direct Coulomb (large)                                -0.131918701
 Direct vdW (large)                                   268.383019386
 Non-direct Coulomb + vdW (small)                      -0.012107962
 Non-direct Coulomb (large)                             0.138194838
 Non-direct vdW (large)                              -268.383019386
 Harmonic stretch I                                     0.000127968
 Harmonic bend I                                        0.010140865
 Amber torsion                                          0.038123679
 Energy per function class:
        Coulomb              -0.003788105
    Vanderwaals               0.001823247
     Stretching               0.000127968
        Bending               0.010140865
        Torsion               0.038123679
 Energy=    4.642765380E-02 NIter=   0.
 Dipole moment=       0.523943      -0.126351      -0.381827
 Leave Link  402 at Tue Nov 28 09:32:12 2023, MaxMem=   134217728 cpu:               0.5 elap:               0.6
 (Enter /home/emanuele/chem_software/gaussian//gdv/l716.exe)
 Dipole        = 5.23943412D-01-1.26350672D-01-3.81827273D-01
 -------------------------------------------------------------------
 Center     Atomic                   Forces (Hartrees/Bohr)
 Number     Number              X              Y              Z
 -------------------------------------------------------------------
      1        6          -0.000056434    0.000042682    0.000093951
      2        8          -0.000012289   -0.000027770    0.000007337
      3        6           0.000009533   -0.000003598   -0.000014074
      4        1          -0.000011472   -0.000012977   -0.000000802
      5        1          -0.000015651   -0.000007141   -0.000013834
      6        7           0.000016683   -0.000031814    0.000005000
      7        1          -0.000009410    0.000021860    0.000010988
      8        1          -0.000002215    0.000028591   -0.000023537
      9        8           0.000057236    0.000000387   -0.000056880
     10        1           0.000024019   -0.000010220   -0.000008148
 -------------------------------------------------------------------
 Cartesian Forces:  Max     0.000093951 RMS     0.000029742
 Z-matrix is all fixed cartesians, so copy forces.
 Leave Link  716 at Tue Nov 28 09:32:12 2023, MaxMem=   134217728 cpu:               0.0 elap:               0.0
 (Enter /home/emanuele/chem_software/gaussian//gdv/l103.exe)

 GradGradGradGradGradGradGradGradGradGradGradGradGradGradGradGradGradGrad
 Berny optimization.
 Search for a local minimum.
 Step number   1 out of a maximum of    2
 All quantities printed in internal units (Hartrees-Bohrs-Radians)
 RMS Force = .29742D-04 SwitMx=.10000D-02 MixMth= 2
 Mixed Optimization -- En-DIIS/RFO-DIIS
 Second derivative matrix not updated -- unit matrix used.
 ITU=  0
 RFO step:  Lambda=-2.65375391D-08 EMin= 1.00000000D+00
 Linear search not attempted -- first point.
 Variable       Old X    -DE/DX   Delta X   Delta X   Delta X     New X
                                 (Linear)    (Quad)   (Total)
    X1       -1.19340  -0.00006   0.00000  -0.00006  -0.00006  -1.19346
    Y1        0.14279   0.00004   0.00000   0.00004   0.00004   0.14283
    Z1        0.46669   0.00009   0.00000   0.00009   0.00009   0.46678
    X2       -2.16660  -0.00001   0.00000  -0.00001  -0.00001  -2.16661
    Y2       -1.33079  -0.00003   0.00000  -0.00003  -0.00003  -1.33082
    Z2       -1.37581   0.00001   0.00000   0.00001   0.00001  -1.37580
    X3        1.41678   0.00001   0.00000   0.00001   0.00001   1.41679
    Y3       -0.85563  -0.00000   0.00000  -0.00000  -0.00000  -0.85563
    Z3        1.15383  -0.00001   0.00000  -0.00001  -0.00001   1.15382
    X4        1.67449  -0.00001   0.00000  -0.00001  -0.00001   1.67448
    Y4       -0.21463  -0.00001   0.00000  -0.00001  -0.00001  -0.21464
    Z4        3.10883  -0.00000   0.00000  -0.00000  -0.00000   3.10883
    X5        1.22463  -0.00002   0.00000  -0.00002  -0.00002   1.22461
    Y5       -2.92042  -0.00001   0.00000  -0.00001  -0.00001  -2.92043
    Z5        1.18088  -0.00001   0.00000  -0.00001  -0.00001   1.18087
    X6        3.31515   0.00002   0.00000   0.00002   0.00002   3.31517
    Y6        0.17564  -0.00003   0.00000  -0.00003  -0.00003   0.17561
    Z6       -0.56052   0.00001   0.00000   0.00001   0.00001  -0.56052
    X7        5.13417  -0.00001   0.00000  -0.00001  -0.00001   5.13416
    Y7       -0.39842   0.00002   0.00000   0.00002   0.00002  -0.39840
    Z7       -0.43564   0.00001   0.00000   0.00001   0.00001  -0.43563
    X8        2.77583  -0.00000   0.00000  -0.00000  -0.00000   2.77583
    Y8        1.22125   0.00003   0.00000   0.00003   0.00003   1.22127
    Z8       -2.06702  -0.00002   0.00000  -0.00002  -0.00002  -2.06704
    X9       -2.56596   0.00006   0.00000   0.00006   0.00006  -2.56590
    Y9        0.85178   0.00000   0.00000   0.00000   0.00000   0.85178
    Z9        2.13323  -0.00006   0.00000  -0.00006  -0.00006   2.13317
   X10       -3.41296   0.00002   0.00000   0.00002   0.00002  -3.41294
   Y10       -0.30663  -0.00001   0.00000  -0.00001  -0.00001  -0.30664
   Z10       -2.23452  -0.00001   0.00000  -0.00001  -0.00001  -2.23453
         Item               Value     Threshold  Converged?
 Maximum Force            0.000094     0.000450     YES
 RMS     Force            0.000030     0.000300     YES
 Maximum Displacement     0.000094     0.001800     YES
 RMS     Displacement     0.000030     0.001200     YES
 Predicted change in Energy=-1.326877D-08
 Optimization completed.
    -- Stationary point found.
 Largest change from initial coordinates is atom    7       0.352 Angstoms.
 GradGradGradGradGradGradGradGradGradGradGradGradGradGradGradGradGradGrad

 Leave Link  103 at Tue Nov 28 09:32:12 2023, MaxMem=   134217728 cpu:               0.0 elap:               0.0
 (Enter /home/emanuele/chem_software/gaussian//gdv/l202.exe)
                          Input orientation:                          
 ---------------------------------------------------------------------
 Center     Atomic      Atomic             Coordinates (Angstroms)
 Number     Number       Type             X           Y           Z
 ---------------------------------------------------------------------
      1          6    20001002       -0.631520    0.075561    0.246961
      2          8    20001022       -1.146514   -0.704224   -0.728045
      3          6    20001001        0.749728   -0.452778    0.610582
      4          1    20001034        0.886103   -0.113577    1.645123
      5          1    20001034        0.648044   -1.545419    0.624897
      6          7    20001020        1.754301    0.092945   -0.296615
      7          1    20001029        2.716887   -0.210835   -0.230532
      8          1    20001029        1.468905    0.646255   -1.093819
      9          8    20001025       -1.357847    0.450744    1.128857
     10          1    20001031       -1.806063   -0.162259   -1.182458
 ---------------------------------------------------------------------
                    Distance matrix (angstroms):
                    1          2          3          4          5
     1  C    0.000000
     2  O    1.350526   0.000000
     3  C    1.522894   2.334712   0.000000
     4  H    2.072151   3.179988   1.097238   0.000000
     5  H    2.099451   2.399688   1.097455   1.774177   0.000000
     6  N    2.447023   3.039134   1.459447   2.136999   2.181106
     7  H    3.394386   3.926426   2.153073   2.622844   2.606335
     8  H    2.556398   2.966143   2.151760   2.901518   2.903658
     9  O    1.202520   2.196974   2.350922   2.370718   2.874412
    10  H    1.865301   0.967068   3.135516   3.904529   3.346985
                    6          7          8          9         10
     6  N    0.000000
     7  H    1.011544   0.000000
     8  H    1.011503   1.742793   0.000000
     9  O    3.441723   4.346158   3.601255   0.000000
    10  H    3.677776   4.622294   3.374458   2.432868   0.000000
 Symmetry turned off by external request.
 Stoichiometry    C2H5NO2
 Framework group  C1[X(C2H5NO2)]
 Deg. of freedom    24
 Full point group                 C1      NOp   1
 Rotational constants (GHZ):           9.5122248           3.8986441           3.1073262
 Leave Link  202 at Tue Nov 28 09:32:12 2023, MaxMem=   134217728 cpu:               0.0 elap:               0.0
 (Enter /home/emanuele/chem_software/gaussian//gdv/l9999.exe)
 Unable to Open any file for archive entry.
 1\1\GINC-EMANUELE-XPS-13-9343\FOpt\AMBER\ZDO\C2H5N1O2\EMANUELE\28-Nov-
 2023\0\\#p Amber=(SoftFirst,Print) geom=nocrowd nosymm opt=(maxcycle=3
 00)\\Title\\0,1\C,-0.6315200884,0.0755605092,0.2469614662\O,-1.1465141
 552,-0.704223595,-0.7280448749\C,0.7497279378,-0.4527780313,0.61058177
 01\H,0.8861034914,-0.1135772852,1.6451229013\H,0.6480444694,-1.5454187
 839,0.6248970204\N,1.7543010806,0.0929448289,-0.2966148521\H,2.7168874
 341,-0.2108347081,-0.2305315642\H,1.4689050167,0.6462553948,-1.0938187
 649\O,-1.3578473032,0.4507437899,1.1288568375\H,-1.8060628832,-0.16225
 91194,-1.1824579394\\Version=ES64L-GDVRevJ.14\HF=0.0464277\RMSD=0.000e
 +00\RMSF=2.974e-05\Dipole=0.5239434,-0.1263507,-0.3818273\PG=C01 [X(C2
 H5N1O2)]\\@
 The archive entry for this job was punched.


 NEVER LOSE YOUR IGNORANCE, IT CAN'T BE REPLACED.
   -- ANDY CAPP
 Job cpu time:       0 days  0 hours  0 minutes  1.0 seconds.
 Elapsed time:       0 days  0 hours  0 minutes  1.0 seconds.
 File lengths (MBytes):  RWF=      6 Int=      0 D2E=      0 Chk=      1 Scr=      1
 Normal termination of Gaussian DV at Tue Nov 28 09:32:12 2023.
