 Entering Gaussian System, Link 0=/home/emanuele/chem_software/gaussian//g09/g09
 Input=4_mm_0.gjf
 Output=4_mm_0.log
 Initial command:
 /home/emanuele/chem_software/gaussian//gdv/l1.exe "/home/emanuele/chem_software/gaussian/scratch/Gau-4555.inp" -scrdir="/home/emanuele/chem_software/gaussian/scratch/"
 Entering Link 1 = /home/emanuele/chem_software/gaussian//gdv/l1.exe PID=      4557.
  
 Copyright (c) 1988-2020, Gaussian, Inc.  All Rights Reserved.
  
 This is the private, development version of
 the Gaussian(R) DV system of programs. It is based on
 the Gaussian(R) 16 system (copyright 2016, Gaussian, Inc.),
 the Gaussian(R) 09 system (copyright 2009, Gaussian, Inc.),
 the Gaussian(R) 03 system (copyright 2003, Gaussian, Inc.),
 the Gaussian(R) 98 system (copyright 1998, Gaussian, Inc.),
 the Gaussian(R) 94 system (copyright 1995, Gaussian, Inc.),
 the Gaussian 92(TM) system (copyright 1992, Gaussian, Inc.),
 the Gaussian 90(TM) system (copyright 1990, Gaussian, Inc.),
 the Gaussian 88(TM) system (copyright 1988, Gaussian, Inc.),
 the Gaussian 86(TM) system (copyright 1986, Carnegie Mellon
 University), and the Gaussian 82(TM) system (copyright 1983,
 Carnegie Mellon University). Gaussian is a federally registered
 trademark of Gaussian, Inc.
  
 This software contains proprietary and confidential information,
 including trade secrets, belonging to Gaussian, Inc.
  
 This software is provided under written license and may be
 used, copied, transmitted, or stored only in accord with that
 written license.
  
 The following legend is applicable only to US Government
 contracts under FAR:
  
                    RESTRICTED RIGHTS LEGEND
  
 Use, reproduction and disclosure by the US Government is
 subject to restrictions as set forth in subparagraphs (a)
 and (c) of the Commercial Computer Software - Restricted
 Rights clause in FAR 52.227-19.
  
 Gaussian, Inc.
 340 Quinnipiac St., Bldg. 40, Wallingford CT 06492
  
  
 ---------------------------------------------------------------
 Warning -- This program may not be used in any manner that
 competes with the business of Gaussian, Inc. or will provide
 assistance to any competitor of Gaussian, Inc.  The licensee
 of this program is prohibited from giving any competitor of
 Gaussian, Inc. access to this program.  By using this program,
 the user acknowledges that Gaussian, Inc. is engaged in the
 business of creating and licensing software in the field of
 computational chemistry and represents and warrants to the
 licensee that it is not a competitor of Gaussian, Inc. and that
 it will not use this program in any manner prohibited above.
 ---------------------------------------------------------------
  

 Cite this work as:
 Gaussian Development Version, Revision J.14,
 M. J. Frisch, G. W. Trucks, H. B. Schlegel, G. E. Scuseria, 
 M. A. Robb, J. R. Cheeseman, G. Scalmani, V. Barone, 
 G. A. Petersson, H. Nakatsuji, X. Li, A. V. Marenich, M. Caricato, 
 J. Bloino, B. G. Janesko, J. Zheng, R. Gomperts, B. Mennucci, 
 H. P. Hratchian, J. V. Ortiz, A. F. Izmaylov, J. L. Sonnenberg, 
 D. Williams-Young, F. Ding, F. Lipparini, F. Egidi, J. Goings, 
 B. Peng, A. Petrone, T. Henderson, D. Ranasinghe, V. G. Zakrzewski, 
 J. Gao, N. Rega, G. Zheng, W. Liang, M. Hada, M. Ehara, K. Toyota, 
 R. Fukuda, J. Hasegawa, M. Ishida, T. Nakajima, Y. Honda, O. Kitao, 
 H. Nakai, T. Vreven, K. Throssell, J. A. Montgomery, Jr., 
 J. E. Peralta, F. Ogliaro, M. J. Bearpark, J. J. Heyd, 
 E. N. Brothers, K. N. Kudin, V. N. Staroverov, T. A. Keith, 
 R. Kobayashi, J. Normand, K. Raghavachari, A. P. Rendell, 
 J. C. Burant, S. S. Iyengar, J. Tomasi, M. Cossi, J. M. Millam, 
 M. Klene, C. Adamo, R. Cammi, J. W. Ochterski, R. L. Martin, 
 K. Morokuma, O. Farkas, J. B. Foresman, and D. J. Fox, 
 Gaussian, Inc., Wallingford CT, 2020.
 
 ******************************************
 Gaussian DV:  ES64L-GDVRevJ.14 29-Dec-2020
                28-Nov-2023 
 ******************************************
 %mem=1GB
 %nprocshared=1
 Will use up to    1 processors via shared memory.
 %chk=4_mm_0.chk
 -----------------------------------------------------------------
 #p Amber=(SoftFirst,Print) geom=nocrowd nosymm opt=(maxcycle=300)
 -----------------------------------------------------------------
 1/6=300,10=10,18=4000020,19=15,37=210000000,38=1,56=2,64=203/1,3;
 2/9=110,12=1,15=1,40=1/2;
 3/5=30,11=9,25=1,30=1,41=10030000,43=2,71=1/1;
 4/20=11,22=1001,24=3,119=11/2;
 7/30=1,44=-1/16;
 1/6=300,10=10,18=4000020,19=15,64=203/3(2);
 2/9=110,12=1,15=1/2;
 99//99;
 2/9=110,12=1,15=1/2;
 3/5=30,11=9,25=1,30=1,41=10030000,43=2,71=1/1;
 4/16=2,20=11,22=1001,24=3,119=11/2;
 7/30=1,44=-1/16;
 1/6=300,10=10,18=4000020,19=15,64=203/3(-4);
 2/9=110,12=1,15=1/2;
 99/9=10/99;
 Leave Link    1 at Tue Nov 28 09:32:05 2023, MaxMem=   134217728 cpu:               0.0 elap:               0.0
 (Enter /home/emanuele/chem_software/gaussian//gdv/l101.exe)
 -----
 Title
 -----
 Symbolic Z-matrix:
 Charge =  0 Multiplicity = 1
 C-C-+0.299289        -0.56339   0.16393   0.08357 
 O-OH--0.289770       -1.59183  -0.70339  -0.19855 
 C-CT--0.035454        0.71461  -0.61598   0.27827 
 H-HC-+0.090426        0.94345  -1.12608   1.24441 
 H-HC-+0.095387        0.4448   -1.41987  -0.45913 
 N-N3--0.336253        1.86123   0.11232  -0.33404 
 H-H-+0.142619         2.01706   0.93234   0.26838 
 H-H-+0.128282         2.68785  -0.37827   0.00073 
 O-O2--0.308037       -0.769     1.35012   0.174 
 H-HO-+0.213510       -2.46275  -0.23869  -0.33268 
 
 ITRead=  3  3  3  3  3  3  3  3  3  3
 MicOpt=  0  0  0  0  0  0  0  0  0  0
 NAtoms=     10 NQM=        0 NQMF=       0 NMMI=      0 NMMIF=      0
                NMic=      10 NMicF=      0.
                    Isotopes and Nuclear Properties:
 (Nuclear quadrupole moments (NQMom) in fm**2, nuclear magnetic moments (NMagM)
  in nuclear magnetons)

  Atom         1           2           3           4           5           6           7           8           9          10
 IAtWgt=          12          16          12           1           1          14           1           1          16           1
 AtmWgt=  12.0000000  15.9949146  12.0000000   1.0078250   1.0078250  14.0030740   1.0078250   1.0078250  15.9949146   1.0078250
 NucSpn=           0           0           0           1           1           2           1           1           0           1
 AtZEff=  -0.0000000  -0.0000000  -0.0000000  -0.0000000  -0.0000000  -0.0000000  -0.0000000  -0.0000000  -0.0000000  -0.0000000
 NQMom=    0.0000000   0.0000000   0.0000000   0.0000000   0.0000000   2.0440000   0.0000000   0.0000000   0.0000000   0.0000000
 NMagM=    0.0000000   0.0000000   0.0000000   2.7928460   2.7928460   0.4037610   2.7928460   2.7928460   0.0000000   2.7928460
 AtZNuc=   6.0000000   8.0000000   6.0000000   1.0000000   1.0000000   7.0000000   1.0000000   1.0000000   8.0000000   1.0000000
 Generating MM parameters.
 I=    1 IAn=  6 Valence= 5.
          JB=  1 J=    2 IAn=  8 IBT=12 Dist= 1.37D+00
          JB=  2 J=    3 IAn=  6 IBT= 1 Dist= 1.51D+00
          JB=  3 J=    9 IAn=  8 IBT= 2 Dist= 1.21D+00
 I=    2 IAn=  8 Valence= 3.
          JB=  1 J=    1 IAn=  6 IBT=12 Dist= 1.37D+00
          JB=  2 J=   10 IAn=  1 IBT= 1 Dist= 9.96D-01
 Read MM parameter file:
 Include all MM classes

 MM sanity checks:
 All charges sum to:               -0.00000100
 Charges of atoms sum to:          -0.00000100
 WARNING -- The following centers have non-zero partial charges, but zero Vanderwaals
 parameters.  These centers can collapse onto other centers with non-zero charge.
   Center  Layer   Charge
     10 H    R    0.213510
 MMInit generated parameter data with length LenPar=        2069.
 MM Charge=             -0.0000 electrons
 MM Dipole moment (Debye):
    X=              0.5415    Y=             -1.8383    Z=              0.8044  Tot=              2.0784
 MM Quadrupole moment (Debye-Ang):
   XX=              4.3084   YY=             -1.2155   ZZ=              0.6490
   XY=              0.0961   XZ=              2.2893   YZ=             -0.4898
 MM Traceless Quadrupole moment (Debye-Ang):
   XX=              3.0611   YY=             -2.4628   ZZ=             -0.5983
   XY=              0.0961   XZ=              2.2893   YZ=             -0.4898
 MM Octapole moment (Debye-Ang**2):
  XXX=             -1.7724  YYY=             -4.5368  ZZZ=              0.8286  XYY=              5.2889
  XXY=             -0.3348  XXZ=              1.5523  XZZ=              0.2688  YZZ=             -0.9080
  YYZ=              0.0612  XYZ=              0.4026
 MM Hexadecapole moment (Debye-Ang**3):
 XXXX=             52.8508 YYYY=             -2.1864 ZZZZ=              1.0534 XXXY=             -0.3103
 XXXZ=              9.4910 YYYX=              1.9457 YYYZ=             -0.7334 ZZZX=              0.9872
 ZZZY=             -0.8672 XXYY=              0.6559 XXZZ=              0.7136 YYZZ=              0.9812
 XXYZ=              0.2404 YYXZ=              0.9696 ZZXY=             -0.6638
 Leave Link  101 at Tue Nov 28 09:32:05 2023, MaxMem=   134217728 cpu:               0.2 elap:               0.2
 (Enter /home/emanuele/chem_software/gaussian//gdv/l103.exe)

 GradGradGradGradGradGradGradGradGradGradGradGradGradGradGradGradGradGrad
 Berny optimization.
 Initialization pass.
 No Z-matrix variables, so optimization will use Cartesian coordinates.
 Trust Radius=1.00D-01 FncErr=1.00D-07 GrdErr=1.00D-07 EigMax=2.50D+02 EigMin=1.00D-04
 Number of steps in this run=      2 maximum allowed number of steps=      2.
 GradGradGradGradGradGradGradGradGradGradGradGradGradGradGradGradGradGrad

 Leave Link  103 at Tue Nov 28 09:32:05 2023, MaxMem=   134217728 cpu:               0.0 elap:               0.0
 (Enter /home/emanuele/chem_software/gaussian//gdv/l202.exe)
                          Input orientation:                          
 ---------------------------------------------------------------------
 Center     Atomic      Atomic             Coordinates (Angstroms)
 Number     Number       Type             X           Y           Z
 ---------------------------------------------------------------------
      1          6    20001002       -0.563386    0.163925    0.083569
      2          8    20001022       -1.591830   -0.703392   -0.198550
      3          6    20001001        0.714609   -0.615978    0.278269
      4          1    20001034        0.943451   -1.126084    1.244410
      5          1    20001034        0.444796   -1.419865   -0.459133
      6          7    20001020        1.861227    0.112321   -0.334037
      7          1    20001029        2.017061    0.932335    0.268379
      8          1    20001029        2.687847   -0.378273    0.000727
      9          8    20001025       -0.769002    1.350116    0.173997
     10          1    20001031       -2.462747   -0.238694   -0.332681
 ---------------------------------------------------------------------
                    Distance matrix (angstroms):
                    1          2          3          4          5
     1  C    0.000000
     2  O    1.374601   0.000000
     3  C    1.509777   2.356832   0.000000
     4  H    2.298311   2.947618   1.116246   0.000000
     5  H    1.954315   2.174645   1.123742   1.799173   0.000000
     6  N    2.460855   3.550683   1.489990   2.206231   2.090340
     7  H    2.698762   3.989702   2.023302   2.518405   2.921324
     8  H    3.297174   4.296632   2.006789   2.269116   2.515485
     9  O    1.207271   2.243375   2.465259   3.195285   3.089815
    10  H    1.985683   0.996209   3.257483   3.857054   3.140854
                    6          7          8          9         10
     6  N    0.000000
     7  H    1.029375   0.000000
     8  H    1.017865   1.496424   0.000000
     9  O    2.950990   2.818793   3.868741   0.000000
    10  H    4.338198   4.669182   5.163261   2.376933   0.000000
 Symmetry turned off by external request.
 Stoichiometry    C2H5NO2
 Framework group  C1[X(C2H5NO2)]
 Deg. of freedom    24
 Full point group                 C1      NOp   1
 Rotational constants (GHZ):           9.7487861           3.8294393           2.9206260
 Leave Link  202 at Tue Nov 28 09:32:05 2023, MaxMem=   134217728 cpu:               0.0 elap:               0.0
 (Enter /home/emanuele/chem_software/gaussian//gdv/l301.exe)
 Standard basis: Dummy (5D, 7F)
    10 basis functions,    10 primitive gaussians,    10 cartesian basis functions
     7 alpha electrons        7 beta electrons
       nuclear repulsion energy        22.5468487652 Hartrees.
 IExCor=       0 DFT=F Ex=HF Corr=None N6=None ScaHFX=  1.000000
 ScaDFX=  1.000000  1.000000  1.000000  1.000000  1.000000  0.000000
 ScaDFX=  0.000000  0.000000  0.000000  0.000000  0.000000  0.000000
 IRadAn=      5 IRanWt=     -1 IRanGd=            0 ICorTp=0 IEmpDi=  4
 NAtoms=   10 NActive=   10 NUniq=   10 SFac= 1.00D+00 NAtFMM=   60 NAOKFM=F Big=F
 Integral buffers will be    131072 words long.
 Raffenetti 1 integral format.
 Two-electron integral symmetry is turned off.
 Leave Link  301 at Tue Nov 28 09:32:05 2023, MaxMem=   134217728 cpu:               0.1 elap:               0.0
 (Enter /home/emanuele/chem_software/gaussian//gdv/l402.exe)
 AMBER calculation of energy and first derivatives.
 NRF= 0 NRA=   0 NVA=  10 HaveQM=F NVQ=       0
 Convergence limit is  0.750E-04 MaxStp= 10000 StMxLn= 3.00D-04 StpMin= 1.00D-06.
 Convergence criteria             0.00011250 0.00007500 0.00045000 0.00030000
  Step  NS  ND Rises OKQ   Scale  Max. Force  RMS Force Max. Disp.  RMS Disp.     Energy   Flag
     1   0   0   F    T  1.00D+00 0.07135324 0.02191031 0.07135324 0.02191031    0.0957063 ----
     2   0   0   F    F  7.09D-01 0.07135324 0.02191031 0.05056490 0.01552687    0.0856996 ----
     3   0   0   F    T  2.45D+00 0.03128617 0.01311557 0.08020973 0.03743718    0.0836857 ----
     4   0   0   F    F  4.56D-01 0.03128617 0.01311557 0.03654727 0.01705811    0.0753145 ----
     5   0   0   F    T  1.70D+00 0.05970690 0.01703098 0.10650583 0.05449530    0.0743960 ----
     6   0   0   F    F -4.88D-01 0.05970690 0.01703098 0.05193016 0.02657084    0.0740832 ----
     7   0   0   F    T  2.82D+00 0.01823919 0.00788006 0.05495692 0.02792446    0.0706010 ----
     8   0   0   F    F -3.43D-01 0.01823919 0.00788006 0.01885890 0.00958250    0.0693470 ----
     9   0   0   F    T  2.07D+00 0.01578656 0.00624810 0.04573376 0.01834196    0.0688813 ----
    10   0   0   F    F  3.29D-01 0.01578656 0.00624810 0.01502579 0.00602624    0.0673620 ----
    11   0   0   F    T  1.86D+00 0.01703141 0.00697455 0.06265192 0.02436819    0.0672623 ----
    12   0   0   F    F  4.30D-02 0.01703141 0.00697455 0.00269261 0.00104728    0.0658415 ----
    13   0   0   F    T  1.32D+00 0.02744123 0.00812209 0.06073622 0.02541547    0.0658390 ----
    14   0   0   F    T  2.55D+00 0.01170939 0.00554691 0.06032936 0.02541547    0.0645229 ----
    15   0   0   F    F  2.48D+00 0.01170939 0.00554691 0.14970810 0.06306883    0.0624719 ----
    16   0   0   F    F -1.46D-01 0.01170939 0.00554691 0.02183604 0.00919906    0.0605190 ----
    17   0   0   F    F -1.45D-02 0.01170939 0.00554691 0.00031750 0.00013376    0.0604484 --++
    18   0   0   F    T  2.57D+00 0.02389917 0.01005071 0.19223285 0.07941901    0.0604484 ----
    19   0   0   F    F -4.80D-01 0.02389917 0.01005071 0.09236530 0.03815976    0.0603496 ----
    20   0   0   F    T  2.50D+00 0.01955763 0.00819067 0.09632080 0.04125924    0.0583774 ----
    21   0   0   F    F -3.65D-01 0.01955763 0.00819067 0.03520485 0.01508008    0.0573085 ----
    22   0   0   F    T  1.58D+00 0.02382329 0.00778483 0.05842134 0.02617916    0.0567907 ----
    23   0   0   F    F  5.78D-01 0.02382329 0.00778483 0.03375282 0.01512496    0.0548257 ----
    24   0   0   F    F -1.69D-02 0.02382329 0.00778483 0.00057093 0.00025584    0.0545249 ---+
    25   0   0   F    T  2.48D+00 0.01915063 0.00723607 0.08431935 0.04104828    0.0545248 ----
    26   0   0   F    F -3.87D-01 0.01915063 0.00723607 0.03263930 0.01588944    0.0538271 ----
    27   0   0   F    T  2.92D+00 0.01739608 0.00518960 0.04656323 0.02515884    0.0533065 ----
    28   0   0   F    F -4.19D-01 0.01739608 0.00518960 0.01950497 0.01053884    0.0529729 ----
    29   0   0   F    T  1.68D+00 0.01701691 0.00476385 0.03423936 0.01462000    0.0526247 ----
    30   0   0   F    F  3.50D-01 0.01701691 0.00476385 0.01198454 0.00511732    0.0519066 ----
    31   0   0   F    T  2.34D+00 0.01687430 0.00427129 0.05617626 0.01973732    0.0518553 ----
    32   0   0   T    F  5.00D-01 0.01687430 0.00427129 0.02809754 0.00987197    0.0518575 ----
    33   0   0   F    T  3.05D+00 0.00710220 0.00224626 0.03259527 0.00987197    0.0515344 ----
    34   0   0   F    F -3.67D-01 0.00710220 0.00224626 0.01195062 0.00361943    0.0514371 ----
    35   0   0   F    T  1.93D+00 0.00504767 0.00200150 0.01656508 0.00625254    0.0513878 ----
    36   0   0   F    F  2.72D-01 0.00504767 0.00200150 0.00450978 0.00170223    0.0512472 ----
    37   0   0   F    T  1.57D+00 0.00729668 0.00236383 0.01731138 0.00795477    0.0512405 ----
    38   0   0   F    T  2.98D+00 0.00523550 0.00153919 0.01808795 0.00795477    0.0511087 ----
    39   0   0   F    F -4.77D-01 0.00523550 0.00153919 0.00862980 0.00379524    0.0510993 ----
    40   0   0   F    T  1.94D+00 0.00386590 0.00123620 0.00971631 0.00415953    0.0510530 ----
    41   0   0   F    F  3.82D-01 0.00386590 0.00123620 0.00370896 0.00158780    0.0509961 ----
    42   0   0   F    T  2.23D+00 0.00312529 0.00127204 0.01341839 0.00574733    0.0509913 ----
    43   0   0   F    F -3.80D-01 0.00312529 0.00127204 0.00509281 0.00218134    0.0509703 ----
    44   0   0   F    T  1.97D+00 0.00257555 0.00097531 0.00745408 0.00356599    0.0509579 ----
    45   0   0   F    F  4.74D-01 0.00257555 0.00097531 0.00353131 0.00168936    0.0509206 ----
    46   0   0   F    T  1.47D+00 0.00279883 0.00132375 0.01340887 0.00525535    0.0509163 ----
    47   0   0   F    F  5.38D-01 0.00279883 0.00132375 0.00721413 0.00282744    0.0508642 ----
    48   0   0   F    T  2.99D+00 0.00267822 0.00109999 0.02432982 0.00808279    0.0508570 ----
    49   0   0   F    F -4.10D-01 0.00267822 0.00109999 0.00996789 0.00331150    0.0508404 ----
    50   0   0   F    T  2.07D+00 0.00311907 0.00096665 0.01551885 0.00477128    0.0508249 ----
    51   0   0   F    F -3.58D-01 0.00311907 0.00096665 0.00555909 0.00170915    0.0508121 ----
    52   0   0   F    T  2.91D+00 0.00161150 0.00059575 0.00985064 0.00306214    0.0508062 ----
    53   0   0   F    T  1.76D+00 0.00217945 0.00073137 0.00871702 0.00306214    0.0507907 ----
    54   0   0   F    F -1.17D-01 0.00217945 0.00073137 0.00102349 0.00035953    0.0507785 ----
    55   0   0   F    T  2.96D+00 0.00118128 0.00048483 0.00526347 0.00270260    0.0507783 ----
    56   0   0   F    F -4.36D-01 0.00118128 0.00048483 0.00229622 0.00117902    0.0507760 ----
    57   0   0   F    T  1.62D+00 0.00120451 0.00045938 0.00269186 0.00152358    0.0507724 ----
    58   0   0   F    F  4.10D-01 0.00120451 0.00045938 0.00110456 0.00062517    0.0507658 ----
    59   0   0   F    T  3.05D+00 0.00085654 0.00036641 0.00533916 0.00214875    0.0507652 ----
    60   0   0   T    F  4.31D-01 0.00085654 0.00036641 0.00230373 0.00092714    0.0507672 ----
    61   0   0   F    T  2.98D+00 0.00051847 0.00020993 0.00259011 0.00092714    0.0507626 ----
    62   0   0   F    F -4.25D-01 0.00051847 0.00020993 0.00110118 0.00039417    0.0507621 ----
    63   0   0   F    T  1.23D+00 0.00056790 0.00022812 0.00164848 0.00053297    0.0507614 ----
    64   0   0   F    F  1.68D+00 0.00056790 0.00022812 0.00276473 0.00089386    0.0507599 ----
    65   0   0   F    T  2.60D+00 0.00060147 0.00024294 0.00397075 0.00142683    0.0507589 ----
    66   0   0   F    F -4.21D-01 0.00060147 0.00024294 0.00167254 0.00060100    0.0507582 ----
    67   0   0   F    T  2.17D+00 0.00043737 0.00018826 0.00181949 0.00082582    0.0507575 ----
    68   0   0   F    F  4.80D-01 0.00043737 0.00018826 0.00087314 0.00039630    0.0507560 ----
    69   0   0   F    T  1.13D+00 0.00091769 0.00031149 0.00298383 0.00122212    0.0507558 ----
    70   0   0   F    F  1.30D+00 0.00091769 0.00031149 0.00388853 0.00159267    0.0507533 ----
    71   0   0   F    T  3.16D+00 0.00058919 0.00027424 0.00815366 0.00281479    0.0507521 ----
    72   0   0   F    F -3.55D-01 0.00058919 0.00027424 0.00289677 0.00100002    0.0507505 ----
    73   0   0   F    T  1.42D+00 0.00072818 0.00032295 0.00564544 0.00181478    0.0507498 ----
    74   0   0   F    F  2.19D+00 0.00072818 0.00032295 0.01238174 0.00398021    0.0507460 ----
    75   0   0   F    T  1.55D+00 0.00154667 0.00055511 0.01832125 0.00579499    0.0507426 ----
    76   0   0   F    F  8.61D-02 0.00154667 0.00055511 0.00157765 0.00049901    0.0507349 ----
    77   0   0   F    T  2.65D+00 0.00102419 0.00045220 0.02048288 0.00629400    0.0507348 ----
    78   0   0   F    F  3.02D-02 0.00102419 0.00045220 0.00061777 0.00018983    0.0507264 ---+
    79   0   0   F    T  1.76D+00 0.00153735 0.00056599 0.02103629 0.00648383    0.0507264 ----
    80   0   0   F    F  3.27D-01 0.00153735 0.00056599 0.00688240 0.00212130    0.0507157 ----
    81   0   0   F    T  1.91D+00 0.00171999 0.00064084 0.02696565 0.00860513    0.0507150 ----
    82   0   0   F    F -1.73D-02 0.00171999 0.00064084 0.00046667 0.00014892    0.0507035 ---+
    83   0   0   F    T  2.67D+00 0.00110270 0.00054283 0.02531016 0.00845621    0.0507035 ----
    84   0   0   F    F -1.73D-01 0.00110270 0.00054283 0.00438040 0.00146351    0.0506942 ----
    85   0   0   F    T  1.51D+00 0.00187785 0.00064872 0.02060533 0.00699270    0.0506938 ----
    86   0   0   F    F  1.07D+00 0.00187785 0.00064872 0.02209433 0.00749802    0.0506789 ----
    87   0   0   F    F -2.36D-02 0.00187785 0.00064872 0.00052085 0.00017676    0.0506732 ---+
    88   0   0   F    T  2.26D+00 0.00171600 0.00080120 0.04037028 0.01431396    0.0506732 ----
    89   0   0   F    F -3.20D-01 0.00171600 0.00080120 0.01291580 0.00457951    0.0506616 ----
    90   0   0   F    T  2.84D+00 0.00158954 0.00071193 0.02726616 0.00973445    0.0506576 ----
    91   0   0   F    F -1.09D-01 0.00158954 0.00071193 0.00296853 0.00105981    0.0506388 ----
    92   0   0   F    T  1.90D+00 0.00240391 0.00083482 0.02572087 0.00867464    0.0506385 ----
    93   0   0   F    F  1.56D-01 0.00240391 0.00083482 0.00402275 0.00135672    0.0506156 ----
    94   0   0   F    T  1.70D+00 0.00308532 0.00095494 0.02951770 0.01003135    0.0506152 ----
    95   0   0   F    F  3.27D-02 0.00308532 0.00095494 0.00096650 0.00032846    0.0505913 ----
    96   0   0   F    T  2.87D+00 0.00157579 0.00076131 0.03259313 0.01035981    0.0505912 ----
    97   0   0   F    F -2.12D-02 0.00157579 0.00076131 0.00069000 0.00021932    0.0505666 ---+
    98   0   0   F    T  2.12D+00 0.00240796 0.00087373 0.03244282 0.01014049    0.0505665 ----
    99   0   0   F    F  5.18D-02 0.00240796 0.00087373 0.00167992 0.00052508    0.0505414 ----
   100   0   0   F    T  1.66D+00 0.00269442 0.00100534 0.03630228 0.01066558    0.0505414 ----
   101   0   0   F    F  2.45D-02 0.00269442 0.00100534 0.00088942 0.00026131    0.0505150 ---+
   102   0   0   F    T  2.41D+00 0.00187832 0.00084765 0.03759038 0.01092689    0.0505150 ----
   103   0   0   F    F  2.53D-01 0.00187832 0.00084765 0.00950024 0.00276156    0.0504842 ----
   104   0   0   F    T  2.11D+00 0.00220145 0.00102712 0.04891072 0.01368845    0.0504830 ----
   105   0   0   F    F  7.62D-01 0.00220145 0.00102712 0.03729295 0.01043703    0.0504326 ----
   106   0   0   F    F -8.87D-03 0.00220145 0.00102712 0.00033079 0.00009258    0.0504200 --++
   107   0   0   F    T  1.11D+00 0.00606350 0.00190965 0.08411798 0.02403290    0.0504200 ----
   108   0   0   F    F  8.48D-01 0.00606350 0.00190965 0.07130732 0.02037283    0.0503334 ----
   109   0   0   F    F -1.17D-01 0.00606350 0.00190965 0.00837375 0.00239242    0.0503134 ----
   110   0   0   F    T  1.04D+01 0.00347877 0.00153441 0.12771071 0.04201331    0.0503130 ----
   111   0   0   T    F  2.08D-01 0.00347877 0.00153441 0.02656529 0.00873925    0.0512654 ----
   112   0   0   F    T  1.17D+00 0.00627308 0.00201590 0.02859014 0.00873925    0.0502370 ----
   113   0   0   F    F  1.17D+00 0.00627308 0.00201590 0.03354332 0.01025330    0.0501278 ----
   114   0   0   F    T  1.24D+00 0.00789699 0.00280865 0.06042145 0.01899255    0.0500830 ----
   115   0   0   F    F  1.26D+00 0.00789699 0.00280865 0.07621706 0.02395766    0.0498537 ----
   116   0   0   F    F -2.48D-02 0.00789699 0.00280865 0.00189365 0.00059524    0.0497513 ----
   117   0   0   F    T  3.38D+00 0.00701869 0.00257103 0.13175921 0.04235498    0.0497512 ----
   118   0   0   F    F -4.41D-01 0.00701869 0.00257103 0.05816249 0.01869676    0.0496853 ----
   119   0   0   F    T  2.25D+00 0.00675120 0.00239367 0.07646666 0.02365821    0.0495622 ----
   120   0   0   F    F -3.55D-01 0.00675120 0.00239367 0.02715366 0.00840114    0.0494758 ----
   121   0   0   F    T  1.40D+00 0.00756041 0.00248149 0.04363267 0.01525707    0.0494352 ----
   122   0   0   F    F  5.78D-01 0.00756041 0.00248149 0.02520581 0.00881374    0.0492604 ----
   123   0   0   F    T  4.13D+00 0.00525598 0.00186275 0.06232836 0.02407081    0.0492340 ----
   124   0   0   F    F -1.27D-01 0.00525598 0.00186275 0.00794397 0.00306791    0.0490511 ----
   125   0   0   F    T  1.82D+00 0.00711746 0.00255386 0.05836698 0.02100290    0.0490472 ----
   126   0   0   F    F -1.31D-01 0.00711746 0.00255386 0.00765975 0.00275630    0.0488944 ----
   127   0   0   F    T  1.38D+00 0.00717537 0.00274099 0.04511800 0.01824660    0.0488907 ----
   128   0   0   F    F  5.25D-01 0.00717537 0.00274099 0.02367838 0.00957600    0.0486863 ----
   129   0   0   F    T  3.06D+00 0.00467025 0.00217968 0.06848977 0.02782260    0.0486600 ----
   130   0   0   F    F  1.50D-02 0.00467025 0.00217968 0.00102825 0.00041771    0.0484379 ----
   131   0   0   F    T  1.83D+00 0.00857741 0.00274951 0.07366544 0.02824031    0.0484378 ----
   132   0   0   F    F  1.29D-01 0.00857741 0.00274951 0.00950838 0.00364512    0.0482021 ----
   133   0   0   F    T  1.89D+00 0.00825766 0.00294852 0.07392016 0.03188543    0.0481989 ----
   134   0   0   F    F -4.25D-01 0.00825766 0.00294852 0.03143782 0.01356069    0.0481351 ----
   135   0   0   F    T  3.29D+00 0.00381608 0.00172177 0.04377826 0.01832474    0.0480574 ----
   136   0   0   F    F -1.18D-01 0.00381608 0.00172177 0.00515492 0.00215775    0.0479316 ----
   137   0   0   F    T  3.09D+00 0.00335783 0.00160553 0.04286565 0.01616699    0.0479293 ----
   138   0   0   F    F  7.54D-02 0.00335783 0.00160553 0.00323395 0.00121970    0.0478002 ----
   139   0   0   F    T  1.39D+00 0.00865018 0.00245678 0.03971248 0.01738669    0.0477995 ----
   140   0   0   F    F -2.21D-01 0.00865018 0.00245678 0.00875722 0.00383404    0.0477100 ----
   141   0   0   F    T  5.63D+00 0.00244836 0.00102369 0.03117147 0.01355266    0.0477025 ----
   142   0   0   T    F  3.64D-01 0.00244836 0.00102369 0.01134720 0.00493351    0.0477680 ----
   143   0   0   F    T  2.66D+00 0.00191853 0.00083921 0.01171952 0.00493351    0.0476703 ----
   144   0   0   F    F -7.02D-02 0.00191853 0.00083921 0.00082273 0.00034634    0.0476442 ----
   145   0   0   F    T  1.54D+00 0.00280939 0.00103263 0.01100897 0.00458717    0.0476441 ----
   146   0   0   F    F -1.27D-01 0.00280939 0.00103263 0.00139371 0.00058072    0.0476232 ----
   147   0   0   F    T  2.14D+00 0.00188956 0.00077795 0.00826585 0.00400644    0.0476227 ----
   148   0   0   F    F -1.12D-01 0.00188956 0.00077795 0.00092930 0.00045043    0.0476057 ----
   149   0   0   F    T  2.16D+00 0.00165450 0.00069414 0.00996386 0.00355601    0.0476055 ----
   150   0   0   F    F  1.79D+00 0.00165450 0.00069414 0.01781959 0.00635965    0.0475799 ----
   151   0   0   F    T  2.18D+00 0.00388234 0.00113993 0.02778122 0.00991567    0.0475622 ----
   152   0   0   T    F  4.76D-01 0.00388234 0.00113993 0.01323394 0.00472345    0.0475663 ----
   153   0   0   F    T  2.36D+00 0.00222798 0.00072248 0.01337362 0.00472345    0.0475420 ----
   154   0   0   F    F -2.72D-01 0.00222798 0.00072248 0.00363810 0.00128495    0.0475304 ----
   155   0   0   F    T  2.09D+00 0.00140620 0.00063109 0.01013366 0.00343851    0.0475285 ----
   156   0   0   F    F  1.78D+00 0.00140620 0.00063109 0.01807448 0.00613295    0.0475079 ----
   157   0   0   F    T  1.47D+00 0.00351754 0.00125468 0.02622697 0.00957146    0.0474934 ----
   158   0   0   F    F  7.68D-01 0.00351754 0.00125468 0.02014007 0.00735006    0.0474446 ----
   159   0   0   F    T  2.39D+00 0.00458465 0.00129962 0.05079088 0.01692152    0.0474337 ----
   160   0   0   T    F  4.06D-01 0.00458465 0.00129962 0.02059822 0.00686251    0.0474634 ----
   161   0   0   F    T  2.64D+00 0.00165679 0.00077899 0.01724810 0.00686251    0.0474090 ----
   162   0   0   F    F  3.52D-01 0.00165679 0.00077899 0.00606303 0.00241230    0.0473790 ----
   163   0   0   F    T  4.20D+00 0.00251553 0.00069536 0.02266388 0.00927482    0.0473768 ----
   164   0   0   F    F -4.52D-01 0.00251553 0.00069536 0.01024871 0.00419411    0.0473714 ----
   165   0   0   F    T  2.77D+00 0.00135242 0.00060881 0.01396429 0.00508070    0.0473602 ----
   166   0   0   F    F -7.58D-02 0.00135242 0.00060881 0.00105800 0.00038494    0.0473460 ----
   167   0   0   F    T  1.42D+00 0.00200755 0.00080546 0.01097155 0.00469577    0.0473459 ----
   168   0   0   F    F  7.22D-02 0.00200755 0.00080546 0.00079171 0.00033885    0.0473311 ----
   169   0   0   F    T  2.87D+00 0.00151621 0.00057513 0.01191879 0.00503462    0.0473310 ----
   170   0   0   T    F  4.56D-01 0.00151621 0.00057513 0.00543929 0.00229761    0.0473337 ----
   171   0   0   F    T  3.85D+00 0.00072314 0.00031160 0.00444400 0.00229761    0.0473245 ----
   172   0   0   F    F  1.03D-01 0.00072314 0.00031160 0.00045574 0.00023563    0.0473183 ---+
   173   0   0   F    T  2.52D+00 0.00094009 0.00038838 0.00502585 0.00253324    0.0473183 ----
   174   0   0   F    F  6.17D-01 0.00094009 0.00038838 0.00310337 0.00156422    0.0473104 ----
   175   0   0   F    T  1.78D+00 0.00136856 0.00057829 0.00981325 0.00409746    0.0473091 ----
   176   0   0   F    F -3.78D-01 0.00136856 0.00057829 0.00370902 0.00154868    0.0473056 ----
   177   0   0   F    T  3.09D+00 0.00071324 0.00033094 0.00602604 0.00254878    0.0473035 ----
   178   0   0   F    F -4.44D-01 0.00071324 0.00033094 0.00267734 0.00113241    0.0473025 ----
   179   0   0   F    T  1.85D+00 0.00066954 0.00030583 0.00323637 0.00141637    0.0473007 ----
   180   0   0   F    F  1.82D+00 0.00066954 0.00030583 0.00590210 0.00258300    0.0472964 ----
   181   0   0   F    T  3.16D+00 0.00103892 0.00038353 0.00944392 0.00399938    0.0472934 ----
   182   0   0   F    F -2.12D-01 0.00103892 0.00038353 0.00200500 0.00084909    0.0472883 ----
   183   0   0   F    T  2.20D+00 0.00072675 0.00040011 0.00687266 0.00315028    0.0472879 ----
   184   0   0   F    F  6.63D-02 0.00072675 0.00040011 0.00045552 0.00020880    0.0472823 ---+
   185   0   0   F    T  1.05D+00 0.00130623 0.00059361 0.00806157 0.00335909    0.0472823 ----
   186   0   0   F    F  1.56D+00 0.00130623 0.00059361 0.01258966 0.00524585    0.0472734 ----
   187   0   0   F    T  2.91D+00 0.00115772 0.00055632 0.02005087 0.00860493    0.0472681 ----
   188   0   0   F    F -3.68D-01 0.00115772 0.00055632 0.00737036 0.00316303    0.0472625 ----
   189   0   0   F    T  2.66D+00 0.00101912 0.00045977 0.01322969 0.00544191    0.0472595 ----
   190   0   0   F    F  7.76D-01 0.00101912 0.00045977 0.01026800 0.00422364    0.0472474 ----
   191   0   0   F    T  5.87D+00 0.00109693 0.00041168 0.02515105 0.00966555    0.0472445 ----
   192   0   0   T    F  2.61D-01 0.00109693 0.00041168 0.00656256 0.00252199    0.0472720 ----
   193   0   0   F    T  1.39D+00 0.00119169 0.00042678 0.00517202 0.00252199    0.0472406 ----
   194   0   0   F    F  6.63D-01 0.00119169 0.00042678 0.00342664 0.00167091    0.0472353 ----
   195   0   0   F    T  1.58D+00 0.00150228 0.00051246 0.00921660 0.00419290    0.0472343 ----
   196   0   0   F    F  6.59D-01 0.00150228 0.00051246 0.00607042 0.00276161    0.0472256 ----
   197   0   0   F    T  4.13D+00 0.00122920 0.00040071 0.01484720 0.00695451    0.0472240 ----
   198   0   0   T    F  3.84D-01 0.00122920 0.00040071 0.00569755 0.00266876    0.0472298 ----
   199   0   0   F    T  4.73D+00 0.00059317 0.00021784 0.00637096 0.00266876    0.0472202 ----
   200   0   0   F    F  7.10D-02 0.00059317 0.00021784 0.00045238 0.00018950    0.0472166 ---+
   201   0   0   F    T  2.08D+00 0.00066520 0.00033434 0.00724659 0.00285826    0.0472166 ----
   202   0   0   F    T  1.56D+00 0.00135736 0.00037887 0.00671493 0.00285826    0.0472132 ----
   203   0   0   F    F -1.15D-01 0.00135736 0.00037887 0.00077516 0.00032995    0.0472103 ----
   204   0   0   F    T  2.99D+00 0.00058172 0.00026620 0.00573230 0.00252831    0.0472103 ----
   205   0   0   F    T  1.84D+00 0.00085637 0.00032665 0.00630988 0.00252831    0.0472073 ----
   206   0   0   F    F  5.77D-01 0.00085637 0.00032665 0.00363889 0.00145807    0.0472035 ----
   207   0   0   F    T  3.58D+00 0.00096066 0.00030815 0.01024671 0.00398638    0.0472029 ----
   208   0   0   T    F  4.75D-01 0.00096066 0.00030815 0.00486958 0.00189446    0.0472034 ----
   209   0   0   F    T  1.75D+00 0.00087089 0.00029550 0.00611647 0.00189446    0.0472005 ----
   210   0   0   F    F -1.84D-01 0.00087089 0.00029550 0.00112370 0.00034804    0.0471987 ----
   211   0   0   F    T  1.91D+00 0.00067431 0.00025012 0.00422388 0.00154642    0.0471986 ----
   212   0   0   F    F  9.73D-01 0.00067431 0.00025012 0.00410852 0.00150418    0.0471959 ----
   213   0   0   F    T  2.74D+00 0.00086859 0.00029008 0.00779729 0.00305059    0.0471951 ----
   214   0   0   F    F -2.37D-01 0.00086859 0.00029008 0.00184513 0.00072189    0.0471927 ----
   215   0   0   F    T  2.98D+00 0.00047801 0.00023653 0.00630542 0.00232871    0.0471924 ----
   216   0   0   F    F -2.13D-01 0.00047801 0.00023653 0.00134585 0.00049705    0.0471906 ----
   217   0   0   F    T  1.65D+00 0.00065562 0.00027793 0.00479845 0.00183166    0.0471905 ----
   218   0   0   F    F -2.26D-01 0.00065562 0.00027793 0.00108544 0.00041433    0.0471891 ----
   219   0   0   F    T  2.61D+00 0.00043892 0.00018754 0.00343009 0.00141733    0.0471890 ----
   220   0   0   F    F -1.89D-01 0.00043892 0.00018754 0.00064710 0.00026738    0.0471879 ---+
   221   0   0   F    T  2.69D+00 0.00039032 0.00015970 0.00272140 0.00114994    0.0471879 ----
   222   0   0   F    F  9.49D-01 0.00039032 0.00015970 0.00258350 0.00109167    0.0471863 ----
   223   0   0   F    T  1.70D+00 0.00075662 0.00027729 0.00487072 0.00224162    0.0471859 ----
   224   0   0   F    F  8.06D-02 0.00075662 0.00027729 0.00039265 0.00018071    0.0471837 --++
   225   0   0   F    T  3.24D+00 0.00045410 0.00020650 0.00620608 0.00242232    0.0471837 ----
   226   0   0   T    F  3.25D-01 0.00045410 0.00020650 0.00201647 0.00078706    0.0471860 ----
   227   0   0   F    T  1.93D+00 0.00032722 0.00014770 0.00159306 0.00078706    0.0471831 ----
   228   0   0   F    F  8.58D-01 0.00032722 0.00014770 0.00136741 0.00067557    0.0471821 ----
   229   0   0   F    T  2.03D+00 0.00041312 0.00019253 0.00311866 0.00146263    0.0471819 ----
   230   0   0   F    F  1.51D+00 0.00041312 0.00019253 0.00472398 0.00221551    0.0471801 ----
   231   0   0   F    T  3.13D+00 0.00057836 0.00024214 0.00853144 0.00367814    0.0471791 ----
   232   0   0   T    F  4.62D-01 0.00057836 0.00024214 0.00394205 0.00169953    0.0471795 ----
   233   0   0   F    T  2.63D+00 0.00034810 0.00017621 0.00327752 0.00169953    0.0471778 ----
   234   0   0   F    F -3.40D-01 0.00034810 0.00017621 0.00111329 0.00057728    0.0471772 ----
   235   0   0   F    T  1.41D+00 0.00048928 0.00019240 0.00253358 0.00112224    0.0471770 ----
   236   0   0   F    F  3.53D-01 0.00048928 0.00019240 0.00089546 0.00039664    0.0471760 ----
   237   0   0   F    T  3.41D+00 0.00030263 0.00014070 0.00325238 0.00151889    0.0471759 ----
   238   0   0   F    T  2.57D+00 0.00044040 0.00015954 0.00310972 0.00151889    0.0471749 ----
   239   0   0   F    F  2.43D-01 0.00044040 0.00015954 0.00075474 0.00036864    0.0471737 ----
   240   0   0   F    T  2.00D+00 0.00049740 0.00019858 0.00388201 0.00188753    0.0471737 ----
   241   0   0   F    F -3.51D-01 0.00049740 0.00019858 0.00136300 0.00066273    0.0471731 ----
   242   0   0   F    T  2.56D+00 0.00042695 0.00013835 0.00244244 0.00122480    0.0471729 ----
   243   0   0   F    F -4.58D-01 0.00042695 0.00013835 0.00111769 0.00056049    0.0471728 ----
   244   0   0   F    T  2.38D+00 0.00020191 0.00010201 0.00140255 0.00066432    0.0471725 ----
   245   0   0   F    F  3.45D-01 0.00020191 0.00010201 0.00048396 0.00022923    0.0471720 ---+
   246   0   0   F    T  2.23D+00 0.00028595 0.00011947 0.00184708 0.00089354    0.0471720 ----
   247   0   0   F    F  4.79D-01 0.00028595 0.00011947 0.00088531 0.00042828    0.0471714 ----
   248   0   0   F    T  3.56D+00 0.00034225 0.00011249 0.00302350 0.00132182    0.0471713 ----
   249   0   0   T    F  3.95D-01 0.00034225 0.00011249 0.00119280 0.00052147    0.0471717 ----
   250   0   0   F    T  1.34D+00 0.00029619 0.00011235 0.00116803 0.00052147    0.0471710 ----
   251   0   0   F    F  1.13D+00 0.00029619 0.00011235 0.00132427 0.00059122    0.0471706 ----
   252   0   0   F    T  1.63D+00 0.00037006 0.00014723 0.00234094 0.00111269    0.0471705 ----
   253   0   0   F    F  4.26D-01 0.00037006 0.00014723 0.00099760 0.00047418    0.0471698 ----
   254   0   0   F    T  4.07D+00 0.00029005 0.00010901 0.00353891 0.00158687    0.0471697 ----
   255   0   0   F    F -2.47D-01 0.00029005 0.00010901 0.00087326 0.00039158    0.0471692 ----
   256   0   0   F    T  1.95D+00 0.00029358 0.00013492 0.00303954 0.00119529    0.0471692 ----
   257   0   0   F    F  7.03D-01 0.00029358 0.00013492 0.00213578 0.00083989    0.0471684 ----
   258   0   0   F    T  1.04D+00 0.00055301 0.00024053 0.00468000 0.00203518    0.0471683 ----
   259   0   0   F    F  1.19D+00 0.00055301 0.00024053 0.00555855 0.00241724    0.0471669 ----
   260   0   0   F    T  2.40D+00 0.00052348 0.00023516 0.01048390 0.00445242    0.0471663 ----
   261   0   0   F    F -1.80D-01 0.00052348 0.00023516 0.00188255 0.00079950    0.0471648 ----
   262   0   0   F    T  2.67D+00 0.00050295 0.00020133 0.00822724 0.00365292    0.0471647 ----
   263   0   0   F    F  1.56D-01 0.00050295 0.00020133 0.00128155 0.00056901    0.0471628 ----
   264   0   0   F    T  3.63D+00 0.00072139 0.00018371 0.00925612 0.00422193    0.0471628 ----
   265   0   0   F    F -4.70D-01 0.00072139 0.00018371 0.00435289 0.00198545    0.0471626 ----
   266   0   0   F    T  1.98D+00 0.00050521 0.00017853 0.00584006 0.00223648    0.0471618 ----
   267   0   0   F    F -3.21D-01 0.00050521 0.00017853 0.00187296 0.00071726    0.0471613 ----
   268   0   0   F    T  1.73D+00 0.00032060 0.00015551 0.00375640 0.00151922    0.0471612 ----
   269   0   0   F    F  1.29D+00 0.00032060 0.00015551 0.00484268 0.00195855    0.0471602 ----
   270   0   0   F    T  2.71D+00 0.00051984 0.00018776 0.00835016 0.00347777    0.0471598 ----
   271   0   0   F    F -4.16D-01 0.00051984 0.00018776 0.00347333 0.00144661    0.0471593 ----
   272   0   0   F    T  4.98D+00 0.00027075 0.00010464 0.00486029 0.00203116    0.0471589 ----
   273   0   0   T    F  3.86D-01 0.00027075 0.00010464 0.00187773 0.00078472    0.0471594 ----
   274   0   0   F    T  1.73D+00 0.00024629 0.00010875 0.00177285 0.00078472    0.0471586 ----
   275   0   0   F    T  1.20D+00 0.00029580 0.00012165 0.00175512 0.00078472    0.0471583 ----
   276   0   0   F    F  1.41D+00 0.00029580 0.00012165 0.00247704 0.00110749    0.0471580 ----
   277   0   0   F    T  5.09D+00 0.00028359 0.00013360 0.00512349 0.00189221    0.0471578 ----
   278   0   0   T    F  2.49D-01 0.00028359 0.00013360 0.00127322 0.00047023    0.0471606 ----
   279   0   0   F    T  1.81D+00 0.00028620 0.00010520 0.00087492 0.00047023    0.0471575 ----
   280   0   0   F    T  1.46D+00 0.00028842 0.00011099 0.00101285 0.00047023    0.0471572 ----
   281   0   0   F    T  6.48D+00 0.00016334 0.00006423 0.00115361 0.00047023    0.0471569 -+--
   282   0   0   T    F  2.80D-01 0.00016334 0.00006423 0.00032323 0.00013175    0.0471576 -+++
   283   0   0   F    T  1.43D+00 0.00016755 0.00006143 0.00026294 0.00013175    0.0471568 -+++
   284   0   0   F    T  1.25D+00 0.00016255 0.00005659 0.00027993 0.00013175    0.0471568 -+++
   285   0   0   F    T  2.11D+00 0.00017354 0.00005863 0.00038676 0.00013175    0.0471567 -+++
   286   0   0   F    T  1.00D+00 0.00031500 0.00010574 0.00051258 0.00023228    0.0471567 ---+
   287   0   0   T    F  5.00D-01 0.00031500 0.00010574 0.00025629 0.00011614    0.0471571 --++
   288   0   0   T    F  5.00D-01 0.00031500 0.00010574 0.00012814 0.00005807    0.0471568 --++
   289   0   0   T    F  5.00D-01 0.00031500 0.00010574 0.00006407 0.00002903    0.0471567 --++
   290   0   0   T    F  5.00D-01 0.00031500 0.00010574 0.00003204 0.00001452    0.0471567 --++
   291   0   0   T    F  5.00D-01 0.00031500 0.00010574 0.00001602 0.00000726    0.0471567 --++
   292   0   0   T    F  5.00D-01 0.00031500 0.00010574 0.00000801 0.00000363    0.0471567 --++
   293   0   0   T    F  5.00D-01 0.00031500 0.00010574 0.00000400 0.00000181    0.0471567 --++
   294   0   0   T    F  5.00D-01 0.00031500 0.00010574 0.00000200 0.00000091    0.0471567 --++
   295   0   0   T    F  5.00D-01 0.00031500 0.00010574 0.00000100 0.00000045    0.0471567 --++
   296   0   0   T    F  5.00D-01 0.00031500 0.00010574 0.00000050 0.00000023    0.0471567 --++
   297   0   0   T    T  1.00D+00 0.00031535 0.00010583 0.00030663 0.00010516    0.0471567 --++
   298   0   0   F    T  1.24D+00 0.00026193 0.00008902 0.00025224 0.00010516    0.0471566 --++
   299   0   0   T    F  5.00D-01 0.00026193 0.00008902 0.00012612 0.00005258    0.0471570 --++
   300   0   0   T    F  5.00D-01 0.00026193 0.00008902 0.00006306 0.00002629    0.0471568 --++
   301   0   0   T    F  5.00D-01 0.00026193 0.00008902 0.00003153 0.00001315    0.0471567 --++
   302   0   0   T    F  5.00D-01 0.00026193 0.00008902 0.00001577 0.00000657    0.0471567 --++
   303   0   0   T    F  5.00D-01 0.00026193 0.00008902 0.00000788 0.00000329    0.0471567 --++
   304   0   0   T    F  5.00D-01 0.00026193 0.00008902 0.00000394 0.00000164    0.0471567 --++
   305   0   0   T    F  5.00D-01 0.00026193 0.00008902 0.00000197 0.00000082    0.0471566 --++
   306   0   0   T    F  5.00D-01 0.00026193 0.00008902 0.00000099 0.00000041    0.0471566 --++
   307   0   0   T    T  1.00D+00 0.00026375 0.00008958 0.00014955 0.00007287    0.0471566 --++
   308   0   0   F    T  3.31D+00 0.00005107 0.00002141 0.00018007 0.00007287    0.0471566 ====
 ****************************
 MOLECULAR MECHANICS FUNCTION
 ****************************
 Atomic parameters:
 Center  VDW
      1 1.9080 0.0860000
      2 1.7210 0.2104000
      3 1.9080 0.1094000
      4 1.4870 0.0157000
      5 1.4870 0.0157000
      6 1.8750 0.1700000
      7 0.6000 0.0157000
      8 0.6000 0.0157000
      9 1.6612 0.2100000
     10 0.0000 0.0000000
 Molecular mechanics terms:
 NBDir 3 1      0      0
 HrmStr1  1- 2  431.53 1.3510
 HrmStr1  1- 3  294.15 1.5090
 HrmStr1  1- 9  946.08 1.2030
 HrmStr1  2-10  566.76 0.9680
 HrmStr1  3- 4  358.05 1.0960
 HrmStr1  3- 5  358.05 1.0960
 HrmStr1  3- 6  380.82 1.4520
 HrmStr1  6- 7  506.01 1.0110
 HrmStr1  6- 8  506.01 1.0110
 HrmBnd1  1- 2-10  56.55 107.23
 HrmBnd1  1- 3- 4  46.41 106.89
 HrmBnd1  1- 3- 5  46.41 106.89
 HrmBnd1  1- 3- 6  59.93 110.61
 HrmBnd1  2- 1- 3  67.92 111.72
 HrmBnd1  2- 1- 9  91.40 123.02
 HrmBnd1  3- 1- 9  62.83 125.24
 HrmBnd1  3- 6- 7  52.60 110.71
 HrmBnd1  3- 6- 8  52.60 110.71
 HrmBnd1  4- 3- 5  44.68 106.22
 HrmBnd1  4- 3- 6  52.45 112.94
 HrmBnd1  5- 3- 6  52.45 112.94
 HrmBnd1  7- 6- 8  47.09 108.63
 AmbTrs  3- 1- 2-10   0 180   0   0  0.0000 14.5000  0.0000  0.0000  2.0
 AmbTrs  9- 1- 2-10   0   0   0   0  0.0000 14.5000  0.0000  0.0000  2.0
 AmbTrs  2- 1- 3- 4   0   0   0   0  0.0000 14.5000  0.0000  0.0000  6.0
 AmbTrs  2- 1- 3- 5   0   0   0   0  0.0000 14.5000  0.0000  0.0000  6.0
 AmbTrs  2- 1- 3- 6   0   0   0   0  0.0000 14.5000  0.0000  0.0000  6.0
 AmbTrs  9- 1- 3- 4   0   0   0   0  0.0000 14.5000  0.0000  0.0000  6.0
 AmbTrs  9- 1- 3- 5   0   0   0   0  0.0000 14.5000  0.0000  0.0000  6.0
 AmbTrs  9- 1- 3- 6   0   0   0   0  0.0000 14.5000  0.0000  0.0000  6.0
 AmbTrs  1- 3- 6- 7   0 180   0   0  0.0000 25.6300  0.0000  0.0000  6.0
 AmbTrs  1- 3- 6- 8   0 180   0   0  0.0000 25.6300  0.0000  0.0000  6.0
 AmbTrs  4- 3- 6- 7   0   0   0   0  0.0000 16.9300  0.0000  0.0000  6.0
 AmbTrs  4- 3- 6- 8   0   0   0   0  0.0000 16.9300  0.0000  0.0000  6.0
 AmbTrs  5- 3- 6- 7   0   0   0   0  0.0000 16.9300  0.0000  0.0000  6.0
 AmbTrs  5- 3- 6- 8   0   0   0   0  0.0000 16.9300  0.0000  0.0000  6.0
 NBPair  2- 1 3 1      0      0 -1.000 -1.000
 NBPair  3- 2 3 1      0      0 -1.000 -1.000
 NBPair 10- 3 3 1      0      0 -0.500 -0.167
 NBPair  9- 2 3 1      0      0 -1.000 -1.000
 NBPair 10- 9 3 1      0      0 -0.500 -0.167
 NBPair  3- 1 3 1      0      0 -1.000 -1.000
 NBPair  4- 2 3 1      0      0 -0.500 -0.167
 NBPair  5- 2 3 1      0      0 -0.500 -0.167
 NBPair  6- 2 3 1      0      0 -0.500 -0.167
 NBPair  9- 3 3 1      0      0 -1.000 -1.000
 NBPair  9- 4 3 1      0      0 -0.500 -0.167
 NBPair  9- 5 3 1      0      0 -0.500 -0.167
 NBPair  9- 6 3 1      0      0 -0.500 -0.167
 NBPair  9- 1 3 1      0      0 -1.000 -1.000
 NBPair 10- 1 3 1      0      0 -1.000 -1.000
 NBPair 10- 2 3 1      0      0 -1.000 -1.000
 NBPair  4- 1 3 1      0      0 -1.000 -1.000
 NBPair  5- 1 3 1      0      0 -1.000 -1.000
 NBPair  6- 1 3 1      0      0 -1.000 -1.000
 NBPair  4- 3 3 1      0      0 -1.000 -1.000
 NBPair  5- 4 3 1      0      0 -1.000 -1.000
 NBPair  6- 4 3 1      0      0 -1.000 -1.000
 NBPair  5- 3 3 1      0      0 -1.000 -1.000
 NBPair  6- 5 3 1      0      0 -1.000 -1.000
 NBPair  6- 3 3 1      0      0 -1.000 -1.000
 NBPair  7- 1 3 1      0      0 -0.500 -0.167
 NBPair  8- 1 3 1      0      0 -0.500 -0.167
 NBPair  7- 4 3 1      0      0 -0.500 -0.167
 NBPair  8- 4 3 1      0      0 -0.500 -0.167
 NBPair  7- 5 3 1      0      0 -0.500 -0.167
 NBPair  8- 5 3 1      0      0 -0.500 -0.167
 NBPair  7- 3 3 1      0      0 -1.000 -1.000
 NBPair  8- 3 3 1      0      0 -1.000 -1.000
 NBPair  7- 6 3 1      0      0 -1.000 -1.000
 NBPair  8- 7 3 1      0      0 -1.000 -1.000
 NBPair  8- 6 3 1      0      0 -1.000 -1.000
 Energy per function type:
 Direct Coulomb + vdW (small)                           0.014064110
 Direct Coulomb (large)                                -0.131764388
 Direct vdW (large)                                   268.442536516
 Non-direct Coulomb + vdW (small)                      -0.022154201
 Non-direct Coulomb (large)                             0.138200402
 Non-direct vdW (large)                              -268.442536516
 Harmonic stretch I                                     0.000137683
 Harmonic bend I                                        0.009635843
 Amber torsion                                          0.039037110
 Energy per function class:
        Coulomb              -0.003564081
    Vanderwaals               0.001910005
     Stretching               0.000137683
        Bending               0.009635843
        Torsion               0.039037110
 Energy=    4.715655930E-02 NIter=   0.
 Dipole moment=       0.185442      -0.357057       0.517715
 Leave Link  402 at Tue Nov 28 09:32:06 2023, MaxMem=   134217728 cpu:               0.5 elap:               0.5
 (Enter /home/emanuele/chem_software/gaussian//gdv/l716.exe)
 Dipole        = 1.85442468D-01-3.57056851D-01 5.17715270D-01
 -------------------------------------------------------------------
 Center     Atomic                   Forces (Hartrees/Bohr)
 Number     Number              X              Y              Z
 -------------------------------------------------------------------
      1        6           0.000010719    0.000023343   -0.000006141
      2        8           0.000019893   -0.000027516    0.000023604
      3        6           0.000006604   -0.000017108    0.000009732
      4        1          -0.000012965   -0.000016836   -0.000037900
      5        1           0.000032929    0.000031096   -0.000002183
      6        7          -0.000013143   -0.000004175    0.000051070
      7        1          -0.000004504    0.000000345   -0.000034469
      8        1          -0.000013163   -0.000003451   -0.000001332
      9        8          -0.000015872   -0.000023238   -0.000016420
     10        1          -0.000010497    0.000037540    0.000014038
 -------------------------------------------------------------------
 Cartesian Forces:  Max     0.000051070 RMS     0.000021412
 Z-matrix is all fixed cartesians, so copy forces.
 Leave Link  716 at Tue Nov 28 09:32:06 2023, MaxMem=   134217728 cpu:               0.0 elap:               0.0
 (Enter /home/emanuele/chem_software/gaussian//gdv/l103.exe)

 GradGradGradGradGradGradGradGradGradGradGradGradGradGradGradGradGradGrad
 Berny optimization.
 Search for a local minimum.
 Step number   1 out of a maximum of    2
 All quantities printed in internal units (Hartrees-Bohrs-Radians)
 RMS Force = .21412D-04 SwitMx=.10000D-02 MixMth= 2
 Mixed Optimization -- En-DIIS/RFO-DIIS
 Second derivative matrix not updated -- unit matrix used.
 ITU=  0
 RFO step:  Lambda=-1.37544923D-08 EMin= 1.00000000D+00
 Linear search not attempted -- first point.
 Variable       Old X    -DE/DX   Delta X   Delta X   Delta X     New X
                                 (Linear)    (Quad)   (Total)
    X1       -1.02293   0.00001   0.00000   0.00001   0.00001  -1.02292
    Y1        0.29601   0.00002   0.00000   0.00002   0.00002   0.29603
    Z1       -0.11916  -0.00001   0.00000  -0.00001  -0.00001  -0.11917
    X2       -3.03427   0.00002   0.00000   0.00002   0.00002  -3.03425
    Y2       -1.11110  -0.00003   0.00000  -0.00003  -0.00003  -1.11113
    Z2        0.57912   0.00002   0.00000   0.00002   0.00002   0.57914
    X3        1.34239   0.00001   0.00000   0.00001   0.00001   1.34239
    Y3       -1.34242  -0.00002   0.00000  -0.00002  -0.00002  -1.34244
    Z3       -0.00285   0.00001   0.00000   0.00001   0.00001  -0.00284
    X4        0.93337  -0.00001   0.00000  -0.00001  -0.00001   0.93335
    Y4       -2.78356  -0.00002   0.00000  -0.00002  -0.00002  -2.78358
    Z4        1.43177  -0.00004   0.00000  -0.00004  -0.00004   1.43174
    X5        1.44201   0.00003   0.00000   0.00003   0.00003   1.44204
    Y5       -2.24027   0.00003   0.00000   0.00003   0.00003  -2.24024
    Z5       -1.86852  -0.00000   0.00000  -0.00000  -0.00000  -1.86852
    X6        3.51210  -0.00001   0.00000  -0.00001  -0.00001   3.51209
    Y6        0.20115  -0.00000   0.00000  -0.00000  -0.00000   0.20115
    Z6        0.71249   0.00005   0.00000   0.00005   0.00005   0.71254
    X7        3.32908  -0.00000   0.00000  -0.00000  -0.00000   3.32908
    Y7        2.10432   0.00000   0.00000   0.00000   0.00000   2.10432
    Z7        0.75134  -0.00003   0.00000  -0.00003  -0.00003   0.75131
    X8        5.26874  -0.00001   0.00000  -0.00001  -0.00001   5.26873
    Y8       -0.54711  -0.00000   0.00000  -0.00000  -0.00000  -0.54711
    Z8        0.62657  -0.00000   0.00000  -0.00000  -0.00000   0.62657
    X9       -1.26005  -0.00002   0.00000  -0.00002  -0.00002  -1.26007
    Y9        1.71383  -0.00002   0.00000  -0.00002  -0.00002   1.71380
    Z9       -1.87915  -0.00002   0.00000  -0.00002  -0.00002  -1.87917
   X10       -4.30831  -0.00001   0.00000  -0.00001  -0.00001  -4.30832
   Y10        0.07411   0.00004   0.00000   0.00004   0.00004   0.07414
   Z10        1.13834   0.00001   0.00000   0.00001   0.00001   1.13836
         Item               Value     Threshold  Converged?
 Maximum Force            0.000051     0.000450     YES
 RMS     Force            0.000021     0.000300     YES
 Maximum Displacement     0.000051     0.001800     YES
 RMS     Displacement     0.000021     0.001200     YES
 Predicted change in Energy=-6.877246D-09
 Optimization completed.
    -- Stationary point found.
 Largest change from initial coordinates is atom    9       0.992 Angstoms.
 GradGradGradGradGradGradGradGradGradGradGradGradGradGradGradGradGradGrad

 Leave Link  103 at Tue Nov 28 09:32:06 2023, MaxMem=   134217728 cpu:               0.0 elap:               0.0
 (Enter /home/emanuele/chem_software/gaussian//gdv/l202.exe)
                          Input orientation:                          
 ---------------------------------------------------------------------
 Center     Atomic      Atomic             Coordinates (Angstroms)
 Number     Number       Type             X           Y           Z
 ---------------------------------------------------------------------
      1          6    20001002       -0.541310    0.156641   -0.063058
      2          8    20001022       -1.605668   -0.587968    0.306457
      3          6    20001001        0.710361   -0.710378   -0.001509
      4          1    20001034        0.493916   -1.472998    0.757662
      5          1    20001034        0.763079   -1.185502   -0.988779
      6          7    20001020        1.858525    0.106445    0.377033
      7          1    20001029        1.761673    1.113558    0.397594
      8          1    20001029        2.788098   -0.289519    0.331568
      9          8    20001025       -0.666790    0.906918   -0.994404
     10          1    20001031       -2.279858    0.039215    0.602385
 ---------------------------------------------------------------------
                    Distance matrix (angstroms):
                    1          2          3          4          5
     1  C    0.000000
     2  O    1.350497   0.000000
     3  C    1.523873   2.339619   0.000000
     4  H    2.097855   2.322739   1.097624   0.000000
     5  H    2.087999   2.765077   1.096916   1.790296   0.000000
     6  N    2.440370   3.533811   1.459032   2.121716   2.175907
     7  H    2.536065   3.773922   2.142728   2.902952   2.864420
     8  H    3.382269   4.403963   2.145939   2.616382   2.578140
     9  O    1.202525   2.192810   2.344788   3.175055   2.534320
    10  H    1.865249   0.967194   3.141335   3.163024   3.645710
                    6          7          8          9         10
     6  N    0.000000
     7  H    1.011968   0.000000
     8  H    1.011416   1.739693   0.000000
     9  O    2.983088   2.806741   3.889205   0.000000
    10  H    4.145059   4.186900   5.085822   2.429945   0.000000
 Symmetry turned off by external request.
 Stoichiometry    C2H5NO2
 Framework group  C1[X(C2H5NO2)]
 Deg. of freedom    24
 Full point group                 C1      NOp   1
 Rotational constants (GHZ):          10.1635525           3.8248338           3.0316273
 Leave Link  202 at Tue Nov 28 09:32:06 2023, MaxMem=   134217728 cpu:               0.0 elap:               0.0
 (Enter /home/emanuele/chem_software/gaussian//gdv/l9999.exe)
 Unable to Open any file for archive entry.
 1\1\GINC-EMANUELE-XPS-13-9343\FOpt\AMBER\ZDO\C2H5N1O2\EMANUELE\28-Nov-
 2023\0\\#p Amber=(SoftFirst,Print) geom=nocrowd nosymm opt=(maxcycle=3
 00)\\Title\\0,1\C,-0.5413099123,0.1566405312,-0.0630578238\O,-1.605668
 2557,-0.5879679865,0.3064571329\C,0.7103609705,-0.7103778388,-0.001508
 5353\H,0.4939158093,-1.4729982052,0.7576622298\H,0.7630792905,-1.18550
 2312,-0.9887791509\N,1.8585247144,0.106445178,0.3770334195\H,1.7616734
 534,1.1135579967,0.3975943265\H,2.7880982716,-0.2895189139,0.331567834
 5\O,-0.6667902829,0.9069177354,-0.994404234\H,-2.2798580587,0.03921481
 5,0.6023848009\\Version=ES64L-GDVRevJ.14\HF=0.0471566\RMSD=0.000e+00\R
 MSF=2.141e-05\Dipole=0.1854425,-0.3570569,0.5177153\PG=C01 [X(C2H5N1O2
 )]\\@
 The archive entry for this job was punched.


     ON THE SURVIVAL OF THE FITTEST -
 "STRONG REPRESENTATIVES FROM EACH PAST ERA THRIVE TODAY,
 SUCH AS PROGRAMMING IN THE THIRTY YEAR OLD LANGUAGE KNOWN
 AS FORTRAN, AND EVEN IN THE ANCIENT SCRIPT KNOWN AS DIRECT
 MACHINE CODE. SOME PEOPLE MIGHT LOOK ON SUCH RELICS AS LIVING
 FOSSILS; OTHERS WOULD POINT OUT THAT EVEN A VERY OLD SPECIES
 MIGHT STILL BE FILLING A PARTICULAR ECOLOGICAL NICHE."
     -- ALAN KAY, SCI.AM. SEPTEMBER 1984
 Job cpu time:       0 days  0 hours  0 minutes  1.0 seconds.
 Elapsed time:       0 days  0 hours  0 minutes  0.9 seconds.
 File lengths (MBytes):  RWF=      6 Int=      0 D2E=      0 Chk=      1 Scr=      1
 Normal termination of Gaussian DV at Tue Nov 28 09:32:06 2023.
