 Entering Gaussian System, Link 0=/home/emanuele/chem_software/gaussian//g09/g09
 Input=4_mm_60.gjf
 Output=4_mm_60.log
 Initial command:
 /home/emanuele/chem_software/gaussian//gdv/l1.exe "/home/emanuele/chem_software/gaussian/scratch/Gau-4575.inp" -scrdir="/home/emanuele/chem_software/gaussian/scratch/"
 Entering Link 1 = /home/emanuele/chem_software/gaussian//gdv/l1.exe PID=      4577.
  
 Copyright (c) 1988-2020, Gaussian, Inc.  All Rights Reserved.
  
 This is the private, development version of
 the Gaussian(R) DV system of programs. It is based on
 the Gaussian(R) 16 system (copyright 2016, Gaussian, Inc.),
 the Gaussian(R) 09 system (copyright 2009, Gaussian, Inc.),
 the Gaussian(R) 03 system (copyright 2003, Gaussian, Inc.),
 the Gaussian(R) 98 system (copyright 1998, Gaussian, Inc.),
 the Gaussian(R) 94 system (copyright 1995, Gaussian, Inc.),
 the Gaussian 92(TM) system (copyright 1992, Gaussian, Inc.),
 the Gaussian 90(TM) system (copyright 1990, Gaussian, Inc.),
 the Gaussian 88(TM) system (copyright 1988, Gaussian, Inc.),
 the Gaussian 86(TM) system (copyright 1986, Carnegie Mellon
 University), and the Gaussian 82(TM) system (copyright 1983,
 Carnegie Mellon University). Gaussian is a federally registered
 trademark of Gaussian, Inc.
  
 This software contains proprietary and confidential information,
 including trade secrets, belonging to Gaussian, Inc.
  
 This software is provided under written license and may be
 used, copied, transmitted, or stored only in accord with that
 written license.
  
 The following legend is applicable only to US Government
 contracts under FAR:
  
                    RESTRICTED RIGHTS LEGEND
  
 Use, reproduction and disclosure by the US Government is
 subject to restrictions as set forth in subparagraphs (a)
 and (c) of the Commercial Computer Software - Restricted
 Rights clause in FAR 52.227-19.
  
 Gaussian, Inc.
 340 Quinnipiac St., Bldg. 40, Wallingford CT 06492
  
  
 ---------------------------------------------------------------
 Warning -- This program may not be used in any manner that
 competes with the business of Gaussian, Inc. or will provide
 assistance to any competitor of Gaussian, Inc.  The licensee
 of this program is prohibited from giving any competitor of
 Gaussian, Inc. access to this program.  By using this program,
 the user acknowledges that Gaussian, Inc. is engaged in the
 business of creating and licensing software in the field of
 computational chemistry and represents and warrants to the
 licensee that it is not a competitor of Gaussian, Inc. and that
 it will not use this program in any manner prohibited above.
 ---------------------------------------------------------------
  

 Cite this work as:
 Gaussian Development Version, Revision J.14,
 M. J. Frisch, G. W. Trucks, H. B. Schlegel, G. E. Scuseria, 
 M. A. Robb, J. R. Cheeseman, G. Scalmani, V. Barone, 
 G. A. Petersson, H. Nakatsuji, X. Li, A. V. Marenich, M. Caricato, 
 J. Bloino, B. G. Janesko, J. Zheng, R. Gomperts, B. Mennucci, 
 H. P. Hratchian, J. V. Ortiz, A. F. Izmaylov, J. L. Sonnenberg, 
 D. Williams-Young, F. Ding, F. Lipparini, F. Egidi, J. Goings, 
 B. Peng, A. Petrone, T. Henderson, D. Ranasinghe, V. G. Zakrzewski, 
 J. Gao, N. Rega, G. Zheng, W. Liang, M. Hada, M. Ehara, K. Toyota, 
 R. Fukuda, J. Hasegawa, M. Ishida, T. Nakajima, Y. Honda, O. Kitao, 
 H. Nakai, T. Vreven, K. Throssell, J. A. Montgomery, Jr., 
 J. E. Peralta, F. Ogliaro, M. J. Bearpark, J. J. Heyd, 
 E. N. Brothers, K. N. Kudin, V. N. Staroverov, T. A. Keith, 
 R. Kobayashi, J. Normand, K. Raghavachari, A. P. Rendell, 
 J. C. Burant, S. S. Iyengar, J. Tomasi, M. Cossi, J. M. Millam, 
 M. Klene, C. Adamo, R. Cammi, J. W. Ochterski, R. L. Martin, 
 K. Morokuma, O. Farkas, J. B. Foresman, and D. J. Fox, 
 Gaussian, Inc., Wallingford CT, 2020.
 
 ******************************************
 Gaussian DV:  ES64L-GDVRevJ.14 29-Dec-2020
                28-Nov-2023 
 ******************************************
 %mem=1GB
 %nprocshared=1
 Will use up to    1 processors via shared memory.
 %chk=4_mm_60.chk
 -----------------------------------------------------------------
 #p Amber=(SoftFirst,Print) geom=nocrowd nosymm opt=(maxcycle=300)
 -----------------------------------------------------------------
 1/6=300,10=10,18=4000020,19=15,37=210000000,38=1,56=2,64=203/1,3;
 2/9=110,12=1,15=1,40=1/2;
 3/5=30,11=9,25=1,30=1,41=10030000,43=2,71=1/1;
 4/20=11,22=1001,24=3,119=11/2;
 7/30=1,44=-1/16;
 1/6=300,10=10,18=4000020,19=15,64=203/3(2);
 2/9=110,12=1,15=1/2;
 99//99;
 2/9=110,12=1,15=1/2;
 3/5=30,11=9,25=1,30=1,41=10030000,43=2,71=1/1;
 4/16=2,20=11,22=1001,24=3,119=11/2;
 7/30=1,44=-1/16;
 1/6=300,10=10,18=4000020,19=15,64=203/3(-4);
 2/9=110,12=1,15=1/2;
 99/9=10/99;
 Leave Link    1 at Tue Nov 28 09:32:10 2023, MaxMem=   134217728 cpu:               0.0 elap:               0.0
 (Enter /home/emanuele/chem_software/gaussian//gdv/l101.exe)
 -----
 Title
 -----
 Symbolic Z-matrix:
 Charge =  0 Multiplicity = 1
 C-C-+0.299289        -0.61971  -0.14918   0.32952 
 O-OH--0.289770       -0.66086  -0.06926  -1.04598 
 C-CT--0.035454        0.80121  -0.24611   0.83576 
 H-HC-+0.090426        1.11238   0.30051   1.77184 
 H-HC-+0.095387        0.74769  -1.32538   1.1173 
 N-N3--0.336253        1.85108  -0.02093  -0.18573 
 H-H-+0.142619         1.84871  -0.86759  -0.7658 
 H-H-+0.128282         1.43765   0.58062  -0.89549 
 O-O2--0.308037       -1.64772  -0.14138   0.96091 
 H-HO-+0.213510       -1.58841   0.01509  -1.39739 
 
 ITRead=  3  3  3  3  3  3  3  3  3  3
 MicOpt=  0  0  0  0  0  0  0  0  0  0
 NAtoms=     10 NQM=        0 NQMF=       0 NMMI=      0 NMMIF=      0
                NMic=      10 NMicF=      0.
                    Isotopes and Nuclear Properties:
 (Nuclear quadrupole moments (NQMom) in fm**2, nuclear magnetic moments (NMagM)
  in nuclear magnetons)

  Atom         1           2           3           4           5           6           7           8           9          10
 IAtWgt=          12          16          12           1           1          14           1           1          16           1
 AtmWgt=  12.0000000  15.9949146  12.0000000   1.0078250   1.0078250  14.0030740   1.0078250   1.0078250  15.9949146   1.0078250
 NucSpn=           0           0           0           1           1           2           1           1           0           1
 AtZEff=  -0.0000000  -0.0000000  -0.0000000  -0.0000000  -0.0000000  -0.0000000  -0.0000000  -0.0000000  -0.0000000  -0.0000000
 NQMom=    0.0000000   0.0000000   0.0000000   0.0000000   0.0000000   2.0440000   0.0000000   0.0000000   0.0000000   0.0000000
 NMagM=    0.0000000   0.0000000   0.0000000   2.7928460   2.7928460   0.4037610   2.7928460   2.7928460   0.0000000   2.7928460
 AtZNuc=   6.0000000   8.0000000   6.0000000   1.0000000   1.0000000   7.0000000   1.0000000   1.0000000   8.0000000   1.0000000
 Generating MM parameters.
 I=    1 IAn=  6 Valence= 5.
          JB=  1 J=    2 IAn=  8 IBT=12 Dist= 1.38D+00
          JB=  2 J=    3 IAn=  6 IBT= 1 Dist= 1.51D+00
          JB=  3 J=    9 IAn=  8 IBT= 2 Dist= 1.21D+00
 I=    2 IAn=  8 Valence= 3.
          JB=  1 J=    1 IAn=  6 IBT=12 Dist= 1.38D+00
          JB=  2 J=   10 IAn=  1 IBT= 1 Dist= 9.95D-01
 Read MM parameter file:
 Include all MM classes

 MM sanity checks:
 All charges sum to:               -0.00000100
 Charges of atoms sum to:          -0.00000100
 WARNING -- The following centers have non-zero partial charges, but zero Vanderwaals
 parameters.  These centers can collapse onto other centers with non-zero charge.
   Center  Layer   Charge
     10 H    R    0.213510
 MMInit generated parameter data with length LenPar=        2069.
 MM Charge=             -0.0000 electrons
 MM Dipole moment (Debye):
    X=              0.6897    Y=             -0.5310    Z=             -0.5625  Tot=              1.0364
 MM Quadrupole moment (Debye-Ang):
   XX=             -2.7204   YY=              1.5524   ZZ=              1.9264
   XY=             -1.0972   XZ=              3.2803   YZ=             -0.2758
 MM Traceless Quadrupole moment (Debye-Ang):
   XX=             -2.9732   YY=              1.2996   ZZ=              1.6736
   XY=             -1.0972   XZ=              3.2803   YZ=             -0.2758
 MM Octapole moment (Debye-Ang**2):
  XXX=             -0.8148  YYY=             -1.3792  ZZZ=             -0.2511  XYY=              1.9206
  XXY=             -0.7603  XXZ=             -7.4163  XZZ=              3.1788  YZZ=             -0.0739
  YYZ=              0.3681  XYZ=             -0.0392
 MM Hexadecapole moment (Debye-Ang**3):
 XXXX=            -12.0220 YYYY=              1.8749 ZZZZ=              6.5415 XXXY=             -3.5049
 XXXZ=              9.7191 YYYX=             -1.4403 YYYZ=             -0.9323 ZZZX=              7.4235
 ZZZY=             -0.0613 XXYY=              2.6107 XXZZ=              4.8724 YYZZ=              1.5589
 XXYZ=              1.2212 YYXZ=             -0.2182 ZZXY=             -0.7388
 Leave Link  101 at Tue Nov 28 09:32:10 2023, MaxMem=   134217728 cpu:               0.2 elap:               0.2
 (Enter /home/emanuele/chem_software/gaussian//gdv/l103.exe)

 GradGradGradGradGradGradGradGradGradGradGradGradGradGradGradGradGradGrad
 Berny optimization.
 Initialization pass.
 No Z-matrix variables, so optimization will use Cartesian coordinates.
 Trust Radius=1.00D-01 FncErr=1.00D-07 GrdErr=1.00D-07 EigMax=2.50D+02 EigMin=1.00D-04
 Number of steps in this run=      2 maximum allowed number of steps=      2.
 GradGradGradGradGradGradGradGradGradGradGradGradGradGradGradGradGradGrad

 Leave Link  103 at Tue Nov 28 09:32:10 2023, MaxMem=   134217728 cpu:               0.0 elap:               0.0
 (Enter /home/emanuele/chem_software/gaussian//gdv/l202.exe)
                          Input orientation:                          
 ---------------------------------------------------------------------
 Center     Atomic      Atomic             Coordinates (Angstroms)
 Number     Number       Type             X           Y           Z
 ---------------------------------------------------------------------
      1          6    20001002       -0.619707   -0.149176    0.329522
      2          8    20001022       -0.660856   -0.069257   -1.045977
      3          6    20001001        0.801213   -0.246106    0.835764
      4          1    20001034        1.112380    0.300514    1.771839
      5          1    20001034        0.747690   -1.325376    1.117305
      6          7    20001020        1.851083   -0.020930   -0.185734
      7          1    20001029        1.848705   -0.867592   -0.765798
      8          1    20001029        1.437646    0.580624   -0.895492
      9          8    20001025       -1.647716   -0.141383    0.960913
     10          1    20001031       -1.588413    0.015093   -1.397392
 ---------------------------------------------------------------------
                    Distance matrix (angstroms):
                    1          2          3          4          5
     1  C    0.000000
     2  O    1.378433   0.000000
     3  C    1.511519   2.389534   0.000000
     4  H    2.298396   3.349804   1.127765   0.000000
     5  H    1.968203   2.870823   1.116671   1.790232   0.000000
     6  N    2.527200   2.655596   1.482022   2.116861   2.148713
     7  H    2.794442   2.648346   2.012085   2.888987   2.228874
     8  H    2.503192   2.201977   2.021330   2.701650   2.856611
     9  O    1.206448   2.237566   2.454360   2.910499   2.676615
    10  H    1.986859   0.995474   3.281086   4.173700   3.684825
                    6          7          8          9         10
     6  N    0.000000
     7  H    1.026312   0.000000
     8  H    1.018113   1.511000   0.000000
     9  O    3.683871   3.966594   3.672464   0.000000
    10  H    3.646854   3.604417   3.119096   2.364234   0.000000
 Symmetry turned off by external request.
 Stoichiometry    C2H5NO2
 Framework group  C1[X(C2H5NO2)]
 Deg. of freedom    24
 Full point group                 C1      NOp   1
 Rotational constants (GHZ):          10.0040858           4.0574741           2.9828262
 Leave Link  202 at Tue Nov 28 09:32:10 2023, MaxMem=   134217728 cpu:               0.0 elap:               0.0
 (Enter /home/emanuele/chem_software/gaussian//gdv/l301.exe)
 Standard basis: Dummy (5D, 7F)
    10 basis functions,    10 primitive gaussians,    10 cartesian basis functions
     7 alpha electrons        7 beta electrons
       nuclear repulsion energy        22.8951122762 Hartrees.
 IExCor=       0 DFT=F Ex=HF Corr=None N6=None ScaHFX=  1.000000
 ScaDFX=  1.000000  1.000000  1.000000  1.000000  1.000000  0.000000
 ScaDFX=  0.000000  0.000000  0.000000  0.000000  0.000000  0.000000
 IRadAn=      5 IRanWt=     -1 IRanGd=            0 ICorTp=0 IEmpDi=  4
 NAtoms=   10 NActive=   10 NUniq=   10 SFac= 1.00D+00 NAtFMM=   60 NAOKFM=F Big=F
 Integral buffers will be    131072 words long.
 Raffenetti 1 integral format.
 Two-electron integral symmetry is turned off.
 Leave Link  301 at Tue Nov 28 09:32:10 2023, MaxMem=   134217728 cpu:               0.1 elap:               0.0
 (Enter /home/emanuele/chem_software/gaussian//gdv/l402.exe)
 AMBER calculation of energy and first derivatives.
 NRF= 0 NRA=   0 NVA=  10 HaveQM=F NVQ=       0
 Convergence limit is  0.750E-04 MaxStp= 10000 StMxLn= 3.00D-04 StpMin= 1.00D-06.
 Convergence criteria             0.00011250 0.00007500 0.00045000 0.00030000
  Step  NS  ND Rises OKQ   Scale  Max. Force  RMS Force Max. Disp.  RMS Disp.     Energy   Flag
     1   0   0   F    T  1.00D+00 0.03307432 0.01681429 0.03307432 0.01681429    0.0997017 ----
     2   0   0   F    F  4.56D-01 0.03307432 0.01681429 0.01507330 0.00766295    0.0941530 ----
     3   0   0   F    T  2.38D+00 0.02073902 0.00905102 0.06808076 0.02447724    0.0935536 ----
     4   0   0   F    F  4.74D-01 0.02073902 0.00905102 0.03223852 0.01159079    0.0896109 ----
     5   0   0   F    T  1.03D+00 0.04577020 0.01578120 0.10322933 0.03606804    0.0891413 ----
     6   0   0   F    F  3.43D-01 0.04577020 0.01578120 0.03544431 0.01238414    0.0842377 ----
     7   0   0   F    T  3.21D+00 0.02270980 0.01064589 0.11326383 0.04845218    0.0838901 ----
     8   0   0   F    F -4.45D-01 0.02270980 0.01064589 0.05045173 0.02158232    0.0827999 ----
     9   0   0   F    T  2.92D+00 0.01601201 0.00689331 0.07046952 0.02686986    0.0808759 ----
    10   0   0   F    F  6.06D-01 0.01601201 0.00689331 0.04271352 0.01628656    0.0780090 ----
    11   0   0   F    F -3.64D-02 0.01601201 0.00689331 0.00155410 0.00059257    0.0775468 ----
    12   0   0   F    T  1.49D+00 0.03106028 0.01160009 0.13450131 0.04256384    0.0775461 ----
    13   0   0   F    F -2.09D-01 0.03106028 0.01160009 0.02807587 0.00888480    0.0752075 ----
    14   0   0   F    T  2.68D+00 0.02002539 0.00863393 0.09759837 0.03367904    0.0749999 ----
    15   0   0   F    F -3.94D-01 0.02002539 0.00863393 0.03849198 0.01328273    0.0739664 ----
    16   0   0   F    T  1.94D+00 0.02186815 0.00720182 0.04030479 0.02039631    0.0731727 ----
    17   0   0   F    F  1.66D+00 0.02186815 0.00720182 0.06696566 0.03388809    0.0707688 ----
    18   0   0   F    F -2.64D-02 0.02186815 0.00720182 0.00177121 0.00089633    0.0693330 ----
    19   0   0   F    T  3.98D+00 0.01508222 0.00744170 0.13212412 0.05338808    0.0693320 ----
    20   0   0   T    F  3.14D-01 0.01508222 0.00744170 0.04154081 0.01678561    0.0736317 ----
    21   0   0   F    T  1.66D+00 0.01721775 0.00594334 0.03229697 0.01678561    0.0682796 ----
    22   0   0   F    F -9.84D-02 0.01721775 0.00594334 0.00317790 0.00165164    0.0674979 ----
    23   0   0   F    T  2.05D+00 0.01010710 0.00454852 0.03388798 0.01513397    0.0674885 ----
    24   0   0   F    F  1.17D+00 0.01010710 0.00454852 0.03958022 0.01767606    0.0665143 ----
    25   0   0   F    T  2.26D+00 0.01368179 0.00602420 0.08368574 0.03281003    0.0661203 ----
    26   0   0   F    F  3.85D-02 0.01368179 0.00602420 0.00322295 0.00126360    0.0647913 ----
    27   0   0   F    T  2.26D+00 0.01539015 0.00612590 0.08982999 0.03407363    0.0647894 ----
    28   0   0   F    F  3.79D-01 0.01539015 0.00612590 0.03409031 0.01293088    0.0631484 ----
    29   0   0   F    F -3.08D-02 0.01539015 0.00612590 0.00104918 0.00039797    0.0630149 ----
    30   0   0   F    T  1.59D+00 0.01916577 0.00886059 0.12416265 0.04660654    0.0630148 ----
    31   0   0   F    F  2.39D-02 0.01916577 0.00886059 0.00296397 0.00111258    0.0611119 ----
    32   0   0   F    T  2.10D+00 0.02627555 0.00768856 0.12889158 0.04771912    0.0611109 ----
    33   0   0   F    F  2.22D-01 0.02627555 0.00768856 0.02864440 0.01060492    0.0589658 ----
    34   0   0   F    F -6.99D-02 0.02627555 0.00768856 0.00200225 0.00074129    0.0589003 ----
    35   0   0   F    T  1.99D+00 0.01833227 0.00824529 0.15833006 0.05758276    0.0588999 ----
    36   0   0   F    F  6.40D-02 0.01833227 0.00824529 0.01013563 0.00368621    0.0566102 ----
    37   0   0   F    F -4.62D-02 0.01833227 0.00824529 0.00046818 0.00017027    0.0566014 ---+
    38   0   0   F    T  2.31D+00 0.02036408 0.00841557 0.16169438 0.06109870    0.0566013 ----
    39   0   0   F    F -2.80D-01 0.02036408 0.00841557 0.04519641 0.01707816    0.0550931 ----
    40   0   0   F    F -7.90D-03 0.02036408 0.00841557 0.00035701 0.00013490    0.0548185 --++
    41   0   0   F    T  3.11D+00 0.01581266 0.00651257 0.13682263 0.04415544    0.0548184 ----
    42   0   0   F    F -2.20D-01 0.01581266 0.00651257 0.03004096 0.00969483    0.0534208 ----
    43   0   0   F    T  1.23D+00 0.02848131 0.00880575 0.10482779 0.03446061    0.0533082 ----
    44   0   0   F    F  8.06D-01 0.02848131 0.00880575 0.08453203 0.02778868    0.0511943 ----
    45   0   0   F    F -2.55D-02 0.02848131 0.00880575 0.00215832 0.00070952    0.0506590 ----
    46   0   0   F    T  3.40D+00 0.01744938 0.00633038 0.18079247 0.06153978    0.0506586 ----
    47   0   0   T    F  3.39D-01 0.01744938 0.00633038 0.06120360 0.02083303    0.0525598 ----
    48   0   0   F    T  3.29D+00 0.00925215 0.00353200 0.05394586 0.02083303    0.0499693 ----
    49   0   0   F    F -2.51D-01 0.00925215 0.00353200 0.01355002 0.00523280    0.0495610 ----
    50   0   0   F    T  1.97D+00 0.00783524 0.00368894 0.03290223 0.01560023    0.0495094 ----
    51   0   0   F    F  1.39D-01 0.00783524 0.00368894 0.00457777 0.00217050    0.0490624 ----
    52   0   0   F    T  2.35D+00 0.01009182 0.00336976 0.04603123 0.01777074    0.0490557 ----
    53   0   0   F    F -4.16D-01 0.01009182 0.00336976 0.01916558 0.00739903    0.0489414 ----
    54   0   0   F    T  2.04D+00 0.00622525 0.00255906 0.03051940 0.01037170    0.0488216 ----
    55   0   0   F    F -2.68D-02 0.00622525 0.00255906 0.00081700 0.00027765    0.0486263 ---+
    56   0   0   F    T  1.97D+00 0.00475892 0.00242617 0.02649843 0.01009406    0.0486262 ----
    57   0   0   F    F  3.74D-01 0.00475892 0.00242617 0.00991527 0.00377703    0.0484053 ----
    58   0   0   F    T  3.47D+00 0.00340867 0.00200142 0.03683291 0.01387108    0.0483877 ----
    59   0   0   T    F  4.89D-01 0.00340867 0.00200142 0.01799371 0.00677634    0.0483964 ----
    60   0   0   F    T  1.58D+00 0.00429264 0.00194230 0.01896178 0.00677634    0.0482861 ----
    61   0   0   F    F  2.80D-01 0.00429264 0.00194230 0.00530755 0.00189675    0.0481765 ----
    62   0   0   F    T  1.76D+00 0.00527801 0.00199486 0.02288317 0.00867308    0.0481710 ----
    63   0   0   F    F  1.48D-01 0.00527801 0.00199486 0.00338735 0.00128386    0.0480530 ----
    64   0   0   F    T  2.86D+00 0.00327367 0.00158604 0.02553580 0.00995694    0.0480510 ----
    65   0   0   F    F  1.24D-02 0.00327367 0.00158604 0.00031561 0.00012306    0.0479421 --++
    66   0   0   F    T  1.98D+00 0.00514227 0.00184171 0.02818224 0.01008000    0.0479421 ----
    67   0   0   F    F  1.40D-01 0.00514227 0.00184171 0.00395685 0.00141525    0.0478285 ----
    68   0   0   F    T  1.79D+00 0.00474369 0.00201801 0.03187529 0.01149526    0.0478267 ----
    69   0   0   F    F -1.68D-01 0.00474369 0.00201801 0.00535435 0.00193095    0.0477395 ----
    70   0   0   F    T  2.42D+00 0.00339021 0.00153257 0.02497356 0.00956431    0.0477358 ----
    71   0   0   F    F -2.44D-02 0.00339021 0.00153257 0.00060869 0.00023312    0.0476527 ---+
    72   0   0   F    T  1.90D+00 0.00391000 0.00165197 0.02509892 0.00933119    0.0476526 ----
    73   0   0   F    F  6.53D-01 0.00391000 0.00165197 0.01639817 0.00609646    0.0475436 ----
    74   0   0   F    T  2.67D+00 0.00350988 0.00176198 0.03813887 0.01542765    0.0475233 ----
    75   0   0   F    F -3.19D-01 0.00350988 0.00176198 0.01218216 0.00492784    0.0474574 ----
    76   0   0   F    T  2.60D+00 0.00393198 0.00142177 0.02336849 0.01049981    0.0474391 ----
    77   0   0   T    F  4.48D-01 0.00393198 0.00142177 0.01047369 0.00470599    0.0474570 ----
    78   0   0   F    T  2.21D+00 0.00235124 0.00096355 0.01124991 0.00470599    0.0474039 ----
    79   0   0   F    F  4.39D-01 0.00235124 0.00096355 0.00493522 0.00206447    0.0473636 ----
    80   0   0   F    T  2.01D+00 0.00245689 0.00117264 0.01595189 0.00677046    0.0473595 ----
    81   0   0   F    F  2.02D-01 0.00245689 0.00117264 0.00322450 0.00136857    0.0473110 ----
    82   0   0   F    T  3.35D+00 0.00212845 0.00095807 0.01747026 0.00813903    0.0473096 ----
    83   0   0   F    F -4.44D-01 0.00212845 0.00095807 0.00775389 0.00361237    0.0473002 ----
    84   0   0   F    T  1.49D+00 0.00270530 0.00103773 0.01073417 0.00452665    0.0472839 ----
    85   0   0   F    F  5.41D-01 0.00270530 0.00103773 0.00580709 0.00244888    0.0472513 ----
    86   0   0   F    T  1.85D+00 0.00269861 0.00112937 0.01554306 0.00697553    0.0472467 ----
    87   0   0   F    F -4.56D-02 0.00269861 0.00112937 0.00070951 0.00031842    0.0472129 ----
    88   0   0   F    T  2.86D+00 0.00198767 0.00086798 0.01816268 0.00665711    0.0472128 ----
    89   0   0   F    F  7.77D-02 0.00198767 0.00086798 0.00141161 0.00051739    0.0471782 ----
    90   0   0   F    T  2.01D+00 0.00196712 0.00105239 0.02232868 0.00717451    0.0471780 ----
    91   0   0   F    F  4.96D-01 0.00196712 0.00105239 0.01107882 0.00355977    0.0471338 ----
    92   0   0   F    T  2.14D+00 0.00283350 0.00122777 0.03648522 0.01073428    0.0471284 ----
    93   0   0   F    F -3.62D-01 0.00283350 0.00122777 0.01320295 0.00388443    0.0471076 ----
    94   0   0   F    T  1.65D+00 0.00265637 0.00109722 0.02465263 0.00684985    0.0470974 ----
    95   0   0   F    F  1.44D+00 0.00265637 0.00109722 0.03550504 0.00986525    0.0470502 ----
    96   0   0   F    T  2.36D+00 0.00300543 0.00144835 0.06117694 0.01671510    0.0470251 ----
    97   0   0   F    F -1.63D-01 0.00300543 0.00144835 0.00999443 0.00273073    0.0469648 ----
    98   0   0   F    T  3.16D+00 0.00263133 0.00115686 0.04973948 0.01398437    0.0469623 ----
    99   0   0   F    F -3.26D-02 0.00263133 0.00115686 0.00162051 0.00045561    0.0469023 ----
   100   0   0   F    T  1.74D+00 0.00333138 0.00151215 0.04780074 0.01352876    0.0469022 ----
   101   0   0   F    F  2.57D-01 0.00333138 0.00151215 0.01230144 0.00348160    0.0468281 ----
   102   0   0   F    T  1.51D+00 0.00490341 0.00181127 0.05788371 0.01701036    0.0468247 ----
   103   0   0   F    F -2.81D-02 0.00490341 0.00181127 0.00162383 0.00047720    0.0467533 ----
   104   0   0   F    T  5.22D+00 0.00286554 0.00104575 0.05267305 0.01653317    0.0467532 ----
   105   0   0   T    F  4.18D-01 0.00286554 0.00104575 0.02200882 0.00690819    0.0467849 ----
   106   0   0   F    T  2.42D+00 0.00167702 0.00094517 0.02118973 0.00690819    0.0467176 ----
   107   0   0   F    F  4.95D-02 0.00167702 0.00094517 0.00104831 0.00034177    0.0466835 ----
   108   0   0   F    T  1.77D+00 0.00316906 0.00110914 0.02036626 0.00724996    0.0466835 ----
   109   0   0   F    F -3.68D-01 0.00316906 0.00110914 0.00749431 0.00266782    0.0466698 ----
   110   0   0   F    T  2.70D+00 0.00171582 0.00067104 0.01265429 0.00458214    0.0466630 ----
   111   0   0   F    F -1.13D-01 0.00171582 0.00067104 0.00142535 0.00051612    0.0466470 ----
   112   0   0   F    T  2.85D+00 0.00147213 0.00058657 0.01001618 0.00406602    0.0466468 ----
   113   0   0   F    F  1.13D-01 0.00147213 0.00058657 0.00113118 0.00045920    0.0466305 ----
   114   0   0   F    T  1.79D+00 0.00189526 0.00076799 0.00934670 0.00452521    0.0466303 ----
   115   0   0   F    F -2.02D-01 0.00189526 0.00076799 0.00188961 0.00091486    0.0466185 ----
   116   0   0   F    T  1.51D+00 0.00226430 0.00072677 0.00707051 0.00361036    0.0466177 ----
   117   0   0   F    F  6.48D-01 0.00226430 0.00072677 0.00457839 0.00233783    0.0466011 ----
   118   0   0   F    T  2.60D+00 0.00232725 0.00069051 0.01139951 0.00594819    0.0465980 ----
   119   0   0   F    F -1.06D-01 0.00232725 0.00069051 0.00121062 0.00063169    0.0465816 ----
   120   0   0   F    T  2.73D+00 0.00149572 0.00062008 0.01185875 0.00531649    0.0465814 ----
   121   0   0   F    F -1.97D-01 0.00149572 0.00062008 0.00233406 0.00104640    0.0465695 ----
   122   0   0   F    T  2.05D+00 0.00150366 0.00062404 0.00965006 0.00427009    0.0465688 ----
   123   0   0   F    F -2.56D-01 0.00150366 0.00062404 0.00247240 0.00109402    0.0465609 ----
   124   0   0   F    T  1.23D+00 0.00139285 0.00068052 0.00689360 0.00317607    0.0465598 ----
   125   0   0   F    F  2.25D+00 0.00139285 0.00068052 0.01551901 0.00715003    0.0465453 ----
   126   0   0   F    T  3.03D+00 0.00204324 0.00077266 0.02351006 0.01032610    0.0465319 ----
   127   0   0   F    F -3.62D-01 0.00204324 0.00077266 0.00851484 0.00373989    0.0465202 ----
   128   0   0   F    T  3.19D+00 0.00101112 0.00059078 0.01509494 0.00658621    0.0465146 ----
   129   0   0   F    F -3.37D-01 0.00101112 0.00059078 0.00508610 0.00221916    0.0465064 ----
   130   0   0   F    T  1.26D+00 0.00232828 0.00075629 0.01003651 0.00436705    0.0465035 ----
   131   0   0   F    F  3.09D-01 0.00232828 0.00075629 0.00310456 0.00135085    0.0464902 ----
   132   0   0   F    T  3.22D+00 0.00152478 0.00053132 0.01413703 0.00571789    0.0464894 ----
   133   0   0   T    F  4.42D-01 0.00152478 0.00053132 0.00624845 0.00252726    0.0464930 ----
   134   0   0   F    T  6.03D+00 0.00057039 0.00023405 0.00571406 0.00252726    0.0464834 ----
   135   0   0   F    F -4.95D-01 0.00057039 0.00023405 0.00282607 0.00124994    0.0464833 ----
   136   0   0   F    T  1.31D+00 0.00076657 0.00034565 0.00288400 0.00127732    0.0464809 ----
   137   0   0   F    F  2.08D-01 0.00076657 0.00034565 0.00059868 0.00026516    0.0464781 ---+
   138   0   0   F    T  1.90D+00 0.00067067 0.00030321 0.00327119 0.00154248    0.0464780 ----
   139   0   0   F    F -1.03D-01 0.00067067 0.00030321 0.00033584 0.00015836    0.0464757 --++
   140   0   0   F    T  2.82D+00 0.00048756 0.00022208 0.00329719 0.00138412    0.0464757 ----
   141   0   0   F    F  3.00D-01 0.00048756 0.00022208 0.00098829 0.00041487    0.0464731 ----
   142   0   0   F    T  2.04D+00 0.00059402 0.00028940 0.00453102 0.00179899    0.0464730 ----
   143   0   0   F    F  1.89D-01 0.00059402 0.00028940 0.00085535 0.00033961    0.0464700 ----
   144   0   0   F    T  1.32D+00 0.00103925 0.00038706 0.00604706 0.00213860    0.0464699 ----
   145   0   0   F    F  2.00D-01 0.00103925 0.00038706 0.00120840 0.00042736    0.0464665 ----
   146   0   0   F    T  2.11D+00 0.00075808 0.00032745 0.00741454 0.00256596    0.0464664 ----
   147   0   0   F    F  5.80D-01 0.00075808 0.00032745 0.00430371 0.00148939    0.0464617 ----
   148   0   0   F    T  2.86D+00 0.00104144 0.00034983 0.01176228 0.00405535    0.0464610 ----
   149   0   0   F    F -4.40D-01 0.00104144 0.00034983 0.00517610 0.00178459    0.0464599 ----
   150   0   0   F    T  3.54D+00 0.00055341 0.00022610 0.00688062 0.00227075    0.0464581 ----
   151   0   0   T    F  4.71D-01 0.00055341 0.00022610 0.00324223 0.00107000    0.0464584 ----
   152   0   0   F    T  1.20D+00 0.00071102 0.00026086 0.00293939 0.00107000    0.0464568 ----
   153   0   0   F    F  9.11D-01 0.00071102 0.00026086 0.00267871 0.00097511    0.0464550 ----
   154   0   0   F    T  2.21D+00 0.00063375 0.00026063 0.00555303 0.00204512    0.0464545 ----
   155   0   0   F    T  6.54D+00 0.00036832 0.00014985 0.00591775 0.00204512    0.0464521 ----
   156   0   0   T    F  3.30D-01 0.00036832 0.00014985 0.00195175 0.00067451    0.0464545 ----
   157   0   0   F    T  1.12D+00 0.00042673 0.00019931 0.00175729 0.00067451    0.0464514 ----
   158   0   0   F    F  7.67D-01 0.00042673 0.00019931 0.00134753 0.00051722    0.0464504 ----
   159   0   0   F    T  1.78D+00 0.00046907 0.00020991 0.00288553 0.00119173    0.0464502 ----
   160   0   0   F    F  2.28D-01 0.00046907 0.00020991 0.00065724 0.00027144    0.0464488 ---+
   161   0   0   F    T  3.13D+00 0.00041624 0.00016987 0.00395737 0.00146317    0.0464487 ----
   162   0   0   F    T  1.84D+00 0.00054311 0.00021723 0.00386704 0.00146317    0.0464474 ----
   163   0   0   F    F -1.93D-01 0.00054311 0.00021723 0.00074464 0.00028175    0.0464464 ---+
   164   0   0   F    T  1.43D+00 0.00051419 0.00021922 0.00340966 0.00118142    0.0464464 ----
   165   0   0   F    F  6.65D-01 0.00051419 0.00021922 0.00226603 0.00078516    0.0464449 ----
   166   0   0   F    T  3.18D+00 0.00049666 0.00018143 0.00595627 0.00196658    0.0464446 ----
   167   0   0   F    F -3.25D-01 0.00049666 0.00018143 0.00193326 0.00063831    0.0464438 ----
   168   0   0   F    T  2.42D+00 0.00037172 0.00016740 0.00363028 0.00132828    0.0464436 ----
   169   0   0   F    F  1.37D-01 0.00037172 0.00016740 0.00049636 0.00018161    0.0464424 ---+
   170   0   0   F    T  1.50D+00 0.00084096 0.00022410 0.00406923 0.00150989    0.0464424 ----
   171   0   0   F    T  2.05D+00 0.00052622 0.00019435 0.00405852 0.00150989    0.0464412 ----
   172   0   0   F    T  2.17D+00 0.00056865 0.00017569 0.00348389 0.00150989    0.0464400 ----
   173   0   0   F    F  7.10D-01 0.00056865 0.00017569 0.00247408 0.00107225    0.0464386 ----
   174   0   0   F    T  8.88D+00 0.00034033 0.00012294 0.00505782 0.00258214    0.0464383 ----
   175   0   0   T    F  1.48D-01 0.00034033 0.00012294 0.00075047 0.00038313    0.0464479 ----
   176   0   0   F    T  1.41D+00 0.00028089 0.00011318 0.00071471 0.00038313    0.0464380 ----
   177   0   0   F    F  6.65D-01 0.00028089 0.00011318 0.00047506 0.00025466    0.0464376 ---+
   178   0   0   F    T  1.47D+00 0.00036165 0.00013928 0.00114527 0.00063780    0.0464376 ----
   179   0   0   F    F  5.88D-01 0.00036165 0.00013928 0.00067310 0.00037485    0.0464370 ----
   180   0   0   F    T  4.22D+00 0.00020697 0.00009877 0.00208434 0.00101265    0.0464369 ----
   181   0   0   F    F -3.86D-01 0.00020697 0.00009877 0.00080363 0.00039043    0.0464367 ----
   182   0   0   F    T  2.38D+00 0.00029262 0.00009916 0.00151091 0.00062222    0.0464365 ----
   183   0   0   F    F  6.66D-01 0.00029262 0.00009916 0.00100692 0.00041467    0.0464360 ----
   184   0   0   F    T  1.73D+00 0.00029491 0.00014765 0.00233954 0.00103688    0.0464359 ----
   185   0   0   F    T  1.85D+00 0.00041390 0.00013969 0.00223933 0.00103688    0.0464354 ----
   186   0   0   F    F -1.64D-01 0.00041390 0.00013969 0.00036709 0.00016997    0.0464349 --++
   187   0   0   F    T  1.94D+00 0.00025854 0.00012442 0.00205058 0.00086691    0.0464349 ----
   188   0   0   F    F  2.08D+00 0.00025854 0.00012442 0.00426382 0.00180259    0.0464342 ----
   189   0   0   F    T  2.55D+00 0.00042833 0.00018662 0.00634672 0.00266950    0.0464335 ----
   190   0   0   F    F -3.15D-01 0.00042833 0.00018662 0.00199706 0.00083998    0.0464328 ----
   191   0   0   F    T  4.29D+00 0.00022875 0.00011756 0.00387284 0.00182951    0.0464326 ----
   192   0   0   T    F  4.81D-01 0.00022875 0.00011756 0.00186457 0.00088081    0.0464327 ----
   193   0   0   F    T  1.10D+00 0.00040869 0.00015937 0.00195601 0.00088081    0.0464322 ----
   194   0   0   F    F  8.77D-01 0.00040869 0.00015937 0.00171627 0.00077286    0.0464316 ----
   195   0   0   F    T  3.61D+00 0.00035321 0.00011797 0.00341588 0.00165367    0.0464314 ----
   196   0   0   T    F  4.59D-01 0.00035321 0.00011797 0.00156768 0.00075894    0.0464315 ----
   197   0   0   F    T  3.77D+00 0.00016155 0.00007518 0.00168634 0.00075894    0.0464311 ----
   198   0   0   F    T  2.68D+00 0.00021468 0.00008487 0.00175316 0.00075894    0.0464308 ----
   199   0   0   T    F  4.81D-01 0.00021468 0.00008487 0.00084295 0.00036491    0.0464308 ----
   200   0   0   F    T  1.86D+00 0.00015388 0.00007421 0.00076127 0.00036491    0.0464306 -+--
   201   0   0   F    T  1.91D+00 0.00018190 0.00006962 0.00085254 0.00036491    0.0464305 -+--
   202   0   0   F    F  1.27D+00 0.00018190 0.00006962 0.00108676 0.00046516    0.0464302 -+--
   203   0   0   F    T  2.16D+00 0.00020004 0.00009364 0.00194209 0.00083007    0.0464301 ----
   204   0   0   F    T  2.21D+00 0.00023389 0.00008855 0.00222440 0.00083007    0.0464299 ----
   205   0   0   F    F -3.35D-01 0.00023389 0.00008855 0.00074558 0.00027822    0.0464298 ---+
   206   0   0   F    T  1.95D+00 0.00020577 0.00008464 0.00149805 0.00055185    0.0464297 ----
   207   0   0   F    F  6.92D-01 0.00020577 0.00008464 0.00103697 0.00038199    0.0464294 ----
   208   0   0   F    T  1.89D+00 0.00023968 0.00010571 0.00269234 0.00093384    0.0464294 ----
   209   0   0   F    T  4.13D+00 0.00017877 0.00007444 0.00253344 0.00093384    0.0464290 -+--
   210   0   0   F    F -4.42D-01 0.00017877 0.00007444 0.00111905 0.00041249    0.0464290 -+--
   211   0   0   F    T  1.30D+00 0.00026797 0.00009511 0.00150212 0.00052135    0.0464288 ----
   212   0   0   F    F  4.75D-01 0.00026797 0.00009511 0.00071403 0.00024782    0.0464286 ---+
   213   0   0   F    T  2.25D+00 0.00021302 0.00009090 0.00208155 0.00076917    0.0464286 ----
   214   0   0   F    T  3.58D+00 0.00015653 0.00006757 0.00213349 0.00076917    0.0464283 -+--
   215   0   0   F    F -4.09D-01 0.00015653 0.00006757 0.00087297 0.00031473    0.0464282 -+--
   216   0   0   F    T  2.40D+00 0.00015433 0.00006422 0.00124570 0.00045445    0.0464282 -+--
   217   0   0   F    T  3.09D+00 0.00013423 0.00005287 0.00134458 0.00045445    0.0464280 -+--
   218   0   0   F    F -3.23D-01 0.00013423 0.00005287 0.00043380 0.00014662    0.0464280 -+++
   219   0   0   F    T  1.79D+00 0.00014229 0.00005598 0.00080146 0.00030783    0.0464279 -+--
   220   0   0   F    T  1.16D+00 0.00016956 0.00006136 0.00084244 0.00030783    0.0464279 -+--
   221   0   0   F    F  5.01D-01 0.00016956 0.00006136 0.00042168 0.00015408    0.0464278 -+++
   222   0   0   F    T  3.60D+00 0.00016816 0.00007312 0.00113053 0.00046191    0.0464278 -+--
   223   0   0   T    F  3.16D-01 0.00016816 0.00007312 0.00035771 0.00014615    0.0464282 -+++
   224   0   0   F    T  2.00D+00 0.00013433 0.00004674 0.00034786 0.00014615    0.0464277 -+++
   225   0   0   F    T  1.00D+00 0.00021579 0.00006738 0.00040837 0.00019979    0.0464277 -+++
   226   0   0   T    F  5.00D-01 0.00021579 0.00006738 0.00020418 0.00009989    0.0464278 -+++
   227   0   0   T    F  5.00D-01 0.00021579 0.00006738 0.00010209 0.00004995    0.0464278 -+++
   228   0   0   T    F  5.00D-01 0.00021579 0.00006738 0.00005105 0.00002497    0.0464277 -+++
   229   0   0   T    F  5.00D-01 0.00021579 0.00006738 0.00002552 0.00001249    0.0464277 -+++
   230   0   0   T    F  5.00D-01 0.00021579 0.00006738 0.00001276 0.00000624    0.0464277 -+++
   231   0   0   T    F  5.00D-01 0.00021579 0.00006738 0.00000638 0.00000312    0.0464277 -+++
   232   0   0   T    F  5.00D-01 0.00021579 0.00006738 0.00000319 0.00000156    0.0464277 -+++
   233   0   0   T    F  5.00D-01 0.00021579 0.00006738 0.00000160 0.00000078    0.0464277 -+++
   234   0   0   T    F  5.00D-01 0.00021579 0.00006738 0.00000080 0.00000039    0.0464277 -+++
   235   0   0   T    T  1.00D+00 0.00021614 0.00006748 0.00021568 0.00006725    0.0464277 -+++
   236   0   0   F    T  1.24D+00 0.00013084 0.00004864 0.00013539 0.00006725    0.0464277 -+++
   237   0   0   T    T  1.00D+00 0.00019722 0.00006325 0.00019722 0.00006325    0.0464277 -+++
   238   0   0   T    T  1.00D+00 0.00019796 0.00006392 0.00019124 0.00006204    0.0464277 -+++
   239   0   0   T    F  5.00D-01 0.00019796 0.00006392 0.00009562 0.00003102    0.0464278 -+++
   240   0   0   T    F  5.00D-01 0.00019796 0.00006392 0.00004781 0.00001551    0.0464277 -+++
   241   0   0   T    F  5.00D-01 0.00019796 0.00006392 0.00002391 0.00000775    0.0464277 -+++
   242   0   0   T    F  5.00D-01 0.00019796 0.00006392 0.00001195 0.00000388    0.0464277 -+++
   243   0   0   T    F  5.00D-01 0.00019796 0.00006392 0.00000598 0.00000194    0.0464277 -+++
   244   0   0   T    F  5.00D-01 0.00019796 0.00006392 0.00000299 0.00000097    0.0464277 -+++
   245   0   0   T    F  5.00D-01 0.00019796 0.00006392 0.00000149 0.00000048    0.0464277 -+++
   246   0   0   T    F  5.00D-01 0.00019796 0.00006392 0.00000075 0.00000024    0.0464277 -+++
   247   0   0   T    T  1.00D+00 0.00013136 0.00004893 0.00012411 0.00004208    0.0464277 -+++
   248   0   0   F    T  1.75D+00 0.00004391 0.00002143 0.00007976 0.00004208    0.0464277 ====
 ****************************
 MOLECULAR MECHANICS FUNCTION
 ****************************
 Atomic parameters:
 Center  VDW
      1 1.9080 0.0860000
      2 1.7210 0.2104000
      3 1.9080 0.1094000
      4 1.4870 0.0157000
      5 1.4870 0.0157000
      6 1.8750 0.1700000
      7 0.6000 0.0157000
      8 0.6000 0.0157000
      9 1.6612 0.2100000
     10 0.0000 0.0000000
 Molecular mechanics terms:
 NBDir 3 1      0      0
 HrmStr1  1- 2  431.53 1.3510
 HrmStr1  1- 3  294.15 1.5090
 HrmStr1  1- 9  946.08 1.2030
 HrmStr1  2-10  566.76 0.9680
 HrmStr1  3- 4  358.05 1.0960
 HrmStr1  3- 5  358.05 1.0960
 HrmStr1  3- 6  380.82 1.4520
 HrmStr1  6- 7  506.01 1.0110
 HrmStr1  6- 8  506.01 1.0110
 HrmBnd1  1- 2-10  56.55 107.23
 HrmBnd1  1- 3- 4  46.41 106.89
 HrmBnd1  1- 3- 5  46.41 106.89
 HrmBnd1  1- 3- 6  59.93 110.61
 HrmBnd1  2- 1- 3  67.92 111.72
 HrmBnd1  2- 1- 9  91.40 123.02
 HrmBnd1  3- 1- 9  62.83 125.24
 HrmBnd1  3- 6- 7  52.60 110.71
 HrmBnd1  3- 6- 8  52.60 110.71
 HrmBnd1  4- 3- 5  44.68 106.22
 HrmBnd1  4- 3- 6  52.45 112.94
 HrmBnd1  5- 3- 6  52.45 112.94
 HrmBnd1  7- 6- 8  47.09 108.63
 AmbTrs  3- 1- 2-10   0 180   0   0  0.0000 14.5000  0.0000  0.0000  2.0
 AmbTrs  9- 1- 2-10   0   0   0   0  0.0000 14.5000  0.0000  0.0000  2.0
 AmbTrs  2- 1- 3- 4   0   0   0   0  0.0000 14.5000  0.0000  0.0000  6.0
 AmbTrs  2- 1- 3- 5   0   0   0   0  0.0000 14.5000  0.0000  0.0000  6.0
 AmbTrs  2- 1- 3- 6   0   0   0   0  0.0000 14.5000  0.0000  0.0000  6.0
 AmbTrs  9- 1- 3- 4   0   0   0   0  0.0000 14.5000  0.0000  0.0000  6.0
 AmbTrs  9- 1- 3- 5   0   0   0   0  0.0000 14.5000  0.0000  0.0000  6.0
 AmbTrs  9- 1- 3- 6   0   0   0   0  0.0000 14.5000  0.0000  0.0000  6.0
 AmbTrs  1- 3- 6- 7   0 180   0   0  0.0000 25.6300  0.0000  0.0000  6.0
 AmbTrs  1- 3- 6- 8   0 180   0   0  0.0000 25.6300  0.0000  0.0000  6.0
 AmbTrs  4- 3- 6- 7   0   0   0   0  0.0000 16.9300  0.0000  0.0000  6.0
 AmbTrs  4- 3- 6- 8   0   0   0   0  0.0000 16.9300  0.0000  0.0000  6.0
 AmbTrs  5- 3- 6- 7   0   0   0   0  0.0000 16.9300  0.0000  0.0000  6.0
 AmbTrs  5- 3- 6- 8   0   0   0   0  0.0000 16.9300  0.0000  0.0000  6.0
 NBPair  2- 1 3 1      0      0 -1.000 -1.000
 NBPair  3- 2 3 1      0      0 -1.000 -1.000
 NBPair 10- 3 3 1      0      0 -0.500 -0.167
 NBPair  9- 2 3 1      0      0 -1.000 -1.000
 NBPair 10- 9 3 1      0      0 -0.500 -0.167
 NBPair  3- 1 3 1      0      0 -1.000 -1.000
 NBPair  4- 2 3 1      0      0 -0.500 -0.167
 NBPair  5- 2 3 1      0      0 -0.500 -0.167
 NBPair  6- 2 3 1      0      0 -0.500 -0.167
 NBPair  9- 3 3 1      0      0 -1.000 -1.000
 NBPair  9- 4 3 1      0      0 -0.500 -0.167
 NBPair  9- 5 3 1      0      0 -0.500 -0.167
 NBPair  9- 6 3 1      0      0 -0.500 -0.167
 NBPair  9- 1 3 1      0      0 -1.000 -1.000
 NBPair 10- 1 3 1      0      0 -1.000 -1.000
 NBPair 10- 2 3 1      0      0 -1.000 -1.000
 NBPair  4- 1 3 1      0      0 -1.000 -1.000
 NBPair  5- 1 3 1      0      0 -1.000 -1.000
 NBPair  6- 1 3 1      0      0 -1.000 -1.000
 NBPair  4- 3 3 1      0      0 -1.000 -1.000
 NBPair  5- 4 3 1      0      0 -1.000 -1.000
 NBPair  6- 4 3 1      0      0 -1.000 -1.000
 NBPair  5- 3 3 1      0      0 -1.000 -1.000
 NBPair  6- 5 3 1      0      0 -1.000 -1.000
 NBPair  6- 3 3 1      0      0 -1.000 -1.000
 NBPair  7- 1 3 1      0      0 -0.500 -0.167
 NBPair  8- 1 3 1      0      0 -0.500 -0.167
 NBPair  7- 4 3 1      0      0 -0.500 -0.167
 NBPair  8- 4 3 1      0      0 -0.500 -0.167
 NBPair  7- 5 3 1      0      0 -0.500 -0.167
 NBPair  8- 5 3 1      0      0 -0.500 -0.167
 NBPair  7- 3 3 1      0      0 -1.000 -1.000
 NBPair  8- 3 3 1      0      0 -1.000 -1.000
 NBPair  7- 6 3 1      0      0 -1.000 -1.000
 NBPair  8- 7 3 1      0      0 -1.000 -1.000
 NBPair  8- 6 3 1      0      0 -1.000 -1.000
 Energy per function type:
 Direct Coulomb + vdW (small)                           0.003875782
 Direct Coulomb (large)                                -0.131921178
 Direct vdW (large)                                   268.442758689
 Non-direct Coulomb + vdW (small)                      -0.012114770
 Non-direct Coulomb (large)                             0.138202850
 Non-direct vdW (large)                              -268.442758689
 Harmonic stretch I                                     0.000127406
 Harmonic bend I                                        0.010163000
 Amber torsion                                          0.038094567
 Energy per function class:
        Coulomb              -0.003785184
    Vanderwaals               0.001827867
     Stretching               0.000127406
        Bending               0.010163000
        Torsion               0.038094567
 Energy=    4.642765648E-02 NIter=   0.
 Dipole moment=       0.524144      -0.157462      -0.369321
 Leave Link  402 at Tue Nov 28 09:32:11 2023, MaxMem=   134217728 cpu:               0.4 elap:               0.4
 (Enter /home/emanuele/chem_software/gaussian//gdv/l716.exe)
 Dipole        = 5.24144037D-01-1.57462170D-01-3.69320921D-01
 -------------------------------------------------------------------
 Center     Atomic                   Forces (Hartrees/Bohr)
 Number     Number              X              Y              Z
 -------------------------------------------------------------------
      1        6           0.000020706    0.000003588   -0.000004383
      2        8          -0.000031907   -0.000020365    0.000017715
      3        6          -0.000015831    0.000023866   -0.000023599
      4        1          -0.000014735   -0.000030052   -0.000014549
      5        1           0.000008126   -0.000016867   -0.000002270
      6        7          -0.000021146    0.000023659   -0.000030043
      7        1           0.000043906    0.000021264    0.000030322
      8        1           0.000022753   -0.000033370    0.000007249
      9        8          -0.000008009    0.000023277    0.000029394
     10        1          -0.000003864    0.000005000   -0.000009835
 -------------------------------------------------------------------
 Cartesian Forces:  Max     0.000043906 RMS     0.000021425
 Z-matrix is all fixed cartesians, so copy forces.
 Leave Link  716 at Tue Nov 28 09:32:11 2023, MaxMem=   134217728 cpu:               0.0 elap:               0.0
 (Enter /home/emanuele/chem_software/gaussian//gdv/l103.exe)

 GradGradGradGradGradGradGradGradGradGradGradGradGradGradGradGradGradGrad
 Berny optimization.
 Search for a local minimum.
 Step number   1 out of a maximum of    2
 All quantities printed in internal units (Hartrees-Bohrs-Radians)
 RMS Force = .21425D-04 SwitMx=.10000D-02 MixMth= 2
 Mixed Optimization -- En-DIIS/RFO-DIIS
 Second derivative matrix not updated -- unit matrix used.
 ITU=  0
 RFO step:  Lambda=-1.37714402D-08 EMin= 1.00000000D+00
 Linear search not attempted -- first point.
 Variable       Old X    -DE/DX   Delta X   Delta X   Delta X     New X
                                 (Linear)    (Quad)   (Total)
    X1       -1.16304   0.00002   0.00000   0.00002   0.00002  -1.16302
    Y1        0.26044   0.00000   0.00000   0.00000   0.00000   0.26044
    Z1        0.42641  -0.00000   0.00000  -0.00000  -0.00000   0.42641
    X2       -2.18499  -0.00003   0.00000  -0.00003  -0.00003  -2.18502
    Y2       -1.13112  -0.00002   0.00000  -0.00002  -0.00002  -1.13114
    Z2       -1.45313   0.00002   0.00000   0.00002   0.00002  -1.45311
    X3        1.35600  -0.00002   0.00000  -0.00002  -0.00002   1.35599
    Y3       -0.91618   0.00002   0.00000   0.00002   0.00002  -0.91615
    Z3        1.16907  -0.00002   0.00000  -0.00002  -0.00002   1.16904
    X4        1.60709  -0.00001   0.00000  -0.00001  -0.00001   1.60707
    Y4       -0.30751  -0.00003   0.00000  -0.00003  -0.00003  -0.30754
    Z4        3.13529  -0.00001   0.00000  -0.00001  -0.00001   3.13527
    X5        1.02460   0.00001   0.00000   0.00001   0.00001   1.02461
    Y5       -2.96340  -0.00002   0.00000  -0.00002  -0.00002  -2.96342
    Z5        1.17302  -0.00000   0.00000  -0.00000  -0.00000   1.17302
    X6        3.36094  -0.00002   0.00000  -0.00002  -0.00002   3.36092
    Y6       -0.00251   0.00002   0.00000   0.00002   0.00002  -0.00249
    Z6       -0.48973  -0.00003   0.00000  -0.00003  -0.00003  -0.48976
    X7        5.13453   0.00004   0.00000   0.00004   0.00004   5.13457
    Y7       -0.69581   0.00002   0.00000   0.00002   0.00002  -0.69579
    Z7       -0.32456   0.00003   0.00000   0.00003   0.00003  -0.32453
    X8        2.93120   0.00002   0.00000   0.00002   0.00002   2.93123
    Y8        1.09247  -0.00003   0.00000  -0.00003  -0.00003   1.09244
    Z8       -1.99657   0.00001   0.00000   0.00001   0.00001  -1.99657
    X9       -2.52708  -0.00001   0.00000  -0.00001  -0.00001  -2.52709
    Y9        1.04791   0.00002   0.00000   0.00002   0.00002   1.04794
    Z9        2.06427   0.00003   0.00000   0.00003   0.00003   2.06430
   X10       -3.33712  -0.00000   0.00000  -0.00000  -0.00000  -3.33712
   Y10       -0.01936   0.00001   0.00000   0.00001   0.00001  -0.01935
   Z10       -2.33411  -0.00001   0.00000  -0.00001  -0.00001  -2.33412
         Item               Value     Threshold  Converged?
 Maximum Force            0.000044     0.000450     YES
 RMS     Force            0.000021     0.000300     YES
 Maximum Displacement     0.000044     0.001800     YES
 RMS     Displacement     0.000021     0.001200     YES
 Predicted change in Energy=-6.885720D-09
 Optimization completed.
    -- Stationary point found.
 Largest change from initial coordinates is atom    7       0.242 Angstoms.
 GradGradGradGradGradGradGradGradGradGradGradGradGradGradGradGradGradGrad

 Leave Link  103 at Tue Nov 28 09:32:11 2023, MaxMem=   134217728 cpu:               0.0 elap:               0.0
 (Enter /home/emanuele/chem_software/gaussian//gdv/l202.exe)
                          Input orientation:                          
 ---------------------------------------------------------------------
 Center     Atomic      Atomic             Coordinates (Angstroms)
 Number     Number       Type             X           Y           Z
 ---------------------------------------------------------------------
      1          6    20001002       -0.615453    0.137817    0.225646
      2          8    20001022       -1.156247   -0.598561   -0.768965
      3          6    20001001        0.717567   -0.484821    0.618644
      4          1    20001034        0.850433   -0.162725    1.659122
      5          1    20001034        0.542195   -1.568164    0.620738
      6          7    20001020        1.778531   -0.001328   -0.259153
      7          1    20001029        2.717074   -0.368205   -0.171749
      8          1    20001029        1.551126    0.578110   -1.056542
      9          8    20001025       -1.337275    0.554532    1.092367
     10          1    20001031       -1.765927   -0.010245   -1.235158
 ---------------------------------------------------------------------
                    Distance matrix (angstroms):
                    1          2          3          4          5
     1  C    0.000000
     2  O    1.350541   0.000000
     3  C    1.522848   2.334432   0.000000
     4  H    2.072197   3.179988   1.097266   0.000000
     5  H    2.099194   2.399189   1.097448   1.774404   0.000000
     6  N    2.446538   3.038012   1.459431   2.137099   2.181217
     7  H    3.394071   3.925856   2.153219   2.622720   2.607305
     8  H    2.555763   2.965995   2.151950   2.900799   2.904772
     9  O    1.202449   2.197033   2.350966   2.371020   2.874140
    10  H    1.865332   0.967038   3.135210   3.904542   3.346474
                    6          7          8          9         10
     6  N    0.000000
     7  H    1.011485   0.000000
     8  H    1.011578   1.742930   0.000000
     9  O    3.441487   4.345938   3.600170   0.000000
    10  H    3.676390   4.621285   3.373560   2.433123   0.000000
 Symmetry turned off by external request.
 Stoichiometry    C2H5NO2
 Framework group  C1[X(C2H5NO2)]
 Deg. of freedom    24
 Full point group                 C1      NOp   1
 Rotational constants (GHZ):           9.5112705           3.8998193           3.1081968
 Leave Link  202 at Tue Nov 28 09:32:11 2023, MaxMem=   134217728 cpu:               0.0 elap:               0.0
 (Enter /home/emanuele/chem_software/gaussian//gdv/l9999.exe)
 Unable to Open any file for archive entry.
 1\1\GINC-EMANUELE-XPS-13-9343\FOpt\AMBER\ZDO\C2H5N1O2\EMANUELE\28-Nov-
 2023\0\\#p Amber=(SoftFirst,Print) geom=nocrowd nosymm opt=(maxcycle=3
 00)\\Title\\0,1\C,-0.6154526442,0.1378165716,0.2256461313\O,-1.1562470
 773,-0.5985611364,-0.7689646561\C,0.7175668144,-0.4848205047,0.6186439
 473\H,0.8504332558,-0.1627247675,1.6591216827\H,0.5421946688,-1.568163
 7302,0.6207377117\N,1.7785310078,-0.0013279715,-0.2591529265\H,2.71707
 43333,-0.3682052852,-0.171749379\H,1.5511259898,0.578110091,-1.0565416
 56\O,-1.3372745352,0.5545324508,1.0923671754\H,-1.7659268131,-0.010244
 7179,-1.2351580307\\Version=ES64L-GDVRevJ.14\HF=0.0464277\RMSD=0.000e+
 00\RMSF=2.143e-05\Dipole=0.524144,-0.1574622,-0.3693209\PG=C01 [X(C2H5
 N1O2)]\\@
 The archive entry for this job was punched.


 CHILDREN YOU ARE VERY LITTLE,
 AND YOUR BONES ARE VERY BRITTLE;
 IF YOU WOULD GROW GREAT AND STATELY
 YOU MUST TRY TO WALK SEDATELY.
 YOU MUST STILL BE BRIGHT AND QUIET,
 AND CONTENT WITH SIMPLE DIET;
 AND REMAIN, THROUGH ALL BEWILD'RING
 INNOCENT AND HONEST CHILDREN.
     -- A CHILD'S GARDEN OF VERSE,
        ROBERT LOUIS STEVENSON
 Job cpu time:       0 days  0 hours  0 minutes  0.9 seconds.
 Elapsed time:       0 days  0 hours  0 minutes  0.8 seconds.
 File lengths (MBytes):  RWF=      6 Int=      0 D2E=      0 Chk=      1 Scr=      1
 Normal termination of Gaussian DV at Tue Nov 28 09:32:11 2023.
