 Entering Gaussian System, Link 0=/home/emanuele/chem_software/gaussian//g09/g09
 Input=4_mm_90.gjf
 Output=4_mm_90.log
 Initial command:
 /home/emanuele/chem_software/gaussian//gdv/l1.exe "/home/emanuele/chem_software/gaussian/scratch/Gau-4584.inp" -scrdir="/home/emanuele/chem_software/gaussian/scratch/"
 Entering Link 1 = /home/emanuele/chem_software/gaussian//gdv/l1.exe PID=      4586.
  
 Copyright (c) 1988-2020, Gaussian, Inc.  All Rights Reserved.
  
 This is the private, development version of
 the Gaussian(R) DV system of programs. It is based on
 the Gaussian(R) 16 system (copyright 2016, Gaussian, Inc.),
 the Gaussian(R) 09 system (copyright 2009, Gaussian, Inc.),
 the Gaussian(R) 03 system (copyright 2003, Gaussian, Inc.),
 the Gaussian(R) 98 system (copyright 1998, Gaussian, Inc.),
 the Gaussian(R) 94 system (copyright 1995, Gaussian, Inc.),
 the Gaussian 92(TM) system (copyright 1992, Gaussian, Inc.),
 the Gaussian 90(TM) system (copyright 1990, Gaussian, Inc.),
 the Gaussian 88(TM) system (copyright 1988, Gaussian, Inc.),
 the Gaussian 86(TM) system (copyright 1986, Carnegie Mellon
 University), and the Gaussian 82(TM) system (copyright 1983,
 Carnegie Mellon University). Gaussian is a federally registered
 trademark of Gaussian, Inc.
  
 This software contains proprietary and confidential information,
 including trade secrets, belonging to Gaussian, Inc.
  
 This software is provided under written license and may be
 used, copied, transmitted, or stored only in accord with that
 written license.
  
 The following legend is applicable only to US Government
 contracts under FAR:
  
                    RESTRICTED RIGHTS LEGEND
  
 Use, reproduction and disclosure by the US Government is
 subject to restrictions as set forth in subparagraphs (a)
 and (c) of the Commercial Computer Software - Restricted
 Rights clause in FAR 52.227-19.
  
 Gaussian, Inc.
 340 Quinnipiac St., Bldg. 40, Wallingford CT 06492
  
  
 ---------------------------------------------------------------
 Warning -- This program may not be used in any manner that
 competes with the business of Gaussian, Inc. or will provide
 assistance to any competitor of Gaussian, Inc.  The licensee
 of this program is prohibited from giving any competitor of
 Gaussian, Inc. access to this program.  By using this program,
 the user acknowledges that Gaussian, Inc. is engaged in the
 business of creating and licensing software in the field of
 computational chemistry and represents and warrants to the
 licensee that it is not a competitor of Gaussian, Inc. and that
 it will not use this program in any manner prohibited above.
 ---------------------------------------------------------------
  

 Cite this work as:
 Gaussian Development Version, Revision J.14,
 M. J. Frisch, G. W. Trucks, H. B. Schlegel, G. E. Scuseria, 
 M. A. Robb, J. R. Cheeseman, G. Scalmani, V. Barone, 
 G. A. Petersson, H. Nakatsuji, X. Li, A. V. Marenich, M. Caricato, 
 J. Bloino, B. G. Janesko, J. Zheng, R. Gomperts, B. Mennucci, 
 H. P. Hratchian, J. V. Ortiz, A. F. Izmaylov, J. L. Sonnenberg, 
 D. Williams-Young, F. Ding, F. Lipparini, F. Egidi, J. Goings, 
 B. Peng, A. Petrone, T. Henderson, D. Ranasinghe, V. G. Zakrzewski, 
 J. Gao, N. Rega, G. Zheng, W. Liang, M. Hada, M. Ehara, K. Toyota, 
 R. Fukuda, J. Hasegawa, M. Ishida, T. Nakajima, Y. Honda, O. Kitao, 
 H. Nakai, T. Vreven, K. Throssell, J. A. Montgomery, Jr., 
 J. E. Peralta, F. Ogliaro, M. J. Bearpark, J. J. Heyd, 
 E. N. Brothers, K. N. Kudin, V. N. Staroverov, T. A. Keith, 
 R. Kobayashi, J. Normand, K. Raghavachari, A. P. Rendell, 
 J. C. Burant, S. S. Iyengar, J. Tomasi, M. Cossi, J. M. Millam, 
 M. Klene, C. Adamo, R. Cammi, J. W. Ochterski, R. L. Martin, 
 K. Morokuma, O. Farkas, J. B. Foresman, and D. J. Fox, 
 Gaussian, Inc., Wallingford CT, 2020.
 
 ******************************************
 Gaussian DV:  ES64L-GDVRevJ.14 29-Dec-2020
                28-Nov-2023 
 ******************************************
 %mem=1GB
 %nprocshared=1
 Will use up to    1 processors via shared memory.
 %chk=4_mm_90.chk
 -----------------------------------------------------------------
 #p Amber=(SoftFirst,Print) geom=nocrowd nosymm opt=(maxcycle=300)
 -----------------------------------------------------------------
 1/6=300,10=10,18=4000020,19=15,37=210000000,38=1,56=2,64=203/1,3;
 2/9=110,12=1,15=1,40=1/2;
 3/5=30,11=9,25=1,30=1,41=10030000,43=2,71=1/1;
 4/20=11,22=1001,24=3,119=11/2;
 7/30=1,44=-1/16;
 1/6=300,10=10,18=4000020,19=15,64=203/3(2);
 2/9=110,12=1,15=1/2;
 99//99;
 2/9=110,12=1,15=1/2;
 3/5=30,11=9,25=1,30=1,41=10030000,43=2,71=1/1;
 4/16=2,20=11,22=1001,24=3,119=11/2;
 7/30=1,44=-1/16;
 1/6=300,10=10,18=4000020,19=15,64=203/3(-4);
 2/9=110,12=1,15=1/2;
 99/9=10/99;
 Leave Link    1 at Tue Nov 28 09:32:13 2023, MaxMem=   134217728 cpu:               0.0 elap:               0.0
 (Enter /home/emanuele/chem_software/gaussian//gdv/l101.exe)
 -----
 Title
 -----
 Symbolic Z-matrix:
 Charge =  0 Multiplicity = 1
 C-C-+0.299289        -0.6731   -0.29361   0.31099 
 O-OH--0.289770       -0.82564  -0.02192  -1.03234 
 C-CT--0.035454        0.76589  -0.14372   0.74239 
 H-HC-+0.090426        1.07737   0.705     1.39714 
 H-HC-+0.095387        0.72162  -1.05378   1.40737 
 N-N3--0.336253        1.79038  -0.48915  -0.27935 
 H-H-+0.142619         1.38798  -0.20168  -1.1814 
 H-H-+0.128282         2.43736   0.29883  -0.27315 
 O-O2--0.308037       -1.63491  -0.59011   0.97535 
 H-HO-+0.213510       -1.76492  -0.13344  -1.34204 
 
 ITRead=  3  3  3  3  3  3  3  3  3  3
 MicOpt=  0  0  0  0  0  0  0  0  0  0
 NAtoms=     10 NQM=        0 NQMF=       0 NMMI=      0 NMMIF=      0
                NMic=      10 NMicF=      0.
                    Isotopes and Nuclear Properties:
 (Nuclear quadrupole moments (NQMom) in fm**2, nuclear magnetic moments (NMagM)
  in nuclear magnetons)

  Atom         1           2           3           4           5           6           7           8           9          10
 IAtWgt=          12          16          12           1           1          14           1           1          16           1
 AtmWgt=  12.0000000  15.9949146  12.0000000   1.0078250   1.0078250  14.0030740   1.0078250   1.0078250  15.9949146   1.0078250
 NucSpn=           0           0           0           1           1           2           1           1           0           1
 AtZEff=  -0.0000000  -0.0000000  -0.0000000  -0.0000000  -0.0000000  -0.0000000  -0.0000000  -0.0000000  -0.0000000  -0.0000000
 NQMom=    0.0000000   0.0000000   0.0000000   0.0000000   0.0000000   2.0440000   0.0000000   0.0000000   0.0000000   0.0000000
 NMagM=    0.0000000   0.0000000   0.0000000   2.7928460   2.7928460   0.4037610   2.7928460   2.7928460   0.0000000   2.7928460
 AtZNuc=   6.0000000   8.0000000   6.0000000   1.0000000   1.0000000   7.0000000   1.0000000   1.0000000   8.0000000   1.0000000
 Generating MM parameters.
 I=    1 IAn=  6 Valence= 5.
          JB=  1 J=    2 IAn=  8 IBT=12 Dist= 1.38D+00
          JB=  2 J=    3 IAn=  6 IBT= 1 Dist= 1.51D+00
          JB=  3 J=    9 IAn=  8 IBT= 2 Dist= 1.21D+00
 I=    2 IAn=  8 Valence= 3.
          JB=  1 J=    1 IAn=  6 IBT=12 Dist= 1.38D+00
          JB=  2 J=   10 IAn=  1 IBT= 1 Dist= 9.95D-01
 Read MM parameter file:
 Include all MM classes

 MM sanity checks:
 All charges sum to:               -0.00000100
 Charges of atoms sum to:          -0.00000100
 WARNING -- The following centers have non-zero partial charges, but zero Vanderwaals
 parameters.  These centers can collapse onto other centers with non-zero charge.
   Center  Layer   Charge
     10 H    R    0.213510
 MMInit generated parameter data with length LenPar=        2069.
 MM Charge=             -0.0000 electrons
 MM Dipole moment (Debye):
    X=              1.0196    Y=              1.0285    Z=             -0.3367  Tot=              1.4869
 MM Quadrupole moment (Debye-Ang):
   XX=             -0.6119   YY=              0.0439   ZZ=              1.6328
   XY=              0.7447   XZ=              3.5977   YZ=              0.5312
 MM Traceless Quadrupole moment (Debye-Ang):
   XX=             -0.9668   YY=             -0.3110   ZZ=              1.2779
   XY=              0.7447   XZ=              3.5977   YZ=              0.5312
 MM Octapole moment (Debye-Ang**2):
  XXX=              3.2960  YYY=              0.0816  ZZZ=             -0.9920  XYY=              0.8052
  XXY=              5.2155  XXZ=             -7.1092  XZZ=              2.8822  YZZ=              0.1133
  YYZ=              0.5872  XYZ=             -1.9087
 MM Hexadecapole moment (Debye-Ang**3):
 XXXX=              7.3717 YYYY=              0.4174 ZZZZ=              5.1490 XXXY=              4.0915
 XXXZ=             11.8603 YYYX=             -0.3201 YYYZ=             -0.3037 ZZZX=              5.9350
 ZZZY=              0.8007 XXYY=             -1.6093 XXZZ=              4.1557 YYZZ=              0.9940
 XXYZ=              2.2290 YYXZ=              1.7889 ZZXY=             -1.0819
 Leave Link  101 at Tue Nov 28 09:32:13 2023, MaxMem=   134217728 cpu:               0.2 elap:               0.2
 (Enter /home/emanuele/chem_software/gaussian//gdv/l103.exe)

 GradGradGradGradGradGradGradGradGradGradGradGradGradGradGradGradGradGrad
 Berny optimization.
 Initialization pass.
 No Z-matrix variables, so optimization will use Cartesian coordinates.
 Trust Radius=1.00D-01 FncErr=1.00D-07 GrdErr=1.00D-07 EigMax=2.50D+02 EigMin=1.00D-04
 Number of steps in this run=      2 maximum allowed number of steps=      2.
 GradGradGradGradGradGradGradGradGradGradGradGradGradGradGradGradGradGrad

 Leave Link  103 at Tue Nov 28 09:32:13 2023, MaxMem=   134217728 cpu:               0.0 elap:               0.0
 (Enter /home/emanuele/chem_software/gaussian//gdv/l202.exe)
                          Input orientation:                          
 ---------------------------------------------------------------------
 Center     Atomic      Atomic             Coordinates (Angstroms)
 Number     Number       Type             X           Y           Z
 ---------------------------------------------------------------------
      1          6    20001002       -0.673097   -0.293613    0.310985
      2          8    20001022       -0.825636   -0.021917   -1.032335
      3          6    20001001        0.765885   -0.143715    0.742386
      4          1    20001034        1.077370    0.704995    1.397137
      5          1    20001034        0.721618   -1.053781    1.407371
      6          7    20001020        1.790382   -0.489153   -0.279348
      7          1    20001029        1.387979   -0.201679   -1.181404
      8          1    20001029        2.437356    0.298825   -0.273152
      9          8    20001025       -1.634913   -0.590106    0.975348
     10          1    20001031       -1.764918   -0.133444   -1.342037
 ---------------------------------------------------------------------
                    Distance matrix (angstroms):
                    1          2          3          4          5
     1  C    0.000000
     2  O    1.378983   0.000000
     3  C    1.509717   2.386924   0.000000
     4  H    2.289340   3.170515   1.116257   0.000000
     5  H    1.930064   3.067720   1.128000   1.794424   0.000000
     6  N    2.540759   2.762037   1.487569   2.178297   2.075110
     7  H    2.546313   2.225899   2.022703   2.750892   2.805685
     8  H    3.219801   3.365464   2.005237   2.191894   2.756349
     9  O    1.205975   2.237981   2.453032   3.035074   2.440262
    10  H    1.987513   0.995291   3.278702   4.035425   3.819571
                    6          7          8          9         10
     6  N    0.000000
     7  H    1.028725   0.000000
     8  H    1.019570   1.475337   0.000000
     9  O    3.649260   3.733675   4.351129   0.000000
    10  H    3.727733   3.157724   4.357577   2.365526   0.000000
 Symmetry turned off by external request.
 Stoichiometry    C2H5NO2
 Framework group  C1[X(C2H5NO2)]
 Deg. of freedom    24
 Full point group                 C1      NOp   1
 Rotational constants (GHZ):           9.8584380           3.9330562           2.9487539
 Leave Link  202 at Tue Nov 28 09:32:13 2023, MaxMem=   134217728 cpu:               0.0 elap:               0.0
 (Enter /home/emanuele/chem_software/gaussian//gdv/l301.exe)
 Standard basis: Dummy (5D, 7F)
    10 basis functions,    10 primitive gaussians,    10 cartesian basis functions
     7 alpha electrons        7 beta electrons
       nuclear repulsion energy        22.7252640962 Hartrees.
 IExCor=       0 DFT=F Ex=HF Corr=None N6=None ScaHFX=  1.000000
 ScaDFX=  1.000000  1.000000  1.000000  1.000000  1.000000  0.000000
 ScaDFX=  0.000000  0.000000  0.000000  0.000000  0.000000  0.000000
 IRadAn=      5 IRanWt=     -1 IRanGd=            0 ICorTp=0 IEmpDi=  4
 NAtoms=   10 NActive=   10 NUniq=   10 SFac= 1.00D+00 NAtFMM=   60 NAOKFM=F Big=F
 Integral buffers will be    131072 words long.
 Raffenetti 1 integral format.
 Two-electron integral symmetry is turned off.
 Leave Link  301 at Tue Nov 28 09:32:13 2023, MaxMem=   134217728 cpu:               0.1 elap:               0.0
 (Enter /home/emanuele/chem_software/gaussian//gdv/l402.exe)
 AMBER calculation of energy and first derivatives.
 NRF= 0 NRA=   0 NVA=  10 HaveQM=F NVQ=       0
 Convergence limit is  0.750E-04 MaxStp= 10000 StMxLn= 3.00D-04 StpMin= 1.00D-06.
 Convergence criteria             0.00011250 0.00007500 0.00045000 0.00030000
  Step  NS  ND Rises OKQ   Scale  Max. Force  RMS Force Max. Disp.  RMS Disp.     Energy   Flag
     1   0   0   F    T  1.00D+00 0.06763994 0.02350386 0.06763994 0.02350386    0.0965543 ----
     2   0   0   F    F  6.16D-01 0.06763994 0.02350386 0.04166676 0.01447857    0.0852367 ----
     3   0   0   F    T  2.60D+00 0.02835837 0.01284370 0.08462273 0.03798244    0.0833517 ----
     4   0   0   F    F  7.93D-01 0.02835837 0.01284370 0.06709124 0.03011353    0.0739783 ----
     5   0   0   F    F -9.65D-03 0.02835837 0.01284370 0.00064768 0.00029071    0.0716637 ---+
     6   0   0   F    T  3.66D+00 0.03645361 0.01195366 0.13084918 0.06780525    0.0716635 ----
     7   0   0   T    F  2.93D-01 0.03645361 0.01195366 0.03827907 0.01983599    0.0830224 ----
     8   0   0   F    T  2.12D+00 0.01713087 0.00706986 0.05033039 0.01983599    0.0693621 ----
     9   0   0   F    F -4.39D-01 0.01713087 0.00706986 0.02210144 0.00871052    0.0690170 ----
    10   0   0   F    T  1.42D+00 0.01131238 0.00545865 0.03560717 0.01112546    0.0684730 ----
    11   0   0   F    F  1.29D+00 0.01131238 0.00545865 0.04586754 0.01433132    0.0674758 ----
    12   0   0   F    T  2.30D+00 0.01256244 0.00596075 0.08613205 0.02545679    0.0670114 ----
    13   0   0   F    F  3.78D-01 0.01256244 0.00596075 0.03255287 0.00962117    0.0654297 ----
    14   0   0   F    T  4.21D+00 0.01180991 0.00483910 0.09729233 0.03507796    0.0652979 ----
    15   0   0   T    F  4.38D-01 0.01180991 0.00483910 0.04258739 0.01535454    0.0656819 ----
    16   0   0   F    T  2.24D+00 0.01132400 0.00395997 0.04142265 0.01535454    0.0646554 ----
    17   0   0   F    F  1.33D+00 0.01132400 0.00395997 0.05508543 0.02041905    0.0638278 ----
    18   0   0   F    F -9.81D-03 0.01132400 0.00395997 0.00054045 0.00020033    0.0634292 ---+
    19   0   0   F    T  3.82D+00 0.01063599 0.00418638 0.10204842 0.03557325    0.0634291 ----
    20   0   0   F    F -3.34D-01 0.01063599 0.00418638 0.03404722 0.01186859    0.0629280 ----
    21   0   0   F    T  2.78D+00 0.00852732 0.00381979 0.06694854 0.02370467    0.0627571 ----
    22   0   0   F    F  1.42D+00 0.00852732 0.00381979 0.09503597 0.03364967    0.0617890 ----
    23   0   0   F    F -8.59D-02 0.00852732 0.00381979 0.00816281 0.00289023    0.0613133 ----
    24   0   0   F    T  2.07D+00 0.02281821 0.00673892 0.15082947 0.05446410    0.0613088 ----
    25   0   0   T    F  4.51D-01 0.02281821 0.00673892 0.06801334 0.02455943    0.0617342 ----
    26   0   0   F    T  2.11D+00 0.01498182 0.00491579 0.06420459 0.02455943    0.0606593 ----
    27   0   0   F    F  1.59D+00 0.01498182 0.00491579 0.10206212 0.03904063    0.0593614 ----
    28   0   0   F    F -1.04D-01 0.01498182 0.00491579 0.01058480 0.00404888    0.0585609 ----
    29   0   0   F    T  2.40D+00 0.02073987 0.00740830 0.14322661 0.05955118    0.0585480 ----
    30   0   0   F    F -3.41D-01 0.02073987 0.00740830 0.04890379 0.02033336    0.0576206 ----
    31   0   0   F    T  5.73D+00 0.01533423 0.00609336 0.10607014 0.03921782    0.0571117 ----
    32   0   0   T    F  4.09D-01 0.01533423 0.00609336 0.04332997 0.01602060    0.0583864 ----
    33   0   0   F    T  1.59D+00 0.01485702 0.00644517 0.03833447 0.01602060    0.0558212 ----
    34   0   0   F    F -1.58D-01 0.01485702 0.00644517 0.00604930 0.00252810    0.0550080 ----
    35   0   0   F    T  1.48D+00 0.01374714 0.00547995 0.02816688 0.01349250    0.0549777 ----
    36   0   0   F    F  3.62D-01 0.01374714 0.00547995 0.01019801 0.00488505    0.0541372 ----
    37   0   0   F    T  3.01D+00 0.00871256 0.00406518 0.04356645 0.01837755    0.0540737 ----
    38   0   0   F    F -3.09D-01 0.00871256 0.00406518 0.01344175 0.00567010    0.0536609 ----
    39   0   0   F    T  2.30D+00 0.00900979 0.00342439 0.02073943 0.01270744    0.0535583 ----
    40   0   0   F    F  1.50D-01 0.00900979 0.00342439 0.00310208 0.00190070    0.0530981 ----
    41   0   0   F    T  2.16D+00 0.00993187 0.00351450 0.02731387 0.01460815    0.0530901 ----
    42   0   0   F    F -4.39D-01 0.00993187 0.00351450 0.01198285 0.00640873    0.0530031 ----
    43   0   0   F    T  2.13D+00 0.00799021 0.00236765 0.01602719 0.00819942    0.0528648 ----
    44   0   0   F    F -4.28D-01 0.00799021 0.00236765 0.00685581 0.00350739    0.0528196 ----
    45   0   0   F    T  2.48D+00 0.00342737 0.00138343 0.00991546 0.00469202    0.0527620 ----
    46   0   0   F    F  8.95D-01 0.00342737 0.00138343 0.00887548 0.00419990    0.0526580 ----
    47   0   0   F    T  2.59D+00 0.00413804 0.00173079 0.01978403 0.00889193    0.0526284 ----
    48   0   0   F    F -2.19D-01 0.00413804 0.00173079 0.00433174 0.00194690    0.0525446 ----
    49   0   0   F    T  2.51D+00 0.00390263 0.00143014 0.01615481 0.00694503    0.0525374 ----
    50   0   0   F    F -3.22D-01 0.00390263 0.00143014 0.00519692 0.00223418    0.0524969 ----
    51   0   0   F    T  1.36D+00 0.00374221 0.00152367 0.01110340 0.00471085    0.0524851 ----
    52   0   0   F    F  3.06D-01 0.00374221 0.00152367 0.00339217 0.00143920    0.0524269 ----
    53   0   0   F    T  2.30D+00 0.00349029 0.00126210 0.01551381 0.00615004    0.0524235 ----
    54   0   0   F    F  7.87D-02 0.00349029 0.00126210 0.00122079 0.00048395    0.0523645 ----
    55   0   0   F    T  5.52D+00 0.00186134 0.00075185 0.01359626 0.00663399    0.0523642 ----
    56   0   0   T    F  4.30D-01 0.00186134 0.00075185 0.00584859 0.00285369    0.0523793 ----
    57   0   0   F    T  1.76D+00 0.00212346 0.00081256 0.00682457 0.00285369    0.0523441 ----
    58   0   0   F    F  1.06D-01 0.00212346 0.00081256 0.00072073 0.00030137    0.0523251 ----
    59   0   0   F    T  2.35D+00 0.00183284 0.00068267 0.00631097 0.00315506    0.0523249 ----
    60   0   0   T    F  4.23D-01 0.00183284 0.00068267 0.00266840 0.00133402    0.0523309 ----
    61   0   0   F    T  2.10D+00 0.00112402 0.00041120 0.00234758 0.00133402    0.0523179 ----
    62   0   0   F    F  1.25D+00 0.00112402 0.00041120 0.00293888 0.00167003    0.0523097 ----
    63   0   0   F    T  3.90D+00 0.00092595 0.00041544 0.00552548 0.00300405    0.0523060 ----
    64   0   0   T    F  4.35D-01 0.00092595 0.00041544 0.00240269 0.00130628    0.0523090 ----
    65   0   0   F    T  3.26D+00 0.00058713 0.00026075 0.00343651 0.00130628    0.0523016 ----
    66   0   0   F    F -3.87D-01 0.00058713 0.00026075 0.00132982 0.00050549    0.0523003 ----
    67   0   0   F    T  1.00D+00 0.00079679 0.00035349 0.00232648 0.00081664    0.0522995 ----
    68   0   0   F    F  2.33D+00 0.00079679 0.00035349 0.00542116 0.00190292    0.0522963 ----
    69   0   0   F    T  1.63D+00 0.00123076 0.00049422 0.00747995 0.00271955    0.0522933 ----
    70   0   0   F    F  1.33D-01 0.00123076 0.00049422 0.00099473 0.00036166    0.0522866 ----
    71   0   0   F    T  5.45D+00 0.00089722 0.00026831 0.00788621 0.00308122    0.0522865 ----
    72   0   0   T    F  3.57D-01 0.00089722 0.00026831 0.00281537 0.00109999    0.0522913 ----
    73   0   0   F    T  3.69D+00 0.00058281 0.00017541 0.00247704 0.00109999    0.0522844 ----
    74   0   0   F    F -2.69D-01 0.00058281 0.00017541 0.00066693 0.00029617    0.0522834 ---+
    75   0   0   F    T  1.09D+00 0.00077921 0.00026657 0.00253683 0.00080383    0.0522832 ----
    76   0   0   F    F  8.37D-01 0.00077921 0.00026657 0.00212217 0.00067243    0.0522815 ----
    77   0   0   F    T  1.99D+00 0.00069591 0.00025904 0.00447818 0.00147626    0.0522811 ----
    78   0   0   F    T  2.59D+00 0.00065315 0.00021531 0.00447290 0.00147626    0.0522791 ----
    79   0   0   F    F  1.46D+00 0.00065315 0.00021531 0.00652228 0.00215265    0.0522763 ----
    80   0   0   F    T  2.47D+00 0.00104825 0.00034630 0.01080417 0.00362891    0.0522748 ----
    81   0   0   F    F  1.22D-01 0.00104825 0.00034630 0.00131992 0.00044334    0.0522698 ----
    82   0   0   F    T  1.46D+00 0.00098858 0.00047272 0.01087803 0.00407225    0.0522698 ----
    83   0   0   F    F  5.33D-02 0.00098858 0.00047272 0.00058030 0.00021724    0.0522647 ---+
    84   0   0   F    T  1.85D+00 0.00089421 0.00042240 0.01239383 0.00428949    0.0522647 ----
    85   0   0   F    F  1.06D+00 0.00089421 0.00042240 0.01315042 0.00455135    0.0522570 ----
    86   0   0   F    T  1.61D+00 0.00163676 0.00065256 0.02492427 0.00884084    0.0522541 ----
    87   0   0   F    F  1.07D+00 0.00163676 0.00065256 0.02676388 0.00949336    0.0522381 ----
    88   0   0   F    F -4.21D-02 0.00163676 0.00065256 0.00112623 0.00039948    0.0522321 ----
    89   0   0   F    T  3.32D+00 0.00192033 0.00077715 0.04650407 0.01793472    0.0522321 ----
    90   0   0   F    F  1.83D-01 0.00192033 0.00077715 0.00852646 0.00328831    0.0521987 ----
    91   0   0   F    F -4.16D-02 0.00192033 0.00077715 0.00035430 0.00013664    0.0521979 --++
    92   0   0   F    T  1.06D+00 0.00449938 0.00150088 0.05669985 0.02108639    0.0521979 ----
    93   0   0   F    F  3.33D-01 0.00449938 0.00150088 0.01886806 0.00701694    0.0521468 ----
    94   0   0   F    F -2.72D-02 0.00449938 0.00150088 0.00051295 0.00019076    0.0521426 ---+
    95   0   0   F    T  2.04D+00 0.00420287 0.00150764 0.07168021 0.02791256    0.0521426 ----
    96   0   0   F    F -3.65D-02 0.00420287 0.00150764 0.00261517 0.00101836    0.0520733 ----
    97   0   0   F    T  3.66D+00 0.00296967 0.00146972 0.05899912 0.02689421    0.0520732 ----
    98   0   0   T    F  3.94D-01 0.00296967 0.00146972 0.02322696 0.01058779    0.0521236 ----
    99   0   0   F    T  1.49D+00 0.00385810 0.00135664 0.02639053 0.01058779    0.0520276 ----
   100   0   0   F    F  3.48D-01 0.00385810 0.00135664 0.00918646 0.00368558    0.0519763 ----
   101   0   0   F    T  1.55D+00 0.00361678 0.00145360 0.03373009 0.01427337    0.0519727 ----
   102   0   0   F    F  1.28D+00 0.00361678 0.00145360 0.04331684 0.01833015    0.0518957 ----
   103   0   0   F    F -3.22D-02 0.00361678 0.00145360 0.00139487 0.00059026    0.0518606 ----
   104   0   0   F    T  1.88D+00 0.00490921 0.00196439 0.07321307 0.03201326    0.0518606 ----
   105   0   0   F    F  2.70D-01 0.00490921 0.00196439 0.01976843 0.00864398    0.0517280 ----
   106   0   0   F    F -5.23D-02 0.00490921 0.00196439 0.00103335 0.00045184    0.0517220 ----
   107   0   0   F    T  1.93D+00 0.00531612 0.00225578 0.09853351 0.04020539    0.0517220 ----
   108   0   0   F    F -3.46D-01 0.00531612 0.00225578 0.03410620 0.01391662    0.0516536 ----
   109   0   0   F    T  1.57D+00 0.00443776 0.00223845 0.05957273 0.02628878    0.0516213 ----
   110   0   0   F    F  1.17D+00 0.00443776 0.00223845 0.06947817 0.03065993    0.0514466 ----
   111   0   0   F    F -1.21D-01 0.00443776 0.00223845 0.00843373 0.00372171    0.0513874 ----
   112   0   0   F    T  3.77D+00 0.00464861 0.00232445 0.11846392 0.05322700    0.0513863 ----
   113   0   0   F    F -2.50D-01 0.00464861 0.00232445 0.02961012 0.01330412    0.0511802 ----
   114   0   0   F    F -1.57D-02 0.00464861 0.00232445 0.00046575 0.00020927    0.0511540 ---+
   115   0   0   F    T  1.21D+00 0.00761891 0.00358604 0.09221641 0.04013215    0.0511539 ----
   116   0   0   F    F  2.59D-01 0.00761891 0.00358604 0.02385103 0.01037986    0.0508294 ----
   117   0   0   F    T  1.56D+00 0.00944147 0.00430182 0.12098143 0.05051201    0.0508114 ----
   118   0   0   F    F  6.72D-02 0.00944147 0.00430182 0.00813380 0.00339601    0.0503418 ----
   119   0   0   F    F -4.22D-02 0.00944147 0.00430182 0.00034300 0.00014321    0.0503399 --++
   120   0   0   F    T  3.28D+00 0.01092305 0.00415787 0.13936900 0.05376482    0.0503399 ----
   121   0   0   F    F -3.95D-01 0.01092305 0.00415787 0.05508451 0.02125012    0.0500222 ----
   122   0   0   F    T  1.30D+00 0.01900736 0.00476498 0.08395415 0.03251469    0.0498569 ----
   123   0   0   F    F  1.15D-01 0.01900736 0.00476498 0.00964673 0.00373609    0.0493489 ----
   124   0   0   F    T  1.77D+00 0.01170182 0.00382477 0.09825450 0.03625078    0.0493432 ----
   125   0   0   F    F  3.29D-01 0.01170182 0.00382477 0.03229982 0.01191695    0.0488313 ----
   126   0   0   F    F -3.48D-02 0.01170182 0.00382477 0.00112388 0.00041465    0.0487958 ----
   127   0   0   F    T  2.42D+00 0.01326915 0.00447514 0.12901056 0.04775308    0.0487958 ----
   128   0   0   T    F  4.14D-01 0.01326915 0.00447514 0.05336058 0.01975135    0.0490223 ----
   129   0   0   F    T  1.92D+00 0.00805683 0.00293764 0.05066654 0.01975135    0.0485028 ----
   130   0   0   F    F  8.73D-02 0.00805683 0.00293764 0.00442319 0.00172429    0.0482325 ----
   131   0   0   F    T  2.48D+00 0.00595408 0.00253613 0.05485353 0.02147564    0.0482308 ----
   132   0   0   F    F  6.58D-01 0.00595408 0.00253613 0.03607130 0.01412223    0.0478949 ----
   133   0   0   F    F -8.43D-03 0.00595408 0.00253613 0.00030397 0.00011901    0.0478322 --++
   134   0   0   F    T  1.27D+00 0.01645517 0.00458950 0.09044851 0.03547886    0.0478322 ----
   135   0   0   F    F -4.15D-02 0.01645517 0.00458950 0.00375226 0.00147184    0.0474510 ----
   136   0   0   F    T  4.02D+00 0.00589363 0.00237269 0.08774411 0.03400702    0.0474503 ----
   137   0   0   T    F  3.47D-01 0.00589363 0.00237269 0.03041554 0.01178816    0.0477714 ----
   138   0   0   F    T  2.77D+00 0.00512325 0.00165490 0.03061204 0.01178816    0.0473318 ----
   139   0   0   F    F -1.97D-01 0.00512325 0.00165490 0.00602929 0.00232177    0.0472464 ----
   140   0   0   F    T  2.45D+00 0.00428764 0.00151151 0.02295729 0.00946639    0.0472411 ----
   141   0   0   F    F -4.79D-01 0.00428764 0.00151151 0.01099291 0.00453290    0.0472337 ----
   142   0   0   F    T  1.40D+00 0.00373463 0.00136952 0.01118543 0.00493348    0.0471975 ----
   143   0   0   F    F  5.99D-01 0.00373463 0.00136952 0.00669820 0.00295433    0.0471435 ----
   144   0   0   F    T  2.64D+00 0.00283168 0.00118892 0.01609242 0.00788781    0.0471347 ----
   145   0   0   F    F  1.46D-01 0.00283168 0.00118892 0.00234825 0.00115101    0.0470715 ----
   146   0   0   F    T  1.86D+00 0.00424152 0.00148249 0.01819415 0.00903883    0.0470705 ----
   147   0   0   F    F -2.77D-01 0.00424152 0.00148249 0.00503521 0.00250148    0.0470327 ----
   148   0   0   F    T  1.95D+00 0.00322252 0.00118887 0.01323352 0.00653734    0.0470262 ----
   149   0   0   F    F -3.00D-01 0.00322252 0.00118887 0.00397288 0.00196260    0.0470027 ----
   150   0   0   F    T  2.48D+00 0.00180821 0.00083230 0.01272822 0.00457474    0.0469973 ----
   151   0   0   F    F  2.79D-01 0.00180821 0.00083230 0.00354681 0.00127478    0.0469659 ----
   152   0   0   F    T  1.94D+00 0.00268618 0.00103427 0.01734086 0.00584953    0.0469643 ----
   153   0   0   F    F -5.07D-02 0.00268618 0.00103427 0.00087931 0.00029661    0.0469349 ---+
   154   0   0   F    T  1.60D+00 0.00360318 0.00107922 0.01634074 0.00555291    0.0469349 ----
   155   0   0   F    F -2.88D-01 0.00360318 0.00107922 0.00470060 0.00159736    0.0469182 ----
   156   0   0   F    T  3.73D+00 0.00123339 0.00054456 0.00986808 0.00395556    0.0469150 ----
   157   0   0   F    F -2.50D-01 0.00123339 0.00054456 0.00246682 0.00098881    0.0469039 ----
   158   0   0   F    T  1.93D+00 0.00200740 0.00062709 0.00630862 0.00296675    0.0469025 ----
   159   0   0   F    T  1.37D+00 0.00236429 0.00071860 0.00625791 0.00296675    0.0468914 ----
   160   0   0   F    T  3.47D+00 0.00121019 0.00042816 0.00754429 0.00296675    0.0468816 ----
   161   0   0   T    F  3.66D-01 0.00121019 0.00042816 0.00276243 0.00108631    0.0468882 ----
   162   0   0   F    T  3.65D+00 0.00056317 0.00022380 0.00296139 0.00108631    0.0468782 ----
   163   0   0   F    F -4.21D-01 0.00056317 0.00022380 0.00124637 0.00045720    0.0468775 ----
   164   0   0   F    T  1.00D+00 0.00092515 0.00030609 0.00174661 0.00063847    0.0468766 ----
   165   0   0   F    F  7.82D-01 0.00092515 0.00030609 0.00136577 0.00049925    0.0468746 ----
   166   0   0   F    T  2.45D+00 0.00069975 0.00024136 0.00274229 0.00113772    0.0468741 ----
   167   0   0   F    F -1.79D-01 0.00069975 0.00024136 0.00048956 0.00020311    0.0468724 ---+
   168   0   0   F    T  2.09D+00 0.00045468 0.00022072 0.00192140 0.00093461    0.0468724 ----
   169   0   0   F    F  2.41D-01 0.00045468 0.00022072 0.00046315 0.00022529    0.0468705 ---+
   170   0   0   F    T  1.67D+00 0.00079858 0.00026416 0.00268997 0.00115990    0.0468705 ----
   171   0   0   F    F -2.22D-01 0.00079858 0.00026416 0.00059663 0.00025726    0.0468692 ---+
   172   0   0   F    T  1.80D+00 0.00055377 0.00021383 0.00187979 0.00090263    0.0468691 ----
   173   0   0   F    T  3.45D+00 0.00026176 0.00013695 0.00197777 0.00090263    0.0468679 ----
   174   0   0   F    F -2.94D-01 0.00026176 0.00013695 0.00058114 0.00026523    0.0468674 ---+
   175   0   0   F    T  2.20D+00 0.00044249 0.00014011 0.00144623 0.00063741    0.0468673 ----
   176   0   0   F    F -4.80D-01 0.00044249 0.00014011 0.00069426 0.00030599    0.0468672 ----
   177   0   0   F    T  1.50D+00 0.00028767 0.00011172 0.00087864 0.00033142    0.0468669 ----
   178   0   0   F    F  4.03D-01 0.00028767 0.00011172 0.00035374 0.00013343    0.0468666 --++
   179   0   0   F    T  3.94D+00 0.00016166 0.00007257 0.00160864 0.00046485    0.0468665 -+--
   180   0   0   F    T  1.25D+00 0.00036621 0.00012625 0.00158420 0.00046485    0.0468662 ----
   181   0   0   F    F  6.08D-01 0.00036621 0.00012625 0.00096316 0.00028262    0.0468657 ---+
   182   0   0   F    T  1.26D+00 0.00041106 0.00014282 0.00252576 0.00074747    0.0468656 ----
   183   0   0   F    F  6.72D-01 0.00041106 0.00014282 0.00169855 0.00050267    0.0468651 ----
   184   0   0   F    T  1.98D+00 0.00041193 0.00015991 0.00394884 0.00125013    0.0468650 ----
   185   0   0   F    F  2.88D-01 0.00041193 0.00015991 0.00113851 0.00036043    0.0468641 ----
   186   0   0   F    T  1.86D+00 0.00059738 0.00018441 0.00473423 0.00161057    0.0468640 ----
   187   0   0   F    F -2.05D-01 0.00059738 0.00018441 0.00097190 0.00033064    0.0468633 ----
   188   0   0   F    T  1.29D+00 0.00061772 0.00019623 0.00365244 0.00127993    0.0468633 ----
   189   0   0   F    F  6.39D-01 0.00061772 0.00019623 0.00233405 0.00081792    0.0468622 ----
   190   0   0   F    T  3.64D+00 0.00041496 0.00014718 0.00598633 0.00209785    0.0468621 ----
   191   0   0   T    F  4.88D-01 0.00041496 0.00014718 0.00292059 0.00102349    0.0468621 ----
   192   0   0   F    T  1.60D+00 0.00048569 0.00015229 0.00293069 0.00102349    0.0468615 ----
   193   0   0   F    T  1.37D+00 0.00036594 0.00016711 0.00299858 0.00102349    0.0468609 ----
   194   0   0   F    F  9.33D-01 0.00036594 0.00016711 0.00279669 0.00095458    0.0468600 ----
   195   0   0   F    T  2.21D+00 0.00042672 0.00016626 0.00578075 0.00197808    0.0468597 ----
   196   0   0   F    T  2.59D+00 0.00044710 0.00015655 0.00548699 0.00197808    0.0468588 ----
   197   0   0   T    F  4.01D-01 0.00044710 0.00015655 0.00220238 0.00079396    0.0468593 ----
   198   0   0   F    T  1.66D+00 0.00030648 0.00012437 0.00205841 0.00079396    0.0468584 ----
   199   0   0   F    F  9.98D-01 0.00030648 0.00012437 0.00205355 0.00079209    0.0468579 ----
   200   0   0   F    T  2.44D+00 0.00037376 0.00014193 0.00393566 0.00158605    0.0468577 ----
   201   0   0   F    T  2.07D+00 0.00051676 0.00014929 0.00371922 0.00158605    0.0468570 ----
   202   0   0   T    F  5.00D-01 0.00051676 0.00014929 0.00185951 0.00079299    0.0468570 ----
   203   0   0   F    T  2.15D+00 0.00026046 0.00010902 0.00167759 0.00079299    0.0468566 ----
   204   0   0   F    F  4.15D-01 0.00026046 0.00010902 0.00069647 0.00032922    0.0468561 ----
   205   0   0   F    T  1.47D+00 0.00038190 0.00015297 0.00225419 0.00112220    0.0468561 ----
   206   0   0   F    F  1.54D+00 0.00038190 0.00015297 0.00346037 0.00172267    0.0468553 ----
   207   0   0   F    T  2.64D+00 0.00056427 0.00018138 0.00579017 0.00284487    0.0468548 ----
   208   0   0   T    F  3.57D-01 0.00056427 0.00018138 0.00206561 0.00101489    0.0468558 ----
   209   0   0   F    T  2.38D+00 0.00028242 0.00011218 0.00227939 0.00101489    0.0468543 ----
   210   0   0   F    F -2.51D-01 0.00028242 0.00011218 0.00057248 0.00025489    0.0468540 ---+
   211   0   0   F    T  4.10D+00 0.00014655 0.00007101 0.00188702 0.00076000    0.0468540 -+--
   212   0   0   F    F -4.01D-01 0.00014655 0.00007101 0.00075592 0.00030445    0.0468539 -+--
   213   0   0   F    T  1.84D+00 0.00030186 0.00007991 0.00114022 0.00045555    0.0468538 ----
   214   0   0   F    F -3.47D-01 0.00030186 0.00007991 0.00039517 0.00015788    0.0468537 --++
   215   0   0   F    T  1.83D+00 0.00016057 0.00006224 0.00070526 0.00029767    0.0468537 -+-+
   216   0   0   F    T  3.62D+00 0.00010175 0.00004309 0.00067905 0.00029767    0.0468536 ++-+
   217   0   0   F    T  1.00D+00 0.00022644 0.00007875 0.00078191 0.00032822    0.0468535 ----
   218   0   0   T    T  1.00D+00 0.00023187 0.00009154 0.00023187 0.00009154    0.0468536 --++
   219   0   0   F    T  1.89D+00 0.00010866 0.00004955 0.00029142 0.00009154    0.0468535 ====
 ****************************
 MOLECULAR MECHANICS FUNCTION
 ****************************
 Atomic parameters:
 Center  VDW
      1 1.9080 0.0860000
      2 1.7210 0.2104000
      3 1.9080 0.1094000
      4 1.4870 0.0157000
      5 1.4870 0.0157000
      6 1.8750 0.1700000
      7 0.6000 0.0157000
      8 0.6000 0.0157000
      9 1.6612 0.2100000
     10 0.0000 0.0000000
 Molecular mechanics terms:
 NBDir 3 1      0      0
 HrmStr1  1- 2  431.53 1.3510
 HrmStr1  1- 3  294.15 1.5090
 HrmStr1  1- 9  946.08 1.2030
 HrmStr1  2-10  566.76 0.9680
 HrmStr1  3- 4  358.05 1.0960
 HrmStr1  3- 5  358.05 1.0960
 HrmStr1  3- 6  380.82 1.4520
 HrmStr1  6- 7  506.01 1.0110
 HrmStr1  6- 8  506.01 1.0110
 HrmBnd1  1- 2-10  56.55 107.23
 HrmBnd1  1- 3- 4  46.41 106.89
 HrmBnd1  1- 3- 5  46.41 106.89
 HrmBnd1  1- 3- 6  59.93 110.61
 HrmBnd1  2- 1- 3  67.92 111.72
 HrmBnd1  2- 1- 9  91.40 123.02
 HrmBnd1  3- 1- 9  62.83 125.24
 HrmBnd1  3- 6- 7  52.60 110.71
 HrmBnd1  3- 6- 8  52.60 110.71
 HrmBnd1  4- 3- 5  44.68 106.22
 HrmBnd1  4- 3- 6  52.45 112.94
 HrmBnd1  5- 3- 6  52.45 112.94
 HrmBnd1  7- 6- 8  47.09 108.63
 AmbTrs  3- 1- 2-10   0 180   0   0  0.0000 14.5000  0.0000  0.0000  2.0
 AmbTrs  9- 1- 2-10   0   0   0   0  0.0000 14.5000  0.0000  0.0000  2.0
 AmbTrs  2- 1- 3- 4   0   0   0   0  0.0000 14.5000  0.0000  0.0000  6.0
 AmbTrs  2- 1- 3- 5   0   0   0   0  0.0000 14.5000  0.0000  0.0000  6.0
 AmbTrs  2- 1- 3- 6   0   0   0   0  0.0000 14.5000  0.0000  0.0000  6.0
 AmbTrs  9- 1- 3- 4   0   0   0   0  0.0000 14.5000  0.0000  0.0000  6.0
 AmbTrs  9- 1- 3- 5   0   0   0   0  0.0000 14.5000  0.0000  0.0000  6.0
 AmbTrs  9- 1- 3- 6   0   0   0   0  0.0000 14.5000  0.0000  0.0000  6.0
 AmbTrs  1- 3- 6- 7   0 180   0   0  0.0000 25.6300  0.0000  0.0000  6.0
 AmbTrs  1- 3- 6- 8   0 180   0   0  0.0000 25.6300  0.0000  0.0000  6.0
 AmbTrs  4- 3- 6- 7   0   0   0   0  0.0000 16.9300  0.0000  0.0000  6.0
 AmbTrs  4- 3- 6- 8   0   0   0   0  0.0000 16.9300  0.0000  0.0000  6.0
 AmbTrs  5- 3- 6- 7   0   0   0   0  0.0000 16.9300  0.0000  0.0000  6.0
 AmbTrs  5- 3- 6- 8   0   0   0   0  0.0000 16.9300  0.0000  0.0000  6.0
 NBPair  2- 1 3 1      0      0 -1.000 -1.000
 NBPair  3- 2 3 1      0      0 -1.000 -1.000
 NBPair 10- 3 3 1      0      0 -0.500 -0.167
 NBPair  9- 2 3 1      0      0 -1.000 -1.000
 NBPair 10- 9 3 1      0      0 -0.500 -0.167
 NBPair  3- 1 3 1      0      0 -1.000 -1.000
 NBPair  4- 2 3 1      0      0 -0.500 -0.167
 NBPair  5- 2 3 1      0      0 -0.500 -0.167
 NBPair  6- 2 3 1      0      0 -0.500 -0.167
 NBPair  9- 3 3 1      0      0 -1.000 -1.000
 NBPair  9- 4 3 1      0      0 -0.500 -0.167
 NBPair  9- 5 3 1      0      0 -0.500 -0.167
 NBPair  9- 6 3 1      0      0 -0.500 -0.167
 NBPair  9- 1 3 1      0      0 -1.000 -1.000
 NBPair 10- 1 3 1      0      0 -1.000 -1.000
 NBPair 10- 2 3 1      0      0 -1.000 -1.000
 NBPair  4- 1 3 1      0      0 -1.000 -1.000
 NBPair  5- 1 3 1      0      0 -1.000 -1.000
 NBPair  6- 1 3 1      0      0 -1.000 -1.000
 NBPair  4- 3 3 1      0      0 -1.000 -1.000
 NBPair  5- 4 3 1      0      0 -1.000 -1.000
 NBPair  6- 4 3 1      0      0 -1.000 -1.000
 NBPair  5- 3 3 1      0      0 -1.000 -1.000
 NBPair  6- 5 3 1      0      0 -1.000 -1.000
 NBPair  6- 3 3 1      0      0 -1.000 -1.000
 NBPair  7- 1 3 1      0      0 -0.500 -0.167
 NBPair  8- 1 3 1      0      0 -0.500 -0.167
 NBPair  7- 4 3 1      0      0 -0.500 -0.167
 NBPair  8- 4 3 1      0      0 -0.500 -0.167
 NBPair  7- 5 3 1      0      0 -0.500 -0.167
 NBPair  8- 5 3 1      0      0 -0.500 -0.167
 NBPair  7- 3 3 1      0      0 -1.000 -1.000
 NBPair  8- 3 3 1      0      0 -1.000 -1.000
 NBPair  7- 6 3 1      0      0 -1.000 -1.000
 NBPair  8- 7 3 1      0      0 -1.000 -1.000
 NBPair  8- 6 3 1      0      0 -1.000 -1.000
 Energy per function type:
 Direct Coulomb + vdW (small)                           0.003548240
 Direct Coulomb (large)                                -0.130156941
 Direct vdW (large)                                   268.913814340
 Non-direct Coulomb + vdW (small)                      -0.012827650
 Non-direct Coulomb (large)                             0.138022423
 Non-direct vdW (large)                              -268.913814340
 Harmonic stretch I                                     0.000138008
 Harmonic bend I                                        0.009826567
 Amber torsion                                          0.038302824
 Energy per function class:
        Coulomb              -0.003054601
    Vanderwaals               0.001640673
     Stretching               0.000138008
        Bending               0.009826567
        Torsion               0.038302824
 Energy=    4.685347020E-02 NIter=   0.
 Dipole moment=       0.096710       0.635002       0.411581
 Leave Link  402 at Tue Nov 28 09:32:14 2023, MaxMem=   134217728 cpu:               0.3 elap:               0.3
 (Enter /home/emanuele/chem_software/gaussian//gdv/l716.exe)
 Dipole        = 9.67100612D-02 6.35002333D-01 4.11580679D-01
 -------------------------------------------------------------------
 Center     Atomic                   Forces (Hartrees/Bohr)
 Number     Number              X              Y              Z
 -------------------------------------------------------------------
      1        6          -0.000004809    0.000096955   -0.000043291
      2        8           0.000104840   -0.000016633    0.000049345
      3        6          -0.000078048   -0.000009109    0.000072240
      4        1           0.000005527   -0.000021326   -0.000028954
      5        1          -0.000019727    0.000018102    0.000015669
      6        7          -0.000046486   -0.000091093   -0.000108658
      7        1           0.000006364    0.000040060    0.000038201
      8        1           0.000058376    0.000038575    0.000000137
      9        8           0.000017264   -0.000048404   -0.000005673
     10        1          -0.000043301   -0.000007127    0.000010983
 -------------------------------------------------------------------
 Cartesian Forces:  Max     0.000108658 RMS     0.000049553
 Z-matrix is all fixed cartesians, so copy forces.
 Leave Link  716 at Tue Nov 28 09:32:14 2023, MaxMem=   134217728 cpu:               0.0 elap:               0.0
 (Enter /home/emanuele/chem_software/gaussian//gdv/l103.exe)

 GradGradGradGradGradGradGradGradGradGradGradGradGradGradGradGradGradGrad
 Berny optimization.
 Search for a local minimum.
 Step number   1 out of a maximum of    2
 All quantities printed in internal units (Hartrees-Bohrs-Radians)
 RMS Force = .49553D-04 SwitMx=.10000D-02 MixMth= 2
 Mixed Optimization -- En-DIIS/RFO-DIIS
 Second derivative matrix not updated -- unit matrix used.
 ITU=  0
 RFO step:  Lambda=-7.36652309D-08 EMin= 1.00000000D+00
 Linear search not attempted -- first point.
 Variable       Old X    -DE/DX   Delta X   Delta X   Delta X     New X
                                 (Linear)    (Quad)   (Total)
    X1       -1.30307  -0.00000   0.00000  -0.00000  -0.00000  -1.30308
    Y1       -0.70673   0.00010   0.00000   0.00010   0.00010  -0.70663
    Z1        0.45371  -0.00004   0.00000  -0.00004  -0.00004   0.45367
    X2       -1.99371   0.00010   0.00000   0.00010   0.00010  -1.99360
    Y2        0.82169  -0.00002   0.00000  -0.00002  -0.00002   0.82167
    Z2       -1.47064   0.00005   0.00000   0.00005   0.00005  -1.47059
    X3        1.33714  -0.00008   0.00000  -0.00008  -0.00008   1.33706
    Y3        0.03179  -0.00001   0.00000  -0.00001  -0.00001   0.03178
    Z3        1.32738   0.00007   0.00000   0.00007   0.00007   1.32745
    X4        1.17836   0.00001   0.00000   0.00001   0.00001   1.17836
    Y4        2.05808  -0.00002   0.00000  -0.00002  -0.00002   2.05806
    Z4        1.73375  -0.00003   0.00000  -0.00003  -0.00003   1.73372
    X5        1.50188  -0.00002   0.00000  -0.00002  -0.00002   1.50186
    Y5       -0.92897   0.00002   0.00000   0.00002   0.00002  -0.92895
    Z5        3.15584   0.00002   0.00000   0.00002   0.00002   3.15585
    X6        3.26424  -0.00005   0.00000  -0.00005  -0.00005   3.26419
    Y6       -0.65408  -0.00009   0.00000  -0.00009  -0.00009  -0.65417
    Z6       -0.52651  -0.00011   0.00000  -0.00011  -0.00011  -0.52662
    X7        2.76754   0.00001   0.00000   0.00001   0.00001   2.76755
    Y7       -1.68042   0.00004   0.00000   0.00004   0.00004  -1.68038
    Z7       -2.06201   0.00004   0.00000   0.00004   0.00004  -2.06197
    X8        5.11689   0.00006   0.00000   0.00006   0.00006   5.11695
    Y8       -0.46729   0.00004   0.00000   0.00004   0.00004  -0.46725
    Z8       -0.09775   0.00000   0.00000   0.00000   0.00000  -0.09775
    X9       -1.84657   0.00002   0.00000   0.00002   0.00002  -1.84656
    Y9       -2.91104  -0.00005   0.00000  -0.00005  -0.00005  -2.91108
    Z9        0.35913  -0.00001   0.00000  -0.00001  -0.00001   0.35912
   X10       -3.82057  -0.00004   0.00000  -0.00004  -0.00004  -3.82061
   Y10        0.80191  -0.00001   0.00000  -0.00001  -0.00001   0.80190
   Z10       -1.50294   0.00001   0.00000   0.00001   0.00001  -1.50293
         Item               Value     Threshold  Converged?
 Maximum Force            0.000109     0.000450     YES
 RMS     Force            0.000050     0.000300     YES
 Maximum Displacement     0.000109     0.001800     YES
 RMS     Displacement     0.000050     0.001200     YES
 Predicted change in Energy=-3.683261D-08
 Optimization completed.
    -- Stationary point found.
 Largest change from initial coordinates is atom    9       0.822 Angstoms.
 GradGradGradGradGradGradGradGradGradGradGradGradGradGradGradGradGradGrad

 Leave Link  103 at Tue Nov 28 09:32:14 2023, MaxMem=   134217728 cpu:               0.0 elap:               0.0
 (Enter /home/emanuele/chem_software/gaussian//gdv/l202.exe)
                          Input orientation:                          
 ---------------------------------------------------------------------
 Center     Atomic      Atomic             Coordinates (Angstroms)
 Number     Number       Type             X           Y           Z
 ---------------------------------------------------------------------
      1          6    20001002       -0.689557   -0.373984    0.240096
      2          8    20001022       -1.055024    0.434820   -0.778229
      3          6    20001001        0.707584    0.016821    0.702420
      4          1    20001034        0.623559    1.089091    0.917460
      5          1    20001034        0.794763   -0.491591    1.669997
      6          7    20001020        1.727361   -0.346125   -0.278617
      7          1    20001029        1.464519   -0.889238   -1.091168
      8          1    20001029        2.707744   -0.247279   -0.051729
      9          8    20001025       -0.977165   -1.540454    0.190043
     10          1    20001031       -2.021759    0.424350   -0.795322
 ---------------------------------------------------------------------
                    Distance matrix (angstroms):
                    1          2          3          4          5
     1  C    0.000000
     2  O    1.350820   0.000000
     3  C    1.522654   2.339622   0.000000
     4  H    2.079347   2.474080   1.096843   0.000000
     5  H    2.064377   3.205270   1.096489   1.759028   0.000000
     6  N    2.472111   2.932773   1.460859   2.169982   2.165178
     7  H    2.584142   2.863417   2.147289   2.942037   2.868924
     8  H    3.412164   3.892490   2.153863   2.658766   2.585251
     9  O    1.202445   2.201208   2.350748   3.163220   2.535765
    10  H    1.866598   0.966943   3.139844   3.220747   3.853510
                    6          7          8          9         10
     6  N    0.000000
     7  H    1.012075   0.000000
     8  H    1.011137   1.743030   0.000000
     9  O    2.993414   2.833267   3.912711   0.000000
    10  H    3.862191   3.737268   4.834481   2.433634   0.000000
 Symmetry turned off by external request.
 Stoichiometry    C2H5NO2
 Framework group  C1[X(C2H5NO2)]
 Deg. of freedom    24
 Full point group                 C1      NOp   1
 Rotational constants (GHZ):           8.5777211           4.2180622           3.4986086
 Leave Link  202 at Tue Nov 28 09:32:14 2023, MaxMem=   134217728 cpu:               0.0 elap:               0.0
 (Enter /home/emanuele/chem_software/gaussian//gdv/l9999.exe)
 Unable to Open any file for archive entry.
 1\1\GINC-EMANUELE-XPS-13-9343\FOpt\AMBER\ZDO\C2H5N1O2\EMANUELE\28-Nov-
 2023\0\\#p Amber=(SoftFirst,Print) geom=nocrowd nosymm opt=(maxcycle=3
 00)\\Title\\0,1\C,-0.6895565746,-0.3739844171,0.2400955122\O,-1.055023
 9646,0.4348198718,-0.7782289258\C,0.7075840594,0.016821331,0.702420195
 \H,0.6235592555,1.0890911323,0.9174598257\H,0.7947630434,-0.4915913274
 ,1.6699965084\N,1.7273613703,-0.3461247843,-0.278616798\H,1.4645189059
 ,-0.889237518,-1.0911678246\H,2.7077436312,-0.247278701,-0.0517286742\
 O,-0.9771650013,-1.5404535787,0.1900429515\H,-2.0217587255,0.424349991
 7,-0.79532177\\Version=ES64L-GDVRevJ.14\HF=0.0468535\RMSD=0.000e+00\RM
 SF=4.955e-05\Dipole=0.0967101,0.6350023,0.4115807\PG=C01 [X(C2H5N1O2)]
 \\@
 The archive entry for this job was punched.


 I DO NOT DEFINE TIME, SPACE, PLACE, AND MOTION, AS BEING WELL KNOWN TO ALL.
                                            -- NEWTON (1642-1726), PRINCIPIA
 Job cpu time:       0 days  0 hours  0 minutes  0.8 seconds.
 Elapsed time:       0 days  0 hours  0 minutes  0.8 seconds.
 File lengths (MBytes):  RWF=      6 Int=      0 D2E=      0 Chk=      1 Scr=      1
 Normal termination of Gaussian DV at Tue Nov 28 09:32:14 2023.
