 Entering Gaussian System, Link 0=/home/emanuele/chem_software/gaussian//g09/g09
 Input=5_zmat_qm.gjf
 Output=5_zmat_qm.log
 Initial command:
 /home/emanuele/chem_software/gaussian//gdv/l1.exe "/home/emanuele/chem_software/gaussian/scratch/Gau-17133.inp" -scrdir="/home/emanuele/chem_software/gaussian/scratch/"
 Entering Link 1 = /home/emanuele/chem_software/gaussian//gdv/l1.exe PID=     17135.
  
 Copyright (c) 1988-2020, Gaussian, Inc.  All Rights Reserved.
  
 This is the private, development version of
 the Gaussian(R) DV system of programs. It is based on
 the Gaussian(R) 16 system (copyright 2016, Gaussian, Inc.),
 the Gaussian(R) 09 system (copyright 2009, Gaussian, Inc.),
 the Gaussian(R) 03 system (copyright 2003, Gaussian, Inc.),
 the Gaussian(R) 98 system (copyright 1998, Gaussian, Inc.),
 the Gaussian(R) 94 system (copyright 1995, Gaussian, Inc.),
 the Gaussian 92(TM) system (copyright 1992, Gaussian, Inc.),
 the Gaussian 90(TM) system (copyright 1990, Gaussian, Inc.),
 the Gaussian 88(TM) system (copyright 1988, Gaussian, Inc.),
 the Gaussian 86(TM) system (copyright 1986, Carnegie Mellon
 University), and the Gaussian 82(TM) system (copyright 1983,
 Carnegie Mellon University). Gaussian is a federally registered
 trademark of Gaussian, Inc.
  
 This software contains proprietary and confidential information,
 including trade secrets, belonging to Gaussian, Inc.
  
 This software is provided under written license and may be
 used, copied, transmitted, or stored only in accord with that
 written license.
  
 The following legend is applicable only to US Government
 contracts under FAR:
  
                    RESTRICTED RIGHTS LEGEND
  
 Use, reproduction and disclosure by the US Government is
 subject to restrictions as set forth in subparagraphs (a)
 and (c) of the Commercial Computer Software - Restricted
 Rights clause in FAR 52.227-19.
  
 Gaussian, Inc.
 340 Quinnipiac St., Bldg. 40, Wallingford CT 06492
  
  
 ---------------------------------------------------------------
 Warning -- This program may not be used in any manner that
 competes with the business of Gaussian, Inc. or will provide
 assistance to any competitor of Gaussian, Inc.  The licensee
 of this program is prohibited from giving any competitor of
 Gaussian, Inc. access to this program.  By using this program,
 the user acknowledges that Gaussian, Inc. is engaged in the
 business of creating and licensing software in the field of
 computational chemistry and represents and warrants to the
 licensee that it is not a competitor of Gaussian, Inc. and that
 it will not use this program in any manner prohibited above.
 ---------------------------------------------------------------
  

 Cite this work as:
 Gaussian Development Version, Revision J.14,
 M. J. Frisch, G. W. Trucks, H. B. Schlegel, G. E. Scuseria, 
 M. A. Robb, J. R. Cheeseman, G. Scalmani, V. Barone, 
 G. A. Petersson, H. Nakatsuji, X. Li, A. V. Marenich, M. Caricato, 
 J. Bloino, B. G. Janesko, J. Zheng, R. Gomperts, B. Mennucci, 
 H. P. Hratchian, J. V. Ortiz, A. F. Izmaylov, J. L. Sonnenberg, 
 D. Williams-Young, F. Ding, F. Lipparini, F. Egidi, J. Goings, 
 B. Peng, A. Petrone, T. Henderson, D. Ranasinghe, V. G. Zakrzewski, 
 J. Gao, N. Rega, G. Zheng, W. Liang, M. Hada, M. Ehara, K. Toyota, 
 R. Fukuda, J. Hasegawa, M. Ishida, T. Nakajima, Y. Honda, O. Kitao, 
 H. Nakai, T. Vreven, K. Throssell, J. A. Montgomery, Jr., 
 J. E. Peralta, F. Ogliaro, M. J. Bearpark, J. J. Heyd, 
 E. N. Brothers, K. N. Kudin, V. N. Staroverov, T. A. Keith, 
 R. Kobayashi, J. Normand, K. Raghavachari, A. P. Rendell, 
 J. C. Burant, S. S. Iyengar, J. Tomasi, M. Cossi, J. M. Millam, 
 M. Klene, C. Adamo, R. Cammi, J. W. Ochterski, R. L. Martin, 
 K. Morokuma, O. Farkas, J. B. Foresman, and D. J. Fox, 
 Gaussian, Inc., Wallingford CT, 2020.
 
 ******************************************
 Gaussian DV:  ES64L-GDVRevJ.14 29-Dec-2020
                25-Nov-2023 
 ******************************************
 %mem=1GB
 %nprocshared=4
 Will use up to    4 processors via shared memory.
 %chk=5_zmat_qm.chk
 ----------------------------------------------------------
 #p nosymm geom=nocrowd opt=(modredundant,maxcycle=100) PM6
 ----------------------------------------------------------
 1/6=100,18=120,19=15,26=1,37=210000000,38=1/1,3;
 2/9=110,12=1,15=1,40=1/2;
 3/5=2,25=1,41=3900000,71=1/1,2,3;
 4/35=1/1;
 5/5=2,35=1,38=5/2;
 6/7=2,8=2,9=2,10=2,28=1/1;
 7/30=1/1,2,3,16;
 1/6=100,18=20,19=15,26=1/3(2);
 2/9=110,12=1,15=1/2;
 99//99;
 2/9=110,12=1,15=1/2;
 3/5=2,25=1,41=3900000,71=1,135=20/1,2,3;
 4/5=5,16=3,35=1/1;
 5/5=2,35=1,38=5/2;
 7/30=1/1,2,3,16;
 1/6=100,18=20,19=15,26=1/3(-5);
 2/9=110,12=1,15=1/2;
 6/7=2,8=2,9=2,10=2,19=2,28=1/1;
 99/9=1/99;
 Leave Link    1 at Sat Nov 25 14:44:31 2023, MaxMem=   134217728 cpu:               0.2 elap:               0.1
 (Enter /home/emanuele/chem_software/gaussian//gdv/l101.exe)
 -----
 Title
 -----
 Symbolic Z-matrix:
 Charge =  0 Multiplicity = 1
 C                    -0.53685   0.10417   0.01464 
 O                    -1.63632  -0.67637  -0.06827 
 C                     0.72601  -0.7177    0.10528 
 H                     0.71699  -1.15712   1.11445 
 H                     0.64338  -1.5538   -0.59228 
 N                     1.88901   0.09773  -0.1951 
 H                     1.74816   1.04081   0.14593 
 H                     2.72354  -0.27843   0.23189 
 O                    -0.58681   1.30563   0.04628 
 H                    -2.40509  -0.08851  -0.07785 
 
 The following ModRedundant input section has been read:
 D       4       3       6       7 S  10 36.000                                
 
 ITRead=  0  0  0  0  0  0  0  0  0  0
 MicOpt= -1 -1 -1 -1 -1 -1 -1 -1 -1 -1
 NAtoms=     10 NQM=       10 NQMF=       0 NMMI=      0 NMMIF=      0
                NMic=       0 NMicF=      0.
                    Isotopes and Nuclear Properties:
 (Nuclear quadrupole moments (NQMom) in fm**2, nuclear magnetic moments (NMagM)
  in nuclear magnetons)

  Atom         1           2           3           4           5           6           7           8           9          10
 IAtWgt=          12          16          12           1           1          14           1           1          16           1
 AtmWgt=  12.0000000  15.9949146  12.0000000   1.0078250   1.0078250  14.0030740   1.0078250   1.0078250  15.9949146   1.0078250
 NucSpn=           0           0           0           1           1           2           1           1           0           1
 AtZEff=  -0.0000000  -0.0000000  -0.0000000  -0.0000000  -0.0000000  -0.0000000  -0.0000000  -0.0000000  -0.0000000  -0.0000000
 NQMom=    0.0000000   0.0000000   0.0000000   0.0000000   0.0000000   2.0440000   0.0000000   0.0000000   0.0000000   0.0000000
 NMagM=    0.0000000   0.0000000   0.0000000   2.7928460   2.7928460   0.4037610   2.7928460   2.7928460   0.0000000   2.7928460
 AtZNuc=   6.0000000   8.0000000   6.0000000   1.0000000   1.0000000   7.0000000   1.0000000   1.0000000   8.0000000   1.0000000
 Leave Link  101 at Sat Nov 25 14:44:32 2023, MaxMem=   134217728 cpu:               0.9 elap:               0.3
 (Enter /home/emanuele/chem_software/gaussian//gdv/l103.exe)

 GradGradGradGradGradGradGradGradGradGradGradGradGradGradGradGradGradGrad
 Berny optimization.
 Initialization pass.
                           ----------------------------
                           !    Initial Parameters    !
                           ! (Angstroms and Degrees)  !
 --------------------------                            --------------------------
 ! Name  Definition              Value          Derivative Info.                !
 --------------------------------------------------------------------------------
 ! R1    R(1,2)                  1.3509         estimate D2E/DX2                !
 ! R2    R(1,3)                  1.5095         estimate D2E/DX2                !
 ! R3    R(1,9)                  1.2029         estimate D2E/DX2                !
 ! R4    R(2,10)                 0.9678         estimate D2E/DX2                !
 ! R5    R(3,4)                  1.1007         estimate D2E/DX2                !
 ! R6    R(3,5)                  1.092          estimate D2E/DX2                !
 ! R7    R(3,6)                  1.4518         estimate D2E/DX2                !
 ! R8    R(6,7)                  1.0127         estimate D2E/DX2                !
 ! R9    R(6,8)                  1.0101         estimate D2E/DX2                !
 ! A1    A(2,1,3)              111.7154         estimate D2E/DX2                !
 ! A2    A(2,1,9)              123.0182         estimate D2E/DX2                !
 ! A3    A(3,1,9)              125.2388         estimate D2E/DX2                !
 ! A4    A(1,2,10)             107.2257         estimate D2E/DX2                !
 ! A5    A(1,3,4)              105.4003         estimate D2E/DX2                !
 ! A6    A(1,3,5)              108.3736         estimate D2E/DX2                !
 ! A7    A(1,3,6)              110.6071         estimate D2E/DX2                !
 ! A8    A(4,3,5)              106.2232         estimate D2E/DX2                !
 ! A9    A(4,3,6)              114.8648         estimate D2E/DX2                !
 ! A10   A(5,3,6)              111.0079         estimate D2E/DX2                !
 ! A11   A(3,6,7)              109.9968         estimate D2E/DX2                !
 ! A12   A(3,6,8)              111.4207         estimate D2E/DX2                !
 ! A13   A(7,6,8)              108.6253         estimate D2E/DX2                !
 ! D1    D(3,1,2,10)           177.195          estimate D2E/DX2                !
 ! D2    D(9,1,2,10)            -0.9857         estimate D2E/DX2                !
 ! D3    D(2,1,3,4)            -71.8288         estimate D2E/DX2                !
 ! D4    D(2,1,3,5)             41.552          estimate D2E/DX2                !
 ! D5    D(2,1,3,6)            163.4539         estimate D2E/DX2                !
 ! D6    D(9,1,3,4)            106.3034         estimate D2E/DX2                !
 ! D7    D(9,1,3,5)           -140.3158         estimate D2E/DX2                !
 ! D8    D(9,1,3,6)            -18.4139         estimate D2E/DX2                !
 ! D9    D(1,3,6,7)             34.6533         estimate D2E/DX2                !
 ! D10   D(1,3,6,8)            155.1742         estimate D2E/DX2                !
 ! D11   D(4,3,6,7)            -84.4877         Scan                            !
 ! D12   D(4,3,6,8)             36.0331         estimate D2E/DX2                !
 ! D13   D(5,3,6,7)            154.9936         estimate D2E/DX2                !
 ! D14   D(5,3,6,8)            -84.4855         estimate D2E/DX2                !
 --------------------------------------------------------------------------------
 Trust Radius=3.00D-01 FncErr=1.00D-07 GrdErr=1.00D-07 EigMax=2.50D+02 EigMin=1.00D-04
 Number of optimizations in scan=  11
 Number of steps in this run=    100 maximum allowed number of steps=    100.
 GradGradGradGradGradGradGradGradGradGradGradGradGradGradGradGradGradGrad

 Leave Link  103 at Sat Nov 25 14:44:32 2023, MaxMem=   134217728 cpu:               0.0 elap:               0.0
 (Enter /home/emanuele/chem_software/gaussian//gdv/l202.exe)
                          Input orientation:                          
 ---------------------------------------------------------------------
 Center     Atomic      Atomic             Coordinates (Angstroms)
 Number     Number       Type             X           Y           Z
 ---------------------------------------------------------------------
      1          6           0       -0.536850    0.104174    0.014636
      2          8           0       -1.636322   -0.676373   -0.068268
      3          6           0        0.726013   -0.717700    0.105280
      4          1           0        0.716994   -1.157121    1.114447
      5          1           0        0.643380   -1.553795   -0.592281
      6          7           0        1.889013    0.097733   -0.195097
      7          1           0        1.748159    1.040807    0.145925
      8          1           0        2.723536   -0.278432    0.231888
      9          8           0       -0.586810    1.305633    0.046275
     10          1           0       -2.405088   -0.088514   -0.077854
 ---------------------------------------------------------------------
                    Distance matrix (angstroms):
                    1          2          3          4          5
     1  C    0.000000
     2  O    1.350913   0.000000
     3  C    1.509475   2.369062   0.000000
     4  H    2.091070   2.677318   1.100723   0.000000
     5  H    2.123712   2.498299   1.092005   1.753764   0.000000
     6  N    2.434921   3.611553   1.451801   2.159443   2.106395
     7  H    2.473011   3.801223   2.034400   2.613852   2.915038
     8  H    3.289940   4.388258   2.049167   2.361613   2.575433
     9  O    1.202913   2.245650   2.412646   2.984301   3.177648
    10  H    1.880424   0.967818   3.198938   3.508689   3.421234
                    6          7          8          9         10
     6  N    0.000000
     7  H    1.012682   0.000000
     8  H    1.010072   1.642906   0.000000
     9  O    2.765318   2.352051   3.674521   0.000000
    10  H    4.299737   4.309861   5.141478   2.294600   0.000000
 Symmetry turned off by external request.
 Stoichiometry    C2H5NO2
 Framework group  C1[X(C2H5NO2)]
 Deg. of freedom    24
 Full point group                 C1      NOp   1
 Rotational constants (GHZ):          10.4489861           3.9571341           2.9518000
 Leave Link  202 at Sat Nov 25 14:44:32 2023, MaxMem=   134217728 cpu:               0.1 elap:               0.0
 (Enter /home/emanuele/chem_software/gaussian//gdv/l301.exe)
 Standard basis: VSTO-6G (5D, 7F)
 Ernie: Thresh=  0.10000D-02 Tol=  0.10000D-05 Strict=F.
  NNHCO=     0 NNPyr=     0 NCTC=     0               EPep=         0.000000000
    EC=        84.002832998  ECS=         2.253874644   EG=         0.126211539
   EHC=         0.001112369  EAt=       -38.066560349  AtH=         1.329713788
 EPDDG=         0.000000000  ECC=        86.384031549 EAtT=        39.396274136
    25 basis functions,   150 primitive gaussians,    25 cartesian basis functions
    15 alpha electrons       15 beta electrons
       nuclear repulsion energy       125.7803056858 Hartrees.
 IExCor=       0 DFT=F Ex=HF Corr=None N6=None ScaHFX=  1.000000
 ScaDFX=  1.000000  1.000000  1.000000  1.000000  1.000000  0.000000
 ScaDFX=  0.000000  0.000000  0.000000  0.000000  0.000000  0.000000
 IRadAn=      5 IRanWt=     -1 IRanGd=            0 ICorTp=0 IEmpDi=  4
 Integral buffers will be    131072 words long.
 Regular integral format.
 Two-electron integral symmetry is turned off.
 Leave Link  301 at Sat Nov 25 14:44:32 2023, MaxMem=   134217728 cpu:               0.2 elap:               0.1
 (Enter /home/emanuele/chem_software/gaussian//gdv/l302.exe)
 Do NDO integrals.
 NPDir=0 NMtPBC=     1 NCelOv=     1 NCel=       1 NClECP=     1 NCelD=      1
         NCelK=      1 NCelE2=     1 NClLst=     1 CellRange=     0.0.
 One-electron integrals computed using PRISM.
 NBasis=    25 RedAO= F EigKep=  0.00D+00  NBF=    25
 NBsUse=    25 1.00D-04 EigRej=  0.00D+00 NBFU=    25
 Leave Link  302 at Sat Nov 25 14:44:32 2023, MaxMem=   134217728 cpu:               0.3 elap:               0.1
 (Enter /home/emanuele/chem_software/gaussian//gdv/l303.exe)
 DipDrv:  MaxL=1.
 Leave Link  303 at Sat Nov 25 14:44:32 2023, MaxMem=   134217728 cpu:               0.1 elap:               0.0
 (Enter /home/emanuele/chem_software/gaussian//gdv/l401.exe)
 Simple Huckel Guess.
 JPrj=0 DoOrth=F DoCkMO=F.
 Leave Link  401 at Sat Nov 25 14:44:32 2023, MaxMem=   134217728 cpu:               0.2 elap:               0.0
 (Enter /home/emanuele/chem_software/gaussian//gdv/l502.exe)
 Keep J ints in memory in canonical form, NReq=861126.
 FoFCou: FMM=F IPFlag=           0 FMFlag=           0 FMFlg1=           0
         NFxFlg=           0 DoJE=F BraDBF=F KetDBF=F FulRan=T
         wScrn=  0.000000 ICntrl=       600 IOpCl=  2 I1Cent=           0 NGrid=           0
         NMat0=    1 NMatS0=     55 NMatT0=    0 NMatD0=    1 NMtDS0=    0 NMtDT0=    0
 Symmetry not used in FoFCou.
 Two-electron integral symmetry not used.
 Closed shell SCF:
 Using DIIS extrapolation, IDIIS=  1040.
 Overlap will be assumed to be unity.
 NGot=   134217728 LenX=   134155015 LenY=   134153949
 Requested convergence on RMS density matrix=1.00D-08 within 128 cycles.
 Requested convergence on MAX density matrix=1.00D-06.
 Requested convergence on             energy=1.00D-06.
 No special actions if energy rises.

 Cycle   1  Pass 1  IDiag  1:
 E= 0.171768323968593    
 DIIS: error= 5.87D-02 at cycle   1 NSaved=   1.
 NSaved= 1 IEnMin= 1 EnMin= 0.171768323968593     IErMin= 1 ErrMin= 5.87D-02
 ErrMax= 5.87D-02  0.00D+00 EMaxC= 1.00D-01 BMatC= 8.86D-02 BMatP= 8.86D-02
 IDIUse=3 WtCom= 4.13D-01 WtEn= 5.87D-01
 Coeff-Com:  0.100D+01
 Coeff-En:   0.100D+01
 Coeff:      0.100D+01
 GapD=    2.000 DampG=2.000 DampE=0.500 DampFc=1.0000 IDamp=-1.
 RMSDP=1.97D-02 MaxDP=1.61D-01              OVMax= 0.00D+00

 Cycle   2  Pass 1  IDiag  1:
 E=-0.907243624587153E-01 Delta-E=       -0.262492686427 Rises=F Damp=F
 DIIS: error= 1.89D-02 at cycle   2 NSaved=   2.
 NSaved= 2 IEnMin= 2 EnMin=-0.907243624587153E-01 IErMin= 2 ErrMin= 1.89D-02
 ErrMax= 1.89D-02  0.00D+00 EMaxC= 1.00D-01 BMatC= 1.04D-02 BMatP= 8.86D-02
 IDIUse=3 WtCom= 8.11D-01 WtEn= 1.89D-01
 Coeff-Com: -0.330D+00 0.133D+01
 Coeff-En:   0.000D+00 0.100D+01
 Coeff:     -0.268D+00 0.127D+01
 RMSDP=9.09D-03 MaxDP=5.88D-02 DE=-2.62D-01 OVMax= 0.00D+00

 Cycle   3  Pass 1  IDiag  3:
 E=-0.131686604490383     Delta-E=       -0.040962242032 Rises=F Damp=F
 DIIS: error= 5.72D-03 at cycle   3 NSaved=   3.
 NSaved= 3 IEnMin= 3 EnMin=-0.131686604490383     IErMin= 3 ErrMin= 5.72D-03
 ErrMax= 5.72D-03  0.00D+00 EMaxC= 1.00D-01 BMatC= 9.51D-04 BMatP= 1.04D-02
 IDIUse=3 WtCom= 9.43D-01 WtEn= 5.72D-02
 Coeff-Com:  0.114D+00-0.663D+00 0.155D+01
 Coeff-En:   0.000D+00 0.000D+00 0.100D+01
 Coeff:      0.108D+00-0.625D+00 0.152D+01
 Gap=     0.372 Goal=   None    Shift=    0.000
 RMSDP=4.00D-03 MaxDP=3.01D-02 DE=-4.10D-02 OVMax= 2.54D-02

 Cycle   4  Pass 1  IDiag  3:
 E=-0.136696101732383     Delta-E=       -0.005009497242 Rises=F Damp=F
 DIIS: error= 1.40D-03 at cycle   4 NSaved=   4.
 NSaved= 4 IEnMin= 4 EnMin=-0.136696101732383     IErMin= 4 ErrMin= 1.40D-03
 ErrMax= 1.40D-03  0.00D+00 EMaxC= 1.00D-01 BMatC= 4.28D-05 BMatP= 9.51D-04
 IDIUse=3 WtCom= 9.86D-01 WtEn= 1.40D-02
 Coeff-Com: -0.400D-01 0.258D+00-0.755D+00 0.154D+01
 Coeff-En:   0.000D+00 0.000D+00 0.000D+00 0.100D+01
 Coeff:     -0.394D-01 0.254D+00-0.745D+00 0.153D+01
 Gap=     0.372 Goal=   None    Shift=    0.000
 RMSDP=1.04D-03 MaxDP=9.03D-03 DE=-5.01D-03 OVMax= 7.57D-03

 Cycle   5  Pass 1  IDiag  3:
 E=-0.136963559301549     Delta-E=       -0.000267457569 Rises=F Damp=F
 DIIS: error= 1.91D-04 at cycle   5 NSaved=   5.
 NSaved= 5 IEnMin= 5 EnMin=-0.136963559301549     IErMin= 5 ErrMin= 1.91D-04
 ErrMax= 1.91D-04  0.00D+00 EMaxC= 1.00D-01 BMatC= 1.66D-06 BMatP= 4.28D-05
 IDIUse=3 WtCom= 9.98D-01 WtEn= 1.91D-03
 Coeff-Com:  0.842D-02-0.624D-01 0.208D+00-0.597D+00 0.144D+01
 Coeff-En:   0.000D+00 0.000D+00 0.000D+00 0.000D+00 0.100D+01
 Coeff:      0.840D-02-0.622D-01 0.208D+00-0.596D+00 0.144D+01
 Gap=     0.372 Goal=   None    Shift=    0.000
 RMSDP=2.12D-04 MaxDP=1.77D-03 DE=-2.67D-04 OVMax= 1.33D-03

 Cycle   6  Pass 1  IDiag  3:
 E=-0.136973636601908     Delta-E=       -0.000010077300 Rises=F Damp=F
 DIIS: error= 3.70D-05 at cycle   6 NSaved=   6.
 NSaved= 6 IEnMin= 6 EnMin=-0.136973636601908     IErMin= 6 ErrMin= 3.70D-05
 ErrMax= 3.70D-05  0.00D+00 EMaxC= 1.00D-01 BMatC= 5.72D-08 BMatP= 1.66D-06
 IDIUse=1 WtCom= 1.00D+00 WtEn= 0.00D+00
 Coeff-Com: -0.207D-02 0.176D-01-0.620D-01 0.206D+00-0.642D+00 0.148D+01
 Coeff:     -0.207D-02 0.176D-01-0.620D-01 0.206D+00-0.642D+00 0.148D+01
 Gap=     0.372 Goal=   None    Shift=    0.000
 RMSDP=3.64D-05 MaxDP=2.48D-04 DE=-1.01D-05 OVMax= 2.53D-04

 Cycle   7  Pass 1  IDiag  3:
 E=-0.136973965269405     Delta-E=       -0.000000328667 Rises=F Damp=F
 DIIS: error= 5.99D-06 at cycle   7 NSaved=   7.
 NSaved= 7 IEnMin= 7 EnMin=-0.136973965269405     IErMin= 7 ErrMin= 5.99D-06
 ErrMax= 5.99D-06  0.00D+00 EMaxC= 1.00D-01 BMatC= 2.51D-09 BMatP= 5.72D-08
 IDIUse=1 WtCom= 1.00D+00 WtEn= 0.00D+00
 Coeff-Com:  0.699D-03-0.607D-02 0.203D-01-0.682D-01 0.223D+00-0.593D+00
 Coeff-Com:  0.142D+01
 Coeff:      0.699D-03-0.607D-02 0.203D-01-0.682D-01 0.223D+00-0.593D+00
 Coeff:      0.142D+01
 Gap=     0.372 Goal=   None    Shift=    0.000
 RMSDP=8.01D-06 MaxDP=5.07D-05 DE=-3.29D-07 OVMax= 6.55D-05

 Cycle   8  Pass 1  IDiag  3:
 E=-0.136973981683084     Delta-E=       -0.000000016414 Rises=F Damp=F
 DIIS: error= 2.82D-06 at cycle   8 NSaved=   8.
 NSaved= 8 IEnMin= 8 EnMin=-0.136973981683084     IErMin= 8 ErrMin= 2.82D-06
 ErrMax= 2.82D-06  0.00D+00 EMaxC= 1.00D-01 BMatC= 2.98D-10 BMatP= 2.51D-09
 IDIUse=1 WtCom= 1.00D+00 WtEn= 0.00D+00
 Coeff-Com: -0.111D-03 0.111D-02-0.319D-02 0.121D-01-0.468D-01 0.147D+00
 Coeff-Com: -0.696D+00 0.159D+01
 Coeff:     -0.111D-03 0.111D-02-0.319D-02 0.121D-01-0.468D-01 0.147D+00
 Coeff:     -0.696D+00 0.159D+01
 Gap=     0.372 Goal=   None    Shift=    0.000
 RMSDP=3.21D-06 MaxDP=1.72D-05 DE=-1.64D-08 OVMax= 1.97D-05

 Cycle   9  Pass 1  IDiag  3:
 E=-0.136973983708913     Delta-E=       -0.000000002026 Rises=F Damp=F
 DIIS: error= 6.46D-07 at cycle   9 NSaved=   9.
 NSaved= 9 IEnMin= 9 EnMin=-0.136973983708913     IErMin= 9 ErrMin= 6.46D-07
 ErrMax= 6.46D-07  0.00D+00 EMaxC= 1.00D-01 BMatC= 1.61D-11 BMatP= 2.98D-10
 IDIUse=1 WtCom= 1.00D+00 WtEn= 0.00D+00
 Coeff-Com: -0.274D-06-0.722D-04-0.551D-04-0.350D-03 0.401D-02-0.184D-01
 Coeff-Com:  0.170D+00-0.565D+00 0.141D+01
 Coeff:     -0.274D-06-0.722D-04-0.551D-04-0.350D-03 0.401D-02-0.184D-01
 Coeff:      0.170D+00-0.565D+00 0.141D+01
 Gap=     0.372 Goal=   None    Shift=    0.000
 RMSDP=6.23D-07 MaxDP=3.84D-06 DE=-2.03D-09 OVMax= 3.31D-06

 Cycle  10  Pass 1  IDiag  3:
 E=-0.136973983799180     Delta-E=       -0.000000000090 Rises=F Damp=F
 DIIS: error= 1.49D-07 at cycle  10 NSaved=  10.
 NSaved=10 IEnMin=10 EnMin=-0.136973983799180     IErMin=10 ErrMin= 1.49D-07
 ErrMax= 1.49D-07  0.00D+00 EMaxC= 1.00D-01 BMatC= 1.06D-12 BMatP= 1.61D-11
 IDIUse=1 WtCom= 1.00D+00 WtEn= 0.00D+00
 Coeff-Com:  0.607D-05-0.280D-04 0.163D-03-0.381D-03 0.520D-03 0.145D-03
 Coeff-Com: -0.175D-01 0.762D-01-0.426D+00 0.137D+01
 Coeff:      0.607D-05-0.280D-04 0.163D-03-0.381D-03 0.520D-03 0.145D-03
 Coeff:     -0.175D-01 0.762D-01-0.426D+00 0.137D+01
 Gap=     0.372 Goal=   None    Shift=    0.000
 RMSDP=1.63D-07 MaxDP=1.11D-06 DE=-9.03D-11 OVMax= 8.46D-07

 Cycle  11  Pass 1  IDiag  3:
 E=-0.136973983805575     Delta-E=       -0.000000000006 Rises=F Damp=F
 DIIS: error= 4.05D-08 at cycle  11 NSaved=  11.
 NSaved=11 IEnMin=11 EnMin=-0.136973983805575     IErMin=11 ErrMin= 4.05D-08
 ErrMax= 4.05D-08  0.00D+00 EMaxC= 1.00D-01 BMatC= 8.06D-14 BMatP= 1.06D-12
 IDIUse=1 WtCom= 1.00D+00 WtEn= 0.00D+00
 Coeff-Com: -0.131D-05 0.896D-05-0.282D-04 0.921D-04-0.355D-03 0.116D-02
 Coeff-Com: -0.918D-02 0.286D-01 0.130D-01-0.454D+00 0.142D+01
 Coeff:     -0.131D-05 0.896D-05-0.282D-04 0.921D-04-0.355D-03 0.116D-02
 Coeff:     -0.918D-02 0.286D-01 0.130D-01-0.454D+00 0.142D+01
 Gap=     0.372 Goal=   None    Shift=    0.000
 RMSDP=4.85D-08 MaxDP=2.87D-07 DE=-6.39D-12 OVMax= 3.58D-07

 Cycle  12  Pass 1  IDiag  3:
 E=-0.136973983806030     Delta-E=       -0.000000000000 Rises=F Damp=F
 DIIS: error= 9.46D-09 at cycle  12 NSaved=  12.
 NSaved=12 IEnMin=12 EnMin=-0.136973983806030     IErMin=12 ErrMin= 9.46D-09
 ErrMax= 9.46D-09  0.00D+00 EMaxC= 1.00D-01 BMatC= 5.27D-15 BMatP= 8.06D-14
 IDIUse=1 WtCom= 1.00D+00 WtEn= 0.00D+00
 Coeff-Com:  0.184D-06-0.112D-05 0.111D-05-0.665D-05 0.719D-04-0.344D-03
 Coeff-Com:  0.455D-02-0.166D-01 0.736D-02 0.197D+00-0.845D+00 0.165D+01
 Coeff:      0.184D-06-0.112D-05 0.111D-05-0.665D-05 0.719D-04-0.344D-03
 Coeff:      0.455D-02-0.166D-01 0.736D-02 0.197D+00-0.845D+00 0.165D+01
 Gap=     0.372 Goal=   None    Shift=    0.000
 RMSDP=1.45D-08 MaxDP=8.88D-08 DE=-4.55D-13 OVMax= 1.01D-07

 Cycle  13  Pass 1  IDiag  3:
 E=-0.136973983806101     Delta-E=       -0.000000000000 Rises=F Damp=F
 DIIS: error= 1.67D-09 at cycle  13 NSaved=  13.
 NSaved=13 IEnMin=13 EnMin=-0.136973983806101     IErMin=13 ErrMin= 1.67D-09
 ErrMax= 1.67D-09  0.00D+00 EMaxC= 1.00D-01 BMatC= 1.79D-16 BMatP= 5.27D-15
 IDIUse=1 WtCom= 1.00D+00 WtEn= 0.00D+00
 Coeff-Com:  0.881D-08-0.179D-06 0.222D-05-0.531D-05-0.960D-05 0.107D-03
 Coeff-Com: -0.209D-02 0.799D-02-0.547D-02-0.862D-01 0.398D+00-0.885D+00
 Coeff-Com:  0.157D+01
 Coeff:      0.881D-08-0.179D-06 0.222D-05-0.531D-05-0.960D-05 0.107D-03
 Coeff:     -0.209D-02 0.799D-02-0.547D-02-0.862D-01 0.398D+00-0.885D+00
 Coeff:      0.157D+01
 Gap=     0.372 Goal=   None    Shift=    0.000
 RMSDP=2.50D-09 MaxDP=1.75D-08 DE=-7.11D-14 OVMax= 2.13D-08

 Cycle  14  Pass 2  IDiag  1:
 SCF Done:  E(RPM6) = -0.136973983806     A.U. after   14 cycles
            NFock= 13  Conv=0.25D-08     -V/T= 0.9979
 KE=-6.559711597378D+01 PE=-1.647720729518D+02 EE= 1.044519092559D+02
 Leave Link  502 at Sat Nov 25 14:44:32 2023, MaxMem=   134217728 cpu:               0.2 elap:               0.1
 (Enter /home/emanuele/chem_software/gaussian//gdv/l601.exe)
 Copying SCF densities to generalized density rwf, IOpCl= 0 IROHF=0.

 **********************************************************************

            Population analysis using the SCF Density.

 **********************************************************************

 Alpha  occ. eigenvalues --       -1.22033      -1.17650      -1.15177      -0.96585      -0.79048
 Alpha  occ. eigenvalues --       -0.69293      -0.65535      -0.63929      -0.58072      -0.56742
 Alpha  occ. eigenvalues --       -0.53691      -0.50561      -0.46483      -0.42332      -0.36139
 Alpha virt. eigenvalues --        0.01043       0.05109       0.09137       0.11428       0.13931
 Alpha virt. eigenvalues --        0.16361       0.16810       0.19059       0.21211       0.24502
          Condensed to atoms (all electrons):
               1          2          3          4          5          6
     1  C    3.389636   0.000000   0.000000   0.000000   0.000000   0.000000
     2  O    0.000000   6.491501   0.000000   0.000000   0.000000   0.000000
     3  C    0.000000   0.000000   4.256520   0.000000   0.000000   0.000000
     4  H    0.000000   0.000000   0.000000   0.847919   0.000000   0.000000
     5  H    0.000000   0.000000   0.000000   0.000000   0.808674   0.000000
     6  N    0.000000   0.000000   0.000000   0.000000   0.000000   5.485381
     7  H    0.000000   0.000000   0.000000   0.000000   0.000000   0.000000
     8  H    0.000000   0.000000   0.000000   0.000000   0.000000   0.000000
     9  O    0.000000   0.000000   0.000000   0.000000   0.000000   0.000000
    10  H    0.000000   0.000000   0.000000   0.000000   0.000000   0.000000
               7          8          9         10
     1  C    0.000000   0.000000   0.000000   0.000000
     2  O    0.000000   0.000000   0.000000   0.000000
     3  C    0.000000   0.000000   0.000000   0.000000
     4  H    0.000000   0.000000   0.000000   0.000000
     5  H    0.000000   0.000000   0.000000   0.000000
     6  N    0.000000   0.000000   0.000000   0.000000
     7  H    0.770909   0.000000   0.000000   0.000000
     8  H    0.000000   0.782627   0.000000   0.000000
     9  O    0.000000   0.000000   6.501898   0.000000
    10  H    0.000000   0.000000   0.000000   0.664933
 Mulliken charges:
               1
     1  C    0.610364
     2  O   -0.491501
     3  C   -0.256520
     4  H    0.152081
     5  H    0.191326
     6  N   -0.485381
     7  H    0.229091
     8  H    0.217373
     9  O   -0.501898
    10  H    0.335067
 Sum of Mulliken charges =  -0.00000
 Mulliken charges with hydrogens summed into heavy atoms:
               1
     1  C    0.610364
     2  O   -0.156434
     3  C    0.086886
     6  N   -0.038918
     9  O   -0.501898
 Charge=             -0.0000 electrons
 Dipole moment (field-independent basis, Debye):
    X=             -0.0442    Y=             -1.7562    Z=              2.0287  Tot=              2.6836
 N-N= 1.257803056858D+02 E-N=-1.647720729272D+02  KE=-6.559711597378D+01
 Leave Link  601 at Sat Nov 25 14:44:32 2023, MaxMem=   134217728 cpu:               0.1 elap:               0.0
 (Enter /home/emanuele/chem_software/gaussian//gdv/l701.exe)
 ... and contract with generalized density number  0.
 Compute integral first derivatives.
 Leave Link  701 at Sat Nov 25 14:44:32 2023, MaxMem=   134217728 cpu:               0.2 elap:               0.1
 (Enter /home/emanuele/chem_software/gaussian//gdv/l702.exe)
 L702 exits ... SP integral derivatives will be done elsewhere.
 Leave Link  702 at Sat Nov 25 14:44:32 2023, MaxMem=   134217728 cpu:               0.1 elap:               0.0
 (Enter /home/emanuele/chem_software/gaussian//gdv/l703.exe)
 Integral derivatives from FoFJK, PRISM(SPDF).
 Compute integral first derivatives, UseDBF=F ICtDFT=           0.
 Calling FoFJK, ICntrl=      2127 FMM=F ISym2X=0 I1Cent= 0 IOpClX= 0 NMat=1 NMatS=1 NMatT=0.
 FoFJK:  IHMeth=40 ICntrl=    2127 DoSepK=F KAlg= 0 I1Cent=           0 FoldK=F
 IRaf=         0 NMat=       1 IRICut=       1 DoRegI=T DoRafI=F ISym2E= 0 IDoP0=3 IntGTp=3.
 FoFCou: FMM=F IPFlag=           0 FMFlag=      100000 FMFlg1=         800
         NFxFlg=           0 DoJE=F BraDBF=F KetDBF=F FulRan=T
         wScrn=  0.000000 ICntrl=      2127 IOpCl=  0 I1Cent=           0 NGrid=           0
         NMat0=    1 NMatS0=      1 NMatT0=    0 NMatD0=    1 NMtDS0=    0 NMtDT0=    0
 Symmetry not used in FoFCou.
 Leave Link  703 at Sat Nov 25 14:44:32 2023, MaxMem=   134217728 cpu:               0.1 elap:               0.0
 (Enter /home/emanuele/chem_software/gaussian//gdv/l716.exe)
 Dipole        =-1.73953341D-02-6.90951364D-01 7.98140051D-01
 -------------------------------------------------------------------
 Center     Atomic                   Forces (Hartrees/Bohr)
 Number     Number              X              Y              Z
 -------------------------------------------------------------------
      1        6           0.029519480    0.004598071   -0.001501695
      2        8          -0.002629323   -0.006351354    0.000288808
      3        6          -0.021332520   -0.010188111    0.011815132
      4        1           0.002225947   -0.007671509    0.009764009
      5        1           0.003016531   -0.011675785   -0.010628727
      6        7           0.018023015    0.011316189   -0.011554417
      7        1           0.003069768    0.006682372    0.000517805
      8        1           0.002494252   -0.001031591    0.002148452
      9        8          -0.009778131    0.012789983    0.001092432
     10        1          -0.024609020    0.001531735   -0.001941798
 -------------------------------------------------------------------
 Cartesian Forces:  Max     0.029519480 RMS     0.010928384
 Leave Link  716 at Sat Nov 25 14:44:32 2023, MaxMem=   134217728 cpu:               0.2 elap:               0.0
 (Enter /home/emanuele/chem_software/gaussian//gdv/l103.exe)

 GradGradGradGradGradGradGradGradGradGradGradGradGradGradGradGradGradGrad
 Berny optimization.
 FormGI is forming the generalized inverse of G from B-inverse, IUseBI=4.
 Internal  Forces:  Max     0.030263752 RMS     0.010202630
 Search for a local minimum.
 Step number   1 out of a maximum of  100 on scan point     1 out of    11
 All quantities printed in internal units (Hartrees-Bohrs-Radians)
 RMS Force = .10320D-01 SwitMx=.10000D-02 MixMth= 1
 Mixed Optimization -- RFO/linear search
 Second derivative matrix not updated -- first step.
 ITU=  0
     Eigenvalues ---    0.00641   0.01053   0.02341   0.02422   0.04955
     Eigenvalues ---    0.05862   0.09423   0.12992   0.16000   0.16000
     Eigenvalues ---    0.16000   0.21827   0.24992   0.25000   0.31403
     Eigenvalues ---    0.33602   0.34582   0.38010   0.45526   0.45961
     Eigenvalues ---    0.53825   0.54828   1.033731000.000001000.00000
     Eigenvalues --- 1000.000001000.000001000.000001000.000001000.00000
     Eigenvalues --- 1000.000001000.000001000.000001000.000001000.00000
     Eigenvalues --- 1000.00000
 RFO step:  Lambda=-1.17854150D-02 EMin= 6.40605360D-03
 Linear search not attempted -- first point.
 Iteration  1 RMS(Cart)=  0.07168900 RMS(Int)=  0.00350323
 Iteration  2 RMS(Cart)=  0.00350967 RMS(Int)=  0.00011507
 Iteration  3 RMS(Cart)=  0.00001733 RMS(Int)=  0.00011430
 Iteration  4 RMS(Cart)=  0.00000000 RMS(Int)=  0.00011430
 Fixing frozen coordinates.
 Iteration  1 RMS(Cart)=  0.00000327 RMS(Int)=  0.00000407
 Iteration  2 RMS(Cart)=  0.00000170 RMS(Int)=  0.00000455
 Iteration  3 RMS(Cart)=  0.00000088 RMS(Int)=  0.00000511
 ITry= 1 IFail=0 DXMaxC= 2.24D-01 DCOld= 1.00D+10 DXMaxT= 3.00D-01 DXLimC= 3.00D+00 Rises=F
 Variable       Old X    -DE/DX   Delta X   Delta X   Delta X     New X
                                 (Linear)    (Quad)   (Total)
    R1        2.55286   0.02505   0.00000   0.04474   0.04474   2.59759
    R2        2.85250   0.01324   0.00000   0.04063   0.04063   2.89313
    R3        2.27318   0.01321   0.00000   0.01263   0.01263   2.28581
    R4        1.82891   0.02050   0.00000   0.03727   0.03727   1.86618
    R5        2.08006   0.01200   0.00000   0.03449   0.03449   2.11455
    R6        2.06359   0.01550   0.00000   0.04335   0.04335   2.10694
    R7        2.74351   0.03026   0.00000   0.07723   0.07723   2.82073
    R8        1.91369   0.00597   0.00000   0.01278   0.01278   1.92647
    R9        1.90876   0.00335   0.00000   0.00711   0.00711   1.91587
    A1        1.94980  -0.00359   0.00000  -0.01378  -0.01379   1.93602
    A2        2.14707  -0.00860   0.00000  -0.03296  -0.03297   2.11410
    A3        2.18583   0.01219   0.00000   0.04649   0.04647   2.23230
    A4        1.87144   0.02526   0.00000   0.14705   0.14705   2.01849
    A5        1.83958   0.00243   0.00000   0.02503   0.02479   1.86438
    A6        1.89148   0.00261   0.00000   0.01326   0.01303   1.90451
    A7        1.93046   0.00003   0.00000   0.00042   0.00026   1.93072
    A8        1.85394  -0.00055   0.00000  -0.00230  -0.00258   1.85136
    A9        2.00477   0.00048   0.00000   0.00986   0.00962   2.01439
   A10        1.93745  -0.00453   0.00000  -0.04258  -0.04260   1.89485
   A11        1.91981   0.00706   0.00000   0.03844   0.03851   1.95831
   A12        1.94466  -0.00170   0.00000  -0.01249  -0.01242   1.93224
   A13        1.89587  -0.00228   0.00000  -0.01827  -0.01814   1.87773
    D1        3.09264   0.00086   0.00000   0.01853   0.01871   3.11135
    D2       -0.01720   0.00071   0.00000   0.02591   0.02573   0.00853
    D3       -1.25365  -0.00021   0.00000  -0.01950  -0.01947  -1.27311
    D4        0.72522   0.00150   0.00000  -0.00422  -0.00402   0.72120
    D5        2.85281  -0.00239   0.00000  -0.04804  -0.04811   2.80470
    D6        1.85534  -0.00051   0.00000  -0.02885  -0.02893   1.82642
    D7       -2.44897   0.00119   0.00000  -0.01357  -0.01348  -2.46245
    D8       -0.32138  -0.00270   0.00000  -0.05739  -0.05757  -0.37895
    D9        0.60481   0.00046   0.00000   0.03963   0.03958   0.64440
   D10        2.70830   0.00122   0.00000   0.03425   0.03416   2.74246
   D11       -1.47459  -0.00306   0.00000   0.00000   0.00000  -1.47458
   D12        0.62890  -0.00230   0.00000  -0.00538  -0.00542   0.62348
   D13        2.70515   0.00077   0.00000   0.02848   0.02856   2.73371
   D14       -1.47455   0.00153   0.00000   0.02311   0.02314  -1.45141
         Item               Value     Threshold  Converged?
 Maximum Force            0.030264     0.000450     NO 
 RMS     Force            0.010320     0.000300     NO 
 Maximum Displacement     0.224412     0.001800     NO 
 RMS     Displacement     0.072265     0.001200     NO 
 Predicted change in Energy=-6.226493D-03
 Lowest energy point so far.  Saving SCF results.
 GradGradGradGradGradGradGradGradGradGradGradGradGradGradGradGradGradGrad

 Leave Link  103 at Sat Nov 25 14:44:32 2023, MaxMem=   134217728 cpu:               0.1 elap:               0.0
 (Enter /home/emanuele/chem_software/gaussian//gdv/l202.exe)
                          Input orientation:                          
 ---------------------------------------------------------------------
 Center     Atomic      Atomic             Coordinates (Angstroms)
 Number     Number       Type             X           Y           Z
 ---------------------------------------------------------------------
      1          6           0       -0.544721    0.142053    0.031407
      2          8           0       -1.661761   -0.650614   -0.084296
      3          6           0        0.722847   -0.710652    0.131709
      4          1           0        0.724264   -1.169899    1.152098
      5          1           0        0.650412   -1.558731   -0.588439
      6          7           0        1.929670    0.099479   -0.207882
      7          1           0        1.858418    1.057926    0.132079
      8          1           0        2.762555   -0.309367    0.200788
      9          8           0       -0.635816    1.347037    0.084735
     10          1           0       -2.523842   -0.170818   -0.127249
 ---------------------------------------------------------------------
                    Distance matrix (angstroms):
                    1          2          3          4          5
     1  C    0.000000
     2  O    1.374586   0.000000
     3  C    1.530978   2.395124   0.000000
     4  H    2.141842   2.737050   1.118974   0.000000
     5  H    2.169151   2.534755   1.114943   1.784968   0.000000
     6  N    2.486299   3.671007   1.492667   2.216724   2.128611
     7  H    2.573720   3.918876   2.101759   2.699990   2.970744
     8  H    3.342236   4.446605   2.079954   2.408347   2.577777
     9  O    1.209599   2.252053   2.466223   3.053531   3.248236
    10  H    2.009970   0.987538   3.301433   3.631126   3.494980
                    6          7          8          9         10
     6  N    0.000000
     7  H    1.019446   0.000000
     8  H    1.013836   1.640632   0.000000
     9  O    2.867707   2.511380   3.782336   0.000000
    10  H    4.462435   4.558647   5.298376   2.431761   0.000000
 Symmetry turned off by external request.
 Stoichiometry    C2H5NO2
 Framework group  C1[X(C2H5NO2)]
 Deg. of freedom    24
 Full point group                 C1      NOp   1
 Rotational constants (GHZ):          10.1218070           3.7789747           2.8371804
 Leave Link  202 at Sat Nov 25 14:44:32 2023, MaxMem=   134217728 cpu:               0.1 elap:               0.0
 (Enter /home/emanuele/chem_software/gaussian//gdv/l301.exe)
 Standard basis: VSTO-6G (5D, 7F)
 Ernie: Thresh=  0.10000D-02 Tol=  0.10000D-05 Strict=F.
  NNHCO=     0 NNPyr=     0 NCTC=     0               EPep=         0.000000000
    EC=        82.786082529  ECS=         2.132860378   EG=         0.120928544
   EHC=         0.000970201  EAt=       -38.066560349  AtH=         1.329713788
 EPDDG=         0.000000000  ECC=        85.040841652 EAtT=        39.396274136
    25 basis functions,   150 primitive gaussians,    25 cartesian basis functions
    15 alpha electrons       15 beta electrons
       nuclear repulsion energy       124.4371157879 Hartrees.
 IExCor=       0 DFT=F Ex=HF Corr=None N6=None ScaHFX=  1.000000
 ScaDFX=  1.000000  1.000000  1.000000  1.000000  1.000000  0.000000
 ScaDFX=  0.000000  0.000000  0.000000  0.000000  0.000000  0.000000
 IRadAn=      5 IRanWt=     -1 IRanGd=            0 ICorTp=0 IEmpDi=  4
 Integral buffers will be    131072 words long.
 Regular integral format.
 Two-electron integral symmetry is turned off.
 Leave Link  301 at Sat Nov 25 14:44:32 2023, MaxMem=   134217728 cpu:               0.2 elap:               0.1
 (Enter /home/emanuele/chem_software/gaussian//gdv/l302.exe)
 Do NDO integrals.
 NPDir=0 NMtPBC=     1 NCelOv=     1 NCel=       1 NClECP=     1 NCelD=      1
         NCelK=      1 NCelE2=     1 NClLst=     1 CellRange=     0.0.
 One-electron integrals computed using PRISM.
 NBasis=    25 RedAO= F EigKep=  0.00D+00  NBF=    25
 NBsUse=    25 1.00D-04 EigRej=  0.00D+00 NBFU=    25
 Leave Link  302 at Sat Nov 25 14:44:32 2023, MaxMem=   134217728 cpu:               0.3 elap:               0.1
 (Enter /home/emanuele/chem_software/gaussian//gdv/l303.exe)
 DipDrv:  MaxL=1.
 Leave Link  303 at Sat Nov 25 14:44:33 2023, MaxMem=   134217728 cpu:               0.1 elap:               0.0
 (Enter /home/emanuele/chem_software/gaussian//gdv/l401.exe)
 Initial guess from the checkpoint file:  "5_zmat_qm.chk"
 B after Tr=     0.000000    0.000000    0.000000
         Rot=    1.000000    0.000000    0.000000    0.000000 Ang=   0.00 deg.
 AO Guess basis will be translated and rotated to current coordinates.
 JPrj=0 DoOrth=T DoCkMO=T.
 Leave Link  401 at Sat Nov 25 14:44:33 2023, MaxMem=   134217728 cpu:               0.8 elap:               0.2
 (Enter /home/emanuele/chem_software/gaussian//gdv/l502.exe)
 Keep J ints in memory in canonical form, NReq=861126.
 FoFCou: FMM=F IPFlag=           0 FMFlag=           0 FMFlg1=           0
         NFxFlg=           0 DoJE=F BraDBF=F KetDBF=F FulRan=T
         wScrn=  0.000000 ICntrl=       600 IOpCl=  2 I1Cent=           0 NGrid=           0
         NMat0=    1 NMatS0=     55 NMatT0=    0 NMatD0=    1 NMtDS0=    0 NMtDT0=    0
 Symmetry not used in FoFCou.
 Two-electron integral symmetry not used.
 Closed shell SCF:
 Using DIIS extrapolation, IDIIS=  1040.
 Overlap will be assumed to be unity.
 NGot=   134217728 LenX=   134155015 LenY=   134153949
 Requested convergence on RMS density matrix=1.00D-08 within 128 cycles.
 Requested convergence on MAX density matrix=1.00D-06.
 Requested convergence on             energy=1.00D-06.
 No special actions if energy rises.

 Cycle   1  Pass 1  IDiag  1:
 E=-0.134619870684944    
 DIIS: error= 7.36D-03 at cycle   1 NSaved=   1.
 NSaved= 1 IEnMin= 1 EnMin=-0.134619870684944     IErMin= 1 ErrMin= 7.36D-03
 ErrMax= 7.36D-03  0.00D+00 EMaxC= 1.00D-01 BMatC= 1.83D-03 BMatP= 1.83D-03
 IDIUse=3 WtCom= 9.26D-01 WtEn= 7.36D-02
 Coeff-Com:  0.100D+01
 Coeff-En:   0.100D+01
 Coeff:      0.100D+01
 GapD=    2.000 DampG=2.000 DampE=1.000 DampFc=2.0000 IDamp=-1.
 RMSDP=2.92D-03 MaxDP=1.95D-02              OVMax= 0.00D+00

 Cycle   2  Pass 1  IDiag  3:
 E=-0.140352843302793     Delta-E=       -0.005732972618 Rises=F Damp=F
 DIIS: error= 2.63D-03 at cycle   2 NSaved=   2.
 NSaved= 2 IEnMin= 2 EnMin=-0.140352843302793     IErMin= 2 ErrMin= 2.63D-03
 ErrMax= 2.63D-03  0.00D+00 EMaxC= 1.00D-01 BMatC= 2.23D-04 BMatP= 1.83D-03
 IDIUse=3 WtCom= 9.74D-01 WtEn= 2.63D-02
 Coeff-Com: -0.452D+00 0.145D+01
 Coeff-En:   0.000D+00 0.100D+01
 Coeff:     -0.440D+00 0.144D+01
 Gap=     0.377 Goal=   None    Shift=    0.000
 RMSDP=1.64D-03 MaxDP=1.16D-02 DE=-5.73D-03 OVMax= 9.55D-03

 Cycle   3  Pass 1  IDiag  3:
 E=-0.141318387338004     Delta-E=       -0.000965544035 Rises=F Damp=F
 DIIS: error= 3.48D-04 at cycle   3 NSaved=   3.
 NSaved= 3 IEnMin= 3 EnMin=-0.141318387338004     IErMin= 3 ErrMin= 3.48D-04
 ErrMax= 3.48D-04  0.00D+00 EMaxC= 1.00D-01 BMatC= 7.10D-06 BMatP= 2.23D-04
 IDIUse=3 WtCom= 9.97D-01 WtEn= 3.48D-03
 Coeff-Com:  0.149D+00-0.574D+00 0.143D+01
 Coeff-En:   0.000D+00 0.000D+00 0.100D+01
 Coeff:      0.148D+00-0.572D+00 0.142D+01
 Gap=     0.377 Goal=   None    Shift=    0.000
 RMSDP=3.71D-04 MaxDP=2.36D-03 DE=-9.66D-04 OVMax= 2.33D-03

 Cycle   4  Pass 1  IDiag  3:
 E=-0.141357686409137     Delta-E=       -0.000039299071 Rises=F Damp=F
 DIIS: error= 7.72D-05 at cycle   4 NSaved=   4.
 NSaved= 4 IEnMin= 4 EnMin=-0.141357686409137     IErMin= 4 ErrMin= 7.72D-05
 ErrMax= 7.72D-05  0.00D+00 EMaxC= 1.00D-01 BMatC= 3.29D-07 BMatP= 7.10D-06
 IDIUse=1 WtCom= 1.00D+00 WtEn= 0.00D+00
 Coeff-Com: -0.255D-01 0.112D+00-0.435D+00 0.135D+01
 Coeff:     -0.255D-01 0.112D+00-0.435D+00 0.135D+01
 Gap=     0.377 Goal=   None    Shift=    0.000
 RMSDP=8.74D-05 MaxDP=4.70D-04 DE=-3.93D-05 OVMax= 6.27D-04

 Cycle   5  Pass 1  IDiag  3:
 E=-0.141359843164480     Delta-E=       -0.000002156755 Rises=F Damp=F
 DIIS: error= 2.38D-05 at cycle   5 NSaved=   5.
 NSaved= 5 IEnMin= 5 EnMin=-0.141359843164480     IErMin= 5 ErrMin= 2.38D-05
 ErrMax= 2.38D-05  0.00D+00 EMaxC= 1.00D-01 BMatC= 3.22D-08 BMatP= 3.29D-07
 IDIUse=1 WtCom= 1.00D+00 WtEn= 0.00D+00
 Coeff-Com:  0.111D-02-0.965D-02 0.956D-01-0.652D+00 0.156D+01
 Coeff:      0.111D-02-0.965D-02 0.956D-01-0.652D+00 0.156D+01
 Gap=     0.377 Goal=   None    Shift=    0.000
 RMSDP=3.48D-05 MaxDP=2.10D-04 DE=-2.16D-06 OVMax= 3.10D-04

 Cycle   6  Pass 1  IDiag  3:
 E=-0.141360087126742     Delta-E=       -0.000000243962 Rises=F Damp=F
 DIIS: error= 5.99D-06 at cycle   6 NSaved=   6.
 NSaved= 6 IEnMin= 6 EnMin=-0.141360087126742     IErMin= 6 ErrMin= 5.99D-06
 ErrMax= 5.99D-06  0.00D+00 EMaxC= 1.00D-01 BMatC= 1.47D-09 BMatP= 3.22D-08
 IDIUse=1 WtCom= 1.00D+00 WtEn= 0.00D+00
 Coeff-Com:  0.750D-03-0.329D-03-0.331D-01 0.307D+00-0.895D+00 0.162D+01
 Coeff:      0.750D-03-0.329D-03-0.331D-01 0.307D+00-0.895D+00 0.162D+01
 Gap=     0.377 Goal=   None    Shift=    0.000
 RMSDP=7.65D-06 MaxDP=5.64D-05 DE=-2.44D-07 OVMax= 8.07D-05

 Cycle   7  Pass 1  IDiag  3:
 E=-0.141360098192010     Delta-E=       -0.000000011065 Rises=F Damp=F
 DIIS: error= 1.17D-06 at cycle   7 NSaved=   7.
 NSaved= 7 IEnMin= 7 EnMin=-0.141360098192010     IErMin= 7 ErrMin= 1.17D-06
 ErrMax= 1.17D-06  0.00D+00 EMaxC= 1.00D-01 BMatC= 5.65D-11 BMatP= 1.47D-09
 IDIUse=1 WtCom= 1.00D+00 WtEn= 0.00D+00
 Coeff-Com: -0.429D-03 0.366D-03 0.158D-01-0.151D+00 0.450D+00-0.922D+00
 Coeff-Com:  0.161D+01
 Coeff:     -0.429D-03 0.366D-03 0.158D-01-0.151D+00 0.450D+00-0.922D+00
 Coeff:      0.161D+01
 Gap=     0.377 Goal=   None    Shift=    0.000
 RMSDP=1.45D-06 MaxDP=1.10D-05 DE=-1.11D-08 OVMax= 1.63D-05

 Cycle   8  Pass 1  IDiag  3:
 E=-0.141360098610193     Delta-E=       -0.000000000418 Rises=F Damp=F
 DIIS: error= 2.21D-07 at cycle   8 NSaved=   8.
 NSaved= 8 IEnMin= 8 EnMin=-0.141360098610193     IErMin= 8 ErrMin= 2.21D-07
 ErrMax= 2.21D-07  0.00D+00 EMaxC= 1.00D-01 BMatC= 2.90D-12 BMatP= 5.65D-11
 IDIUse=1 WtCom= 1.00D+00 WtEn= 0.00D+00
 Coeff-Com:  0.151D-03 0.170D-05-0.766D-02 0.705D-01-0.209D+00 0.437D+00
 Coeff-Com: -0.892D+00 0.160D+01
 Coeff:      0.151D-03 0.170D-05-0.766D-02 0.705D-01-0.209D+00 0.437D+00
 Coeff:     -0.892D+00 0.160D+01
 Gap=     0.377 Goal=   None    Shift=    0.000
 RMSDP=3.21D-07 MaxDP=2.16D-06 DE=-4.18D-10 OVMax= 3.30D-06

 Cycle   9  Pass 1  IDiag  3:
 E=-0.141360098631552     Delta-E=       -0.000000000021 Rises=F Damp=F
 DIIS: error= 4.65D-08 at cycle   9 NSaved=   9.
 NSaved= 9 IEnMin= 9 EnMin=-0.141360098631552     IErMin= 9 ErrMin= 4.65D-08
 ErrMax= 4.65D-08  0.00D+00 EMaxC= 1.00D-01 BMatC= 1.59D-13 BMatP= 2.90D-12
 IDIUse=1 WtCom= 1.00D+00 WtEn= 0.00D+00
 Coeff-Com: -0.604D-04-0.220D-04 0.338D-02-0.307D-01 0.912D-01-0.191D+00
 Coeff-Com:  0.399D+00-0.860D+00 0.159D+01
 Coeff:     -0.604D-04-0.220D-04 0.338D-02-0.307D-01 0.912D-01-0.191D+00
 Coeff:      0.399D+00-0.860D+00 0.159D+01
 Gap=     0.377 Goal=   None    Shift=    0.000
 RMSDP=7.81D-08 MaxDP=4.35D-07 DE=-2.14D-11 OVMax= 6.74D-07

 Cycle  10  Pass 1  IDiag  3:
 E=-0.141360098632916     Delta-E=       -0.000000000001 Rises=F Damp=F
 DIIS: error= 1.22D-08 at cycle  10 NSaved=  10.
 NSaved=10 IEnMin=10 EnMin=-0.141360098632916     IErMin=10 ErrMin= 1.22D-08
 ErrMax= 1.22D-08  0.00D+00 EMaxC= 1.00D-01 BMatC= 6.96D-15 BMatP= 1.59D-13
 IDIUse=1 WtCom= 1.00D+00 WtEn= 0.00D+00
 Coeff-Com:  0.182D-04 0.986D-05-0.108D-02 0.975D-02-0.289D-01 0.607D-01
 Coeff-Com: -0.128D+00 0.285D+00-0.683D+00 0.149D+01
 Coeff:      0.182D-04 0.986D-05-0.108D-02 0.975D-02-0.289D-01 0.607D-01
 Coeff:     -0.128D+00 0.285D+00-0.683D+00 0.149D+01
 Gap=     0.377 Goal=   None    Shift=    0.000
 RMSDP=1.62D-08 MaxDP=8.12D-08 DE=-1.36D-12 OVMax= 1.46D-07

 Cycle  11  Pass 1  IDiag  3:
 E=-0.141360098632759     Delta-E=        0.000000000000 Rises=F Damp=F
 DIIS: error= 1.62D-09 at cycle  11 NSaved=  11.
 NSaved=11 IEnMin=10 EnMin=-0.141360098632916     IErMin=11 ErrMin= 1.62D-09
 ErrMax= 1.62D-09  0.00D+00 EMaxC= 1.00D-01 BMatC= 1.72D-16 BMatP= 6.96D-15
 IDIUse=1 WtCom= 1.00D+00 WtEn= 0.00D+00
 Coeff-Com: -0.334D-05-0.361D-05 0.227D-03-0.203D-02 0.601D-02-0.126D-01
 Coeff-Com:  0.265D-01-0.591D-01 0.156D+00-0.445D+00 0.133D+01
 Coeff:     -0.334D-05-0.361D-05 0.227D-03-0.203D-02 0.601D-02-0.126D-01
 Coeff:      0.265D-01-0.591D-01 0.156D+00-0.445D+00 0.133D+01
 Gap=     0.377 Goal=   None    Shift=    0.000
 RMSDP=1.97D-09 MaxDP=1.13D-08 DE= 1.56D-13 OVMax= 1.51D-08

 Cycle  12  Pass 2  IDiag  1:
 SCF Done:  E(RPM6) = -0.141360098633     A.U. after   12 cycles
            NFock= 11  Conv=0.20D-08     -V/T= 0.9978
 KE=-6.555694415353D+01 PE=-1.624050524247D+02 EE= 1.033835206917D+02
 Leave Link  502 at Sat Nov 25 14:44:33 2023, MaxMem=   134217728 cpu:               0.2 elap:               0.1
 (Enter /home/emanuele/chem_software/gaussian//gdv/l701.exe)
 ... and contract with generalized density number  0.
 Compute integral first derivatives.
 Leave Link  701 at Sat Nov 25 14:44:33 2023, MaxMem=   134217728 cpu:               0.2 elap:               0.1
 (Enter /home/emanuele/chem_software/gaussian//gdv/l702.exe)
 L702 exits ... SP integral derivatives will be done elsewhere.
 Leave Link  702 at Sat Nov 25 14:44:33 2023, MaxMem=   134217728 cpu:               0.1 elap:               0.0
 (Enter /home/emanuele/chem_software/gaussian//gdv/l703.exe)
 Integral derivatives from FoFJK, PRISM(SPDF).
 Compute integral first derivatives, UseDBF=F ICtDFT=           0.
 Calling FoFJK, ICntrl=      2127 FMM=F ISym2X=0 I1Cent= 0 IOpClX= 0 NMat=1 NMatS=1 NMatT=0.
 FoFJK:  IHMeth=40 ICntrl=    2127 DoSepK=F KAlg= 0 I1Cent=           0 FoldK=F
 IRaf=         0 NMat=       1 IRICut=       1 DoRegI=T DoRafI=F ISym2E= 0 IDoP0=3 IntGTp=3.
 FoFCou: FMM=F IPFlag=           0 FMFlag=      100000 FMFlg1=         800
         NFxFlg=           0 DoJE=F BraDBF=F KetDBF=F FulRan=T
         wScrn=  0.000000 ICntrl=      2127 IOpCl=  0 I1Cent=           0 NGrid=           0
         NMat0=    1 NMatS0=      1 NMatT0=    0 NMatD0=    1 NMtDS0=    0 NMtDT0=    0
 Symmetry not used in FoFCou.
 Leave Link  703 at Sat Nov 25 14:44:33 2023, MaxMem=   134217728 cpu:               0.2 elap:               0.0
 (Enter /home/emanuele/chem_software/gaussian//gdv/l716.exe)
 Dipole        = 6.98174524D-02-7.26691328D-01 7.68292719D-01
 -------------------------------------------------------------------
 Center     Atomic                   Forces (Hartrees/Bohr)
 Number     Number              X              Y              Z
 -------------------------------------------------------------------
      1        6           0.009023360    0.006053212    0.000028654
      2        8           0.007152741   -0.004906881    0.000499905
      3        6          -0.009816559    0.006916759    0.003896830
      4        1           0.002009694    0.000847998   -0.001699062
      5        1           0.001327162   -0.000505790   -0.001948417
      6        7          -0.005161391   -0.003060144   -0.002743726
      7        1          -0.002794592   -0.001205533    0.000604650
      8        1          -0.000861257   -0.001271000    0.001540961
      9        8          -0.002627218   -0.007193534   -0.000002548
     10        1           0.001748059    0.004324914   -0.000177248
 -------------------------------------------------------------------
 Cartesian Forces:  Max     0.009816559 RMS     0.004101774
 Leave Link  716 at Sat Nov 25 14:44:33 2023, MaxMem=   134217728 cpu:               0.1 elap:               0.0
 (Enter /home/emanuele/chem_software/gaussian//gdv/l103.exe)

 GradGradGradGradGradGradGradGradGradGradGradGradGradGradGradGradGradGrad
 Berny optimization.
 Using GEDIIS/GDIIS optimizer.
 FormGI is forming the generalized inverse of G from B-inverse, IUseBI=4.
 Internal  Forces:  Max     0.013647155 RMS     0.004160299
 Search for a local minimum.
 Step number   2 out of a maximum of  100 on scan point     1 out of    11
 All quantities printed in internal units (Hartrees-Bohrs-Radians)
 RMS Force = .42190D-02 SwitMx=.10000D-02 MixMth= 1
 Mixed Optimization -- RFO/linear search
 Update second derivatives using D2CorX and points    1    2
 DE= -4.39D-03 DEPred=-6.23D-03 R= 7.04D-01
 TightC=F SS=  1.41D+00  RLast= 2.37D-01 DXNew= 5.0454D-01 7.1210D-01
 Trust test= 7.04D-01 RLast= 2.37D-01 DXMaxT set to 5.05D-01
 ITU=  1  0
 Use linear search instead of GDIIS.
     Eigenvalues ---    0.00640   0.01022   0.02337   0.02414   0.04771
     Eigenvalues ---    0.06044   0.09121   0.12966   0.15770   0.16000
     Eigenvalues ---    0.18034   0.21804   0.23255   0.25182   0.32154
     Eigenvalues ---    0.33943   0.34573   0.43545   0.45711   0.45935
     Eigenvalues ---    0.53238   0.58430   1.050651000.000001000.00000
     Eigenvalues --- 1000.000001000.000001000.000001000.000001000.00000
     Eigenvalues --- 1000.000001000.000001000.000001000.000001000.00000
     Eigenvalues --- 1000.00000
 RFO step:  Lambda=-1.26400871D-03 EMin= 6.39546841D-03
 Quartic linear search produced a step of -0.19079.
 Iteration  1 RMS(Cart)=  0.03009058 RMS(Int)=  0.00038873
 Iteration  2 RMS(Cart)=  0.00045092 RMS(Int)=  0.00017991
 Iteration  3 RMS(Cart)=  0.00000010 RMS(Int)=  0.00017991
 Fixing frozen coordinates.
 Iteration  1 RMS(Cart)=  0.00002028 RMS(Int)=  0.00002549
 Iteration  2 RMS(Cart)=  0.00001063 RMS(Int)=  0.00002850
 Iteration  3 RMS(Cart)=  0.00000557 RMS(Int)=  0.00003204
 Iteration  4 RMS(Cart)=  0.00000292 RMS(Int)=  0.00003427
 Iteration  5 RMS(Cart)=  0.00000153 RMS(Int)=  0.00003552
 Iteration  6 RMS(Cart)=  0.00000080 RMS(Int)=  0.00003619
 ITry= 1 IFail=0 DXMaxC= 7.38D-02 DCOld= 1.00D+10 DXMaxT= 5.05D-01 DXLimC= 3.00D+00 Rises=F
 Variable       Old X    -DE/DX   Delta X   Delta X   Delta X     New X
                                 (Linear)    (Quad)   (Total)
    R1        2.59759  -0.00692  -0.00854   0.00286  -0.00567   2.59192
    R2        2.89313  -0.01365  -0.00775  -0.02327  -0.03102   2.86210
    R3        2.28581  -0.00697  -0.00241  -0.00173  -0.00414   2.28167
    R4        1.86618   0.00058  -0.00711   0.01174   0.00463   1.87080
    R5        2.11455  -0.00189  -0.00658   0.00542  -0.00116   2.11339
    R6        2.10694   0.00156  -0.00827   0.01615   0.00788   2.11482
    R7        2.82073  -0.01000  -0.01473   0.00118  -0.01356   2.80717
    R8        1.92647  -0.00074  -0.00244   0.00241  -0.00003   1.92645
    R9        1.91587   0.00043  -0.00136   0.00282   0.00146   1.91733
    A1        1.93602  -0.00635   0.00263  -0.02423  -0.02161   1.91440
    A2        2.11410  -0.00038   0.00629  -0.01052  -0.00425   2.10985
    A3        2.23230   0.00673  -0.00887   0.03508   0.02621   2.25851
    A4        2.01849  -0.00860  -0.02806  -0.00181  -0.02987   1.98863
    A5        1.86438   0.00273  -0.00473   0.02175   0.01692   1.88130
    A6        1.90451   0.00204  -0.00249   0.01212   0.00942   1.91393
    A7        1.93072  -0.00407  -0.00005  -0.01725  -0.01733   1.91339
    A8        1.85136   0.00014   0.00049   0.00892   0.00937   1.86073
    A9        2.01439   0.00016  -0.00184   0.00013  -0.00154   2.01285
   A10        1.89485  -0.00064   0.00813  -0.02320  -0.01505   1.87981
   A11        1.95831  -0.00444  -0.00735  -0.01817  -0.02590   1.93241
   A12        1.93224  -0.00250   0.00237  -0.02295  -0.02097   1.91127
   A13        1.87773   0.00251   0.00346  -0.00521  -0.00252   1.87520
    D1        3.11135   0.00056  -0.00357   0.02244   0.01875   3.13010
    D2        0.00853   0.00026  -0.00491   0.01308   0.00829   0.01682
    D3       -1.27311  -0.00146   0.00371  -0.05005  -0.04650  -1.31962
    D4        0.72120   0.00111   0.00077  -0.02250  -0.02168   0.69952
    D5        2.80470  -0.00089   0.00918  -0.05396  -0.04477   2.75993
    D6        1.82642  -0.00137   0.00552  -0.04131  -0.03589   1.79053
    D7       -2.46245   0.00120   0.00257  -0.01376  -0.01107  -2.47352
    D8       -0.37895  -0.00079   0.01098  -0.04523  -0.03416  -0.41311
    D9        0.64440   0.00075  -0.00755   0.01539   0.00767   0.65207
   D10        2.74246  -0.00078  -0.00652  -0.01940  -0.02581   2.71666
   D11       -1.47458   0.00021  -0.00000   0.00000  -0.00001  -1.47459
   D12        0.62348  -0.00131   0.00103  -0.03479  -0.03349   0.58999
   D13        2.73371   0.00040  -0.00545   0.00537  -0.00011   2.73360
   D14       -1.45141  -0.00112  -0.00442  -0.02942  -0.03359  -1.48500
         Item               Value     Threshold  Converged?
 Maximum Force            0.013647     0.000450     NO 
 RMS     Force            0.004219     0.000300     NO 
 Maximum Displacement     0.073820     0.001800     NO 
 RMS     Displacement     0.030283     0.001200     NO 
 Predicted change in Energy=-9.061291D-04
 Lowest energy point so far.  Saving SCF results.
 GradGradGradGradGradGradGradGradGradGradGradGradGradGradGradGradGradGrad

 Leave Link  103 at Sat Nov 25 14:44:33 2023, MaxMem=   134217728 cpu:               0.0 elap:               0.0
 (Enter /home/emanuele/chem_software/gaussian//gdv/l202.exe)
                          Input orientation:                          
 ---------------------------------------------------------------------
 Center     Atomic      Atomic             Coordinates (Angstroms)
 Number     Number       Type             X           Y           Z
 ---------------------------------------------------------------------
      1          6           0       -0.527833    0.146312    0.048222
      2          8           0       -1.632056   -0.654239   -0.096866
      3          6           0        0.716215   -0.712440    0.141943
      4          1           0        0.743088   -1.164558    1.164486
      5          1           0        0.642230   -1.562676   -0.581961
      6          7           0        1.907952    0.093507   -0.228058
      7          1           0        1.819354    1.048231    0.118199
      8          1           0        2.735366   -0.309364    0.199153
      9          8           0       -0.637084    1.346962    0.114073
     10          1           0       -2.485206   -0.155324   -0.154240
 ---------------------------------------------------------------------
                    Distance matrix (angstroms):
                    1          2          3          4          5
     1  C    0.000000
     2  O    1.371583   0.000000
     3  C    1.514561   2.361100   0.000000
     4  H    2.140016   2.737288   1.118359   0.000000
     5  H    2.164906   2.496588   1.119113   1.794087   0.000000
     6  N    2.451972   3.620496   1.485493   2.208804   2.114295
     7  H    2.515481   3.854464   2.077846   2.673855   2.948336
     8  H    3.298316   4.391007   2.059785   2.373266   2.561669
     9  O    1.207408   2.244832   2.464413   3.052209   3.253782
    10  H    1.990800   0.989986   3.263005   3.630355   3.456073
                    6          7          8          9         10
     6  N    0.000000
     7  H    1.019432   0.000000
     8  H    1.014608   1.639724   0.000000
     9  O    2.857518   2.474539   3.758200   0.000000
    10  H    4.400818   4.477947   5.234786   2.396750   0.000000
 Symmetry turned off by external request.
 Stoichiometry    C2H5NO2
 Framework group  C1[X(C2H5NO2)]
 Deg. of freedom    24
 Full point group                 C1      NOp   1
 Rotational constants (GHZ):          10.0448581           3.8710003           2.8914898
 Leave Link  202 at Sat Nov 25 14:44:33 2023, MaxMem=   134217728 cpu:               0.1 elap:               0.0
 (Enter /home/emanuele/chem_software/gaussian//gdv/l301.exe)
 Standard basis: VSTO-6G (5D, 7F)
 Ernie: Thresh=  0.10000D-02 Tol=  0.10000D-05 Strict=F.
  NNHCO=     0 NNPyr=     0 NCTC=     0               EPep=         0.000000000
    EC=        83.181095114  ECS=         2.151247779   EG=         0.122567248
   EHC=         0.000974492  EAt=       -38.066560349  AtH=         1.329713788
 EPDDG=         0.000000000  ECC=        85.455884633 EAtT=        39.396274136
    25 basis functions,   150 primitive gaussians,    25 cartesian basis functions
    15 alpha electrons       15 beta electrons
       nuclear repulsion energy       124.8521587694 Hartrees.
 IExCor=       0 DFT=F Ex=HF Corr=None N6=None ScaHFX=  1.000000
 ScaDFX=  1.000000  1.000000  1.000000  1.000000  1.000000  0.000000
 ScaDFX=  0.000000  0.000000  0.000000  0.000000  0.000000  0.000000
 IRadAn=      5 IRanWt=     -1 IRanGd=            0 ICorTp=0 IEmpDi=  4
 Integral buffers will be    131072 words long.
 Regular integral format.
 Two-electron integral symmetry is turned off.
 Leave Link  301 at Sat Nov 25 14:44:33 2023, MaxMem=   134217728 cpu:               0.2 elap:               0.1
 (Enter /home/emanuele/chem_software/gaussian//gdv/l302.exe)
 Do NDO integrals.
 NPDir=0 NMtPBC=     1 NCelOv=     1 NCel=       1 NClECP=     1 NCelD=      1
         NCelK=      1 NCelE2=     1 NClLst=     1 CellRange=     0.0.
 One-electron integrals computed using PRISM.
 NBasis=    25 RedAO= F EigKep=  0.00D+00  NBF=    25
 NBsUse=    25 1.00D-04 EigRej=  0.00D+00 NBFU=    25
 Leave Link  302 at Sat Nov 25 14:44:33 2023, MaxMem=   134217728 cpu:               0.3 elap:               0.1
 (Enter /home/emanuele/chem_software/gaussian//gdv/l303.exe)
 DipDrv:  MaxL=1.
 Leave Link  303 at Sat Nov 25 14:44:33 2023, MaxMem=   134217728 cpu:               0.1 elap:               0.0
 (Enter /home/emanuele/chem_software/gaussian//gdv/l401.exe)
 Initial guess from the checkpoint file:  "5_zmat_qm.chk"
 B after Tr=     0.000000    0.000000    0.000000
         Rot=    1.000000    0.000000    0.000000    0.000000 Ang=   0.00 deg.
 AO Guess basis will be translated and rotated to current coordinates.
 JPrj=0 DoOrth=T DoCkMO=T.
 Leave Link  401 at Sat Nov 25 14:44:33 2023, MaxMem=   134217728 cpu:               0.8 elap:               0.2
 (Enter /home/emanuele/chem_software/gaussian//gdv/l502.exe)
 Keep J ints in memory in canonical form, NReq=861126.
 FoFCou: FMM=F IPFlag=           0 FMFlag=           0 FMFlg1=           0
         NFxFlg=           0 DoJE=F BraDBF=F KetDBF=F FulRan=T
         wScrn=  0.000000 ICntrl=       600 IOpCl=  2 I1Cent=           0 NGrid=           0
         NMat0=    1 NMatS0=     55 NMatT0=    0 NMatD0=    1 NMtDS0=    0 NMtDT0=    0
 Symmetry not used in FoFCou.
 Two-electron integral symmetry not used.
 Closed shell SCF:
 Using DIIS extrapolation, IDIIS=  1040.
 Overlap will be assumed to be unity.
 NGot=   134217728 LenX=   134155015 LenY=   134153949
 Requested convergence on RMS density matrix=1.00D-08 within 128 cycles.
 Requested convergence on MAX density matrix=1.00D-06.
 Requested convergence on             energy=1.00D-06.
 No special actions if energy rises.

 Cycle   1  Pass 1  IDiag  1:
 E=-0.141194909460893    
 DIIS: error= 2.66D-03 at cycle   1 NSaved=   1.
 NSaved= 1 IEnMin= 1 EnMin=-0.141194909460893     IErMin= 1 ErrMin= 2.66D-03
 ErrMax= 2.66D-03  0.00D+00 EMaxC= 1.00D-01 BMatC= 2.84D-04 BMatP= 2.84D-04
 IDIUse=3 WtCom= 9.73D-01 WtEn= 2.66D-02
 Coeff-Com:  0.100D+01
 Coeff-En:   0.100D+01
 Coeff:      0.100D+01
 GapD=    2.000 DampG=2.000 DampE=1.000 DampFc=2.0000 IDamp=-1.
 RMSDP=1.23D-03 MaxDP=5.71D-03              OVMax= 0.00D+00

 Cycle   2  Pass 1  IDiag  3:
 E=-0.142174460629334     Delta-E=       -0.000979551168 Rises=F Damp=F
 DIIS: error= 9.51D-04 at cycle   2 NSaved=   2.
 NSaved= 2 IEnMin= 2 EnMin=-0.142174460629334     IErMin= 2 ErrMin= 9.51D-04
 ErrMax= 9.51D-04  0.00D+00 EMaxC= 1.00D-01 BMatC= 4.05D-05 BMatP= 2.84D-04
 IDIUse=3 WtCom= 9.90D-01 WtEn= 9.51D-03
 Coeff-Com: -0.535D+00 0.154D+01
 Coeff-En:   0.000D+00 0.100D+01
 Coeff:     -0.530D+00 0.153D+01
 Gap=     0.380 Goal=   None    Shift=    0.000
 RMSDP=8.07D-04 MaxDP=3.89D-03 DE=-9.80D-04 OVMax= 4.90D-03

 Cycle   3  Pass 1  IDiag  3:
 E=-0.142373897299038     Delta-E=       -0.000199436670 Rises=F Damp=F
 DIIS: error= 1.19D-04 at cycle   3 NSaved=   3.
 NSaved= 3 IEnMin= 3 EnMin=-0.142373897299038     IErMin= 3 ErrMin= 1.19D-04
 ErrMax= 1.19D-04  0.00D+00 EMaxC= 1.00D-01 BMatC= 1.14D-06 BMatP= 4.05D-05
 IDIUse=3 WtCom= 9.99D-01 WtEn= 1.19D-03
 Coeff-Com:  0.252D+00-0.804D+00 0.155D+01
 Coeff-En:   0.000D+00 0.000D+00 0.100D+01
 Coeff:      0.251D+00-0.803D+00 0.155D+01
 Gap=     0.380 Goal=   None    Shift=    0.000
 RMSDP=1.81D-04 MaxDP=1.04D-03 DE=-1.99D-04 OVMax= 1.26D-03

 Cycle   4  Pass 1  IDiag  3:
 E=-0.142381381396831     Delta-E=       -0.000007484098 Rises=F Damp=F
 DIIS: error= 3.86D-05 at cycle   4 NSaved=   4.
 NSaved= 4 IEnMin= 4 EnMin=-0.142381381396831     IErMin= 4 ErrMin= 3.86D-05
 ErrMax= 3.86D-05  0.00D+00 EMaxC= 1.00D-01 BMatC= 4.91D-08 BMatP= 1.14D-06
 IDIUse=1 WtCom= 1.00D+00 WtEn= 0.00D+00
 Coeff-Com: -0.146D+00 0.473D+00-0.996D+00 0.167D+01
 Coeff:     -0.146D+00 0.473D+00-0.996D+00 0.167D+01
 Gap=     0.380 Goal=   None    Shift=    0.000
 RMSDP=4.24D-05 MaxDP=3.25D-04 DE=-7.48D-06 OVMax= 4.59D-04

 Cycle   5  Pass 1  IDiag  3:
 E=-0.142381762317839     Delta-E=       -0.000000380921 Rises=F Damp=F
 DIIS: error= 1.03D-05 at cycle   5 NSaved=   5.
 NSaved= 5 IEnMin= 5 EnMin=-0.142381762317839     IErMin= 5 ErrMin= 1.03D-05
 ErrMax= 1.03D-05  0.00D+00 EMaxC= 1.00D-01 BMatC= 2.93D-09 BMatP= 4.91D-08
 IDIUse=1 WtCom= 1.00D+00 WtEn= 0.00D+00
 Coeff-Com:  0.452D-01-0.147D+00 0.319D+00-0.718D+00 0.150D+01
 Coeff:      0.452D-01-0.147D+00 0.319D+00-0.718D+00 0.150D+01
 Gap=     0.380 Goal=   None    Shift=    0.000
 RMSDP=1.13D-05 MaxDP=9.71D-05 DE=-3.81D-07 OVMax= 1.39D-04

 Cycle   6  Pass 1  IDiag  3:
 E=-0.142381786001380     Delta-E=       -0.000000023684 Rises=F Damp=F
 DIIS: error= 1.93D-06 at cycle   6 NSaved=   6.
 NSaved= 6 IEnMin= 6 EnMin=-0.142381786001380     IErMin= 6 ErrMin= 1.93D-06
 ErrMax= 1.93D-06  0.00D+00 EMaxC= 1.00D-01 BMatC= 1.73D-10 BMatP= 2.93D-09
 IDIUse=1 WtCom= 1.00D+00 WtEn= 0.00D+00
 Coeff-Com: -0.824D-02 0.270D-01-0.602D-01 0.179D+00-0.616D+00 0.148D+01
 Coeff:     -0.824D-02 0.270D-01-0.602D-01 0.179D+00-0.616D+00 0.148D+01
 Gap=     0.380 Goal=   None    Shift=    0.000
 RMSDP=2.47D-06 MaxDP=1.92D-05 DE=-2.37D-08 OVMax= 3.01D-05

 Cycle   7  Pass 1  IDiag  3:
 E=-0.142381787221495     Delta-E=       -0.000000001220 Rises=F Damp=F
 DIIS: error= 3.42D-07 at cycle   7 NSaved=   7.
 NSaved= 7 IEnMin= 7 EnMin=-0.142381787221495     IErMin= 7 ErrMin= 3.42D-07
 ErrMax= 3.42D-07  0.00D+00 EMaxC= 1.00D-01 BMatC= 8.15D-12 BMatP= 1.73D-10
 IDIUse=1 WtCom= 1.00D+00 WtEn= 0.00D+00
 Coeff-Com:  0.137D-02-0.455D-02 0.105D-01-0.410D-01 0.184D+00-0.602D+00
 Coeff-Com:  0.145D+01
 Coeff:      0.137D-02-0.455D-02 0.105D-01-0.410D-01 0.184D+00-0.602D+00
 Coeff:      0.145D+01
 Gap=     0.380 Goal=   None    Shift=    0.000
 RMSDP=4.77D-07 MaxDP=2.50D-06 DE=-1.22D-09 OVMax= 4.72D-06

 Cycle   8  Pass 1  IDiag  3:
 E=-0.142381787276165     Delta-E=       -0.000000000055 Rises=F Damp=F
 DIIS: error= 1.12D-07 at cycle   8 NSaved=   8.
 NSaved= 8 IEnMin= 8 EnMin=-0.142381787276165     IErMin= 8 ErrMin= 1.12D-07
 ErrMax= 1.12D-07  0.00D+00 EMaxC= 1.00D-01 BMatC= 5.70D-13 BMatP= 8.15D-12
 IDIUse=1 WtCom= 1.00D+00 WtEn= 0.00D+00
 Coeff-Com:  0.535D-05 0.280D-04-0.373D-03 0.788D-02-0.552D-01 0.222D+00
 Coeff-Com: -0.759D+00 0.158D+01
 Coeff:      0.535D-05 0.280D-04-0.373D-03 0.788D-02-0.552D-01 0.222D+00
 Coeff:     -0.759D+00 0.158D+01
 Gap=     0.380 Goal=   None    Shift=    0.000
 RMSDP=1.37D-07 MaxDP=8.63D-07 DE=-5.47D-11 OVMax= 1.03D-06

 Cycle   9  Pass 1  IDiag  3:
 E=-0.142381787280186     Delta-E=       -0.000000000004 Rises=F Damp=F
 DIIS: error= 1.87D-08 at cycle   9 NSaved=   9.
 NSaved= 9 IEnMin= 9 EnMin=-0.142381787280186     IErMin= 9 ErrMin= 1.87D-08
 ErrMax= 1.87D-08  0.00D+00 EMaxC= 1.00D-01 BMatC= 1.85D-14 BMatP= 5.70D-13
 IDIUse=1 WtCom= 1.00D+00 WtEn= 0.00D+00
 Coeff-Com: -0.372D-04 0.102D-03-0.944D-04-0.252D-02 0.204D-01-0.859D-01
 Coeff-Com:  0.312D+00-0.762D+00 0.152D+01
 Coeff:     -0.372D-04 0.102D-03-0.944D-04-0.252D-02 0.204D-01-0.859D-01
 Coeff:      0.312D+00-0.762D+00 0.152D+01
 Gap=     0.380 Goal=   None    Shift=    0.000
 RMSDP=2.32D-08 MaxDP=1.68D-07 DE=-4.02D-12 OVMax= 1.43D-07

 Cycle  10  Pass 1  IDiag  3:
 E=-0.142381787280144     Delta-E=        0.000000000000 Rises=F Damp=F
 DIIS: error= 3.57D-09 at cycle  10 NSaved=  10.
 NSaved=10 IEnMin= 9 EnMin=-0.142381787280186     IErMin=10 ErrMin= 3.57D-09
 ErrMax= 3.57D-09  0.00D+00 EMaxC= 1.00D-01 BMatC= 7.30D-16 BMatP= 1.85D-14
 IDIUse=1 WtCom= 1.00D+00 WtEn= 0.00D+00
 Coeff-Com:  0.222D-04-0.649D-04 0.920D-04 0.833D-03-0.750D-02 0.325D-01
 Coeff-Com: -0.121D+00 0.307D+00-0.739D+00 0.153D+01
 Coeff:      0.222D-04-0.649D-04 0.920D-04 0.833D-03-0.750D-02 0.325D-01
 Coeff:     -0.121D+00 0.307D+00-0.739D+00 0.153D+01
 Gap=     0.380 Goal=   None    Shift=    0.000
 RMSDP=4.59D-09 MaxDP=2.40D-08 DE= 4.26D-14 OVMax= 2.75D-08

 Cycle  11  Pass 2  IDiag  1:
 SCF Done:  E(RPM6) = -0.142381787280     A.U. after   11 cycles
            NFock= 10  Conv=0.46D-08     -V/T= 0.9978
 KE=-6.556652740782D+01 PE=-1.631735534554D+02 EE= 1.037455403065D+02
 Leave Link  502 at Sat Nov 25 14:44:34 2023, MaxMem=   134217728 cpu:               0.2 elap:               0.0
 (Enter /home/emanuele/chem_software/gaussian//gdv/l701.exe)
 ... and contract with generalized density number  0.
 Compute integral first derivatives.
 Leave Link  701 at Sat Nov 25 14:44:34 2023, MaxMem=   134217728 cpu:               0.2 elap:               0.1
 (Enter /home/emanuele/chem_software/gaussian//gdv/l702.exe)
 L702 exits ... SP integral derivatives will be done elsewhere.
 Leave Link  702 at Sat Nov 25 14:44:34 2023, MaxMem=   134217728 cpu:               0.1 elap:               0.0
 (Enter /home/emanuele/chem_software/gaussian//gdv/l703.exe)
 Integral derivatives from FoFJK, PRISM(SPDF).
 Compute integral first derivatives, UseDBF=F ICtDFT=           0.
 Calling FoFJK, ICntrl=      2127 FMM=F ISym2X=0 I1Cent= 0 IOpClX= 0 NMat=1 NMatS=1 NMatT=0.
 FoFJK:  IHMeth=40 ICntrl=    2127 DoSepK=F KAlg= 0 I1Cent=           0 FoldK=F
 IRaf=         0 NMat=       1 IRICut=       1 DoRegI=T DoRafI=F ISym2E= 0 IDoP0=3 IntGTp=3.
 FoFCou: FMM=F IPFlag=           0 FMFlag=      100000 FMFlg1=         800
         NFxFlg=           0 DoJE=F BraDBF=F KetDBF=F FulRan=T
         wScrn=  0.000000 ICntrl=      2127 IOpCl=  0 I1Cent=           0 NGrid=           0
         NMat0=    1 NMatS0=      1 NMatT0=    0 NMatD0=    1 NMtDS0=    0 NMtDT0=    0
 Symmetry not used in FoFCou.
 Leave Link  703 at Sat Nov 25 14:44:34 2023, MaxMem=   134217728 cpu:               0.2 elap:               0.0
 (Enter /home/emanuele/chem_software/gaussian//gdv/l716.exe)
 Dipole        = 8.21467052D-02-7.12223302D-01 7.65727011D-01
 -------------------------------------------------------------------
 Center     Atomic                   Forces (Hartrees/Bohr)
 Number     Number              X              Y              Z
 -------------------------------------------------------------------
      1        6           0.003283763    0.003077574   -0.000650803
      2        8           0.000730236   -0.003353901    0.000014465
      3        6          -0.005735535    0.001096520    0.002385254
      4        1           0.001006283   -0.000026355   -0.001609909
      5        1          -0.000054269   -0.000844905   -0.000303975
      6        7           0.000942021   -0.000964213   -0.000099389
      7        1           0.000096444    0.001058218   -0.000332349
      8        1           0.001511657    0.000153377    0.000209960
      9        8          -0.001261368   -0.002142963    0.000570888
     10        1          -0.000519232    0.001946647   -0.000184142
 -------------------------------------------------------------------
 Cartesian Forces:  Max     0.005735535 RMS     0.001757689
 Leave Link  716 at Sat Nov 25 14:44:34 2023, MaxMem=   134217728 cpu:               0.1 elap:               0.0
 (Enter /home/emanuele/chem_software/gaussian//gdv/l103.exe)

 GradGradGradGradGradGradGradGradGradGradGradGradGradGradGradGradGradGrad
 Berny optimization.
 Using GEDIIS/GDIIS optimizer.
 FormGI is forming the generalized inverse of G from B-inverse, IUseBI=4.
 Internal  Forces:  Max     0.002625518 RMS     0.001101103
 Search for a local minimum.
 Step number   3 out of a maximum of  100 on scan point     1 out of    11
 All quantities printed in internal units (Hartrees-Bohrs-Radians)
 RMS Force = .10809D-02 SwitMx=.10000D-02 MixMth= 1
 Mixed Optimization -- RFO/linear search
 Update second derivatives using D2CorX and points    1    2    3
 DE= -1.02D-03 DEPred=-9.06D-04 R= 1.13D+00
 TightC=F SS=  1.41D+00  RLast= 1.27D-01 DXNew= 8.4853D-01 3.8025D-01
 Trust test= 1.13D+00 RLast= 1.27D-01 DXMaxT set to 5.05D-01
 ITU=  1  1  0
 Use linear search instead of GDIIS.
     Eigenvalues ---    0.00611   0.01011   0.02328   0.02587   0.04890
     Eigenvalues ---    0.06236   0.08824   0.12934   0.15976   0.16550
     Eigenvalues ---    0.17231   0.20008   0.22615   0.25171   0.30905
     Eigenvalues ---    0.33798   0.34477   0.43986   0.45770   0.46801
     Eigenvalues ---    0.53087   0.59682   1.039131000.000001000.00000
     Eigenvalues --- 1000.000001000.000001000.000001000.000001000.00000
     Eigenvalues --- 1000.000001000.000001000.000001000.000001000.00000
     Eigenvalues --- 1000.00000
 RFO step:  Lambda=-2.86025398D-04 EMin= 6.10844560D-03
 Quartic linear search produced a step of  0.13989.
 Iteration  1 RMS(Cart)=  0.02690073 RMS(Int)=  0.00041394
 Iteration  2 RMS(Cart)=  0.00049351 RMS(Int)=  0.00004769
 Iteration  3 RMS(Cart)=  0.00000022 RMS(Int)=  0.00004769
 Fixing frozen coordinates.
 Iteration  1 RMS(Cart)=  0.00000181 RMS(Int)=  0.00000230
 Iteration  2 RMS(Cart)=  0.00000095 RMS(Int)=  0.00000257
 ITry= 1 IFail=0 DXMaxC= 9.22D-02 DCOld= 1.00D+10 DXMaxT= 5.05D-01 DXLimC= 3.00D+00 Rises=F
 Variable       Old X    -DE/DX   Delta X   Delta X   Delta X     New X
                                 (Linear)    (Quad)   (Total)
    R1        2.59192   0.00067  -0.00079   0.00294   0.00215   2.59406
    R2        2.86210  -0.00209  -0.00434  -0.00680  -0.01114   2.85097
    R3        2.28167  -0.00199  -0.00058  -0.00186  -0.00244   2.27923
    R4        1.87080   0.00144   0.00065   0.00452   0.00517   1.87597
    R5        2.11339  -0.00144  -0.00016  -0.00386  -0.00402   2.10937
    R6        2.11482   0.00084   0.00110   0.00445   0.00555   2.12037
    R7        2.80717   0.00224  -0.00190   0.00941   0.00752   2.81469
    R8        1.92645   0.00087  -0.00000   0.00269   0.00269   1.92914
    R9        1.91733   0.00126   0.00020   0.00349   0.00370   1.92103
    A1        1.91440  -0.00146  -0.00302  -0.00776  -0.01086   1.90355
    A2        2.10985  -0.00082  -0.00059  -0.00524  -0.00590   2.10395
    A3        2.25851   0.00228   0.00367   0.01237   0.01596   2.27447
    A4        1.98863  -0.00263  -0.00418  -0.01490  -0.01908   1.96955
    A5        1.88130   0.00054   0.00237   0.00660   0.00895   1.89025
    A6        1.91393  -0.00030   0.00132  -0.00160  -0.00031   1.91362
    A7        1.91339   0.00110  -0.00242   0.00596   0.00352   1.91691
    A8        1.86073  -0.00018   0.00131  -0.00254  -0.00128   1.85945
    A9        2.01285  -0.00075  -0.00022  -0.00383  -0.00407   2.00878
   A10        1.87981  -0.00045  -0.00210  -0.00492  -0.00704   1.87277
   A11        1.93241   0.00061  -0.00362   0.00567   0.00199   1.93440
   A12        1.91127   0.00140  -0.00293   0.00989   0.00690   1.91817
   A13        1.87520  -0.00054  -0.00035  -0.00397  -0.00443   1.87077
    D1        3.13010   0.00013   0.00262  -0.00115   0.00160   3.13170
    D2        0.01682   0.00026   0.00116   0.02001   0.02104   0.03786
    D3       -1.31962  -0.00012  -0.00651  -0.03445  -0.04093  -1.36055
    D4        0.69952  -0.00020  -0.00303  -0.03467  -0.03766   0.66186
    D5        2.75993  -0.00027  -0.00626  -0.03807  -0.04431   2.71562
    D6        1.79053  -0.00034  -0.00502  -0.05837  -0.06343   1.72710
    D7       -2.47352  -0.00042  -0.00155  -0.05859  -0.06016  -2.53368
    D8       -0.41311  -0.00049  -0.00478  -0.06198  -0.06681  -0.47992
    D9        0.65207  -0.00012   0.00107   0.01060   0.01163   0.66371
   D10        2.71666   0.00046  -0.00361   0.01529   0.01169   2.72835
   D11       -1.47459  -0.00114  -0.00000   0.00000  -0.00000  -1.47459
   D12        0.58999  -0.00057  -0.00468   0.00469   0.00006   0.59005
   D13        2.73360  -0.00012  -0.00002   0.00915   0.00911   2.74271
   D14       -1.48500   0.00045  -0.00470   0.01384   0.00917  -1.47583
         Item               Value     Threshold  Converged?
 Maximum Force            0.002626     0.000450     NO 
 RMS     Force            0.001081     0.000300     NO 
 Maximum Displacement     0.092250     0.001800     NO 
 RMS     Displacement     0.027037     0.001200     NO 
 Predicted change in Energy=-1.681522D-04
 Lowest energy point so far.  Saving SCF results.
 GradGradGradGradGradGradGradGradGradGradGradGradGradGradGradGradGradGrad

 Leave Link  103 at Sat Nov 25 14:44:34 2023, MaxMem=   134217728 cpu:               0.0 elap:               0.0
 (Enter /home/emanuele/chem_software/gaussian//gdv/l202.exe)
                          Input orientation:                          
 ---------------------------------------------------------------------
 Center     Atomic      Atomic             Coordinates (Angstroms)
 Number     Number       Type             X           Y           Z
 ---------------------------------------------------------------------
      1          6           0       -0.528853    0.149697    0.057134
      2          8           0       -1.622135   -0.660666   -0.122862
      3          6           0        0.709030   -0.707190    0.154422
      4          1           0        0.749588   -1.149516    1.178472
      5          1           0        0.629779   -1.567093   -0.562018
      6          7           0        1.905928    0.087659   -0.238228
      7          1           0        1.831978    1.047356    0.101857
      8          1           0        2.740938   -0.315265    0.178677
      9          8           0       -0.661668    1.343804    0.162890
     10          1           0       -2.472559   -0.152373   -0.185392
 ---------------------------------------------------------------------
                    Distance matrix (angstroms):
                    1          2          3          4          5
     1  C    0.000000
     2  O    1.372718   0.000000
     3  C    1.508666   2.348059   0.000000
     4  H    2.140038   2.749094   1.116233   0.000000
     5  H    2.161746   2.466897   1.122052   1.793886   0.000000
     6  N    2.453415   3.608397   1.489471   2.207886   2.114616
     7  H    2.526126   3.859888   2.083797   2.675241   2.953194
     8  H    3.304920   4.387099   2.069504   2.379293   2.563727
     9  O    1.206116   2.240994   2.466873   3.039687   3.265983
    10  H    1.981934   0.992720   3.247430   3.638221   3.430420
                    6          7          8          9         10
     6  N    0.000000
     7  H    1.020855   0.000000
     8  H    1.016563   1.639771   0.000000
     9  O    2.886407   2.511947   3.785563   0.000000
    10  H    4.385380   4.477823   5.228732   2.374694   0.000000
 Symmetry turned off by external request.
 Stoichiometry    C2H5NO2
 Framework group  C1[X(C2H5NO2)]
 Deg. of freedom    24
 Full point group                 C1      NOp   1
 Rotational constants (GHZ):           9.9838316           3.8685437           2.8952675
 Leave Link  202 at Sat Nov 25 14:44:34 2023, MaxMem=   134217728 cpu:               0.1 elap:               0.0
[...]
    A1        1.92993  -0.00001  -0.00008   0.00005  -0.00003   1.92990
    A2        2.09528   0.00001  -0.00002   0.00002  -0.00000   2.09528
    A3        2.25714   0.00000   0.00010  -0.00008   0.00003   2.25717
    A4        1.96678  -0.00000   0.00002  -0.00002  -0.00001   1.96677
    A5        1.89643  -0.00012   0.00017  -0.00000   0.00017   1.89660
    A6        1.88937   0.00000   0.00001   0.00008   0.00009   1.88946
    A7        1.94539  -0.00011  -0.00007  -0.00013  -0.00020   1.94518
    A8        1.85919   0.00012   0.00010   0.00002   0.00012   1.85931
    A9        1.99932   0.00005  -0.00013   0.00001  -0.00011   1.99921
   A10        1.86921   0.00007  -0.00008   0.00005  -0.00004   1.86917
   A11        1.93028  -0.00010   0.00003  -0.00013  -0.00010   1.93018
   A12        1.91554  -0.00007   0.00002  -0.00007  -0.00004   1.91550
   A13        1.87051  -0.00009   0.00004   0.00011   0.00015   1.87066
    D1        3.11880  -0.00000  -0.00020  -0.00007  -0.00027   3.11853
    D2       -0.06258  -0.00001  -0.00012  -0.00031  -0.00042  -0.06300
    D3        1.38285  -0.00006  -0.00018  -0.00017  -0.00035   1.38250
    D4       -2.88786   0.00001   0.00004  -0.00011  -0.00008  -2.88794
    D5       -0.83646   0.00004  -0.00010  -0.00009  -0.00019  -0.83665
    D6       -1.71422  -0.00006  -0.00027   0.00009  -0.00018  -1.71440
    D7        0.29826   0.00002  -0.00005   0.00014   0.00009   0.29835
    D8        2.34966   0.00005  -0.00019   0.00017  -0.00002   2.34964
    D9        0.68761   0.00017   0.00008  -0.00010  -0.00002   0.68758
   D10        2.74778  -0.00004   0.00016  -0.00008   0.00008   2.74785
   D11       -1.47459   0.00039  -0.00000   0.00000  -0.00000  -1.47459
   D12        0.58558   0.00017   0.00008   0.00002   0.00010   0.58568
   D13        2.75115   0.00016   0.00000  -0.00006  -0.00006   2.75110
   D14       -1.47186  -0.00005   0.00008  -0.00004   0.00004  -1.47182
         Item               Value     Threshold  Converged?
 Maximum Force            0.000045     0.000450     YES
 RMS     Force            0.000017     0.000300     YES
 Maximum Displacement     0.000591     0.001800     YES
 RMS     Displacement     0.000177     0.001200     YES
 Predicted change in Energy=-1.915172D-08
 Optimization completed.
    -- Stationary point found.
                           ----------------------------
                           !   Optimized Parameters   !
                           ! (Angstroms and Degrees)  !
 --------------------------                            --------------------------
 ! Name  Definition              Value          Derivative Info.                !
 --------------------------------------------------------------------------------
 ! R1    R(1,2)                  1.3787         -DE/DX =    0.0                 !
 ! R2    R(1,3)                  1.5099         -DE/DX =    0.0                 !
 ! R3    R(1,9)                  1.2049         -DE/DX =    0.0                 !
 ! R4    R(2,10)                 0.9949         -DE/DX =    0.0                 !
 ! R5    R(3,4)                  1.1152         -DE/DX =    0.0                 !
 ! R6    R(3,5)                  1.1228         -DE/DX =    0.0                 !
 ! R7    R(3,6)                  1.4893         -DE/DX =    0.0                 !
 ! R8    R(6,7)                  1.0203         -DE/DX =    0.0                 !
 ! R9    R(6,8)                  1.0167         -DE/DX =    0.0                 !
 ! A1    A(2,1,3)              110.5768         -DE/DX =    0.0                 !
 ! A2    A(2,1,9)              120.0509         -DE/DX =    0.0                 !
 ! A3    A(3,1,9)              129.3247         -DE/DX =    0.0                 !
 ! A4    A(1,2,10)             112.6882         -DE/DX =    0.0                 !
 ! A5    A(1,3,4)              108.6575         -DE/DX =   -0.0001              !
 ! A6    A(1,3,5)              108.2532         -DE/DX =    0.0                 !
 ! A7    A(1,3,6)              111.4624         -DE/DX =   -0.0001              !
 ! A8    A(4,3,5)              106.5237         -DE/DX =    0.0001              !
 ! A9    A(4,3,6)              114.5526         -DE/DX =    0.0001              !
 ! A10   A(5,3,6)              107.0978         -DE/DX =    0.0001              !
 ! A11   A(3,6,7)              110.5967         -DE/DX =   -0.0001              !
 ! A12   A(3,6,8)              109.7523         -DE/DX =   -0.0001              !
 ! A13   A(7,6,8)              107.1724         -DE/DX =   -0.0001              !
 ! D1    D(3,1,2,10)           178.6942         -DE/DX =    0.0                 !
 ! D2    D(9,1,2,10)            -3.5856         -DE/DX =    0.0                 !
 ! D3    D(2,1,3,4)             79.2315         -DE/DX =   -0.0001              !
 ! D4    D(2,1,3,5)           -165.4623         -DE/DX =    0.0                 !
 ! D5    D(2,1,3,6)            -47.9257         -DE/DX =    0.0                 !
 ! D6    D(9,1,3,4)            -98.2174         -DE/DX =   -0.0001              !
 ! D7    D(9,1,3,5)             17.0888         -DE/DX =    0.0                 !
 ! D8    D(9,1,3,6)            134.6254         -DE/DX =    0.0                 !
 ! D9    D(1,3,6,7)             39.397          -DE/DX =    0.0002              !
 ! D10   D(1,3,6,8)            157.4361         -DE/DX =    0.0                 !
 ! D11   D(4,3,6,7)            -84.4877         -DE/DX =    0.0004              !
 ! D12   D(4,3,6,8)             33.5514         -DE/DX =    0.0002              !
 ! D13   D(5,3,6,7)            157.6294         -DE/DX =    0.0002              !
 ! D14   D(5,3,6,8)            -84.3315         -DE/DX =   -0.0001              !
 --------------------------------------------------------------------------------
 Lowest energy point so far.  Saving SCF results.
 Summary of Optimized Potential Surface Scan (add -0.0 to energies):
                           1         2         3         4         5
     Eigenvalues --    -0.14268  -0.14257  -0.14178  -0.14169  -0.14214
           R1           1.37436   1.37548   1.37712   1.37783   1.37806
           R2           1.50956   1.51579   1.52128   1.51993   1.51431
           R3           1.20661   1.20528   1.20418   1.20386   1.20438
           R4           0.99572   0.99496   0.99360   0.99354   0.99480
           R5           1.11511   1.11454   1.11340   1.11489   1.11929
           R6           1.12199   1.11871   1.11492   1.11382   1.11456
           R7           1.48871   1.48464   1.48225   1.48303   1.48681
           R8           1.02073   1.01766   1.01401   1.01318   1.01557
           R9           1.01644   1.01521   1.01337   1.01450   1.01902
           A1         109.48893 109.29865 109.21826 109.36973 109.89770
           A2         120.52539 120.47797 120.40798 120.36503 120.27340
           A3         129.95291 130.17153 130.33349 130.22907 129.77833
           A4         112.81521 112.92714 112.96948 112.87280 112.72129
           A5         108.48459 108.17926 108.06683 108.40483 108.44085
           A6         109.88107 109.82597 109.60900 109.58448 108.97806
           A7         109.71691 106.84719 105.19268 105.62909 108.27023
           A8         106.29823 107.15942 107.44660 107.26823 107.32543
           A9         114.89463 115.38217 114.22192 111.47379 108.65247
           A10        107.45351 109.38535 112.17855 114.35341 115.00754
           A11        110.73203 110.76271 111.35227 111.19022 110.11016
           A12        109.84709 110.35420 111.19406 111.07616 110.28660
           A13        107.25532 107.92245 108.57696 108.83360 107.81295
           D1         179.72409-179.33110-177.75310-177.29108-177.90418
           D2           1.60685   3.03114   4.32522   4.68031   4.43744
           D3         -87.90725-109.52451-130.37628-152.98866-179.82545
           D4          27.91274   7.12236 -13.56858 -36.21654 -63.29746
           D5         145.84348 125.66623 107.22807  87.42662  62.45643
           D6          89.97698  67.81099  47.27219  24.78328  -2.45704
           D7        -154.20304-175.54214 164.07988 141.55539 114.07094
           D8         -36.27230 -56.99827 -75.12346 -94.80144-120.17516
           D9          38.03343  71.80931 105.84212 141.05147 177.09475
           D10        156.31594-168.74038-132.92894 -97.58538 -64.04591
           D11        -84.48772 -48.48778 -12.48776  23.51224  59.51215
           D12         33.79478  70.96253 108.74118 144.87539 178.37148
           D13        157.46354-169.36000-135.06410 -98.37198 -60.77145
           D14        -84.25395 -49.90969 -13.83516  22.99116  58.08788
                           6         7         8         9        10
     Eigenvalues --    -0.14178  -0.14390  -0.14705  -0.14607  -0.14262
           R1           1.37882   1.37838   1.37869   1.37871   1.37893
           R2           1.50906   1.50911   1.51407   1.51538   1.51071
           R3           1.20522   1.20629   1.20581   1.20568   1.20568
           R4           0.99504   0.99519   0.99470   0.99486   0.99500
           R5           1.12361   1.12388   1.12130   1.11877   1.11654
           R6           1.11540   1.11869   1.12013   1.12131   1.12340
           R7           1.48985   1.48093   1.47458   1.47849   1.48777
           R8           1.01686   1.01520   1.01715   1.02025   1.02041
           R9           1.02030   1.01723   1.01801   1.01882   1.01817
           A1         110.87250 111.38698 110.85744 111.00268 111.25183
           A2         119.94953 119.76622 119.85850 119.83886 119.80808
           A3         129.13903 128.84396 129.28406 129.15821 128.92525
           A4         112.66428 112.60765 112.70450 112.72269 112.65727
           A5         108.16221 109.08716 108.55539 107.18510 107.28349
           A6         108.31908 108.03701 108.21801 108.07162 108.01195
           A7         112.87762 116.65195 116.87310 116.56728 115.28803
           A8         106.37300 103.82739 104.51135 106.32635 106.61823
           A9         106.71202 107.14109 108.53206 110.22391 112.49812
           A10        114.03914 111.31652 109.44539 107.99357 106.73176
           A11        109.70406 110.73402 110.68455 110.60360 110.98901
           A12        110.80541 111.60459 110.83121 110.12751 109.73945
           A13        106.77678 108.16615 107.17122 105.61425 105.66886
           D1        -178.86624-179.11441-179.70511 179.44871 179.10038
           D2           3.20140   1.44582   0.28125  -0.71850  -2.17861
           D3         159.66676 136.93320 124.22054 117.10494  98.27782
           D4         -85.42779-110.81663-122.90337-128.66337-147.13213
           D5          41.83335  15.42506   1.13099  -6.89627 -27.89491
           D6         -22.64319 -43.69119 -55.76418 -62.70800 -80.29565
           D7          92.26226  68.55898  57.11191  51.52369  34.29441
           D8        -140.47660-165.19933-178.85372 173.29079 153.53163
           D9        -145.80685-105.96146 -69.38599 -34.05824   2.97040
           D10        -28.15723  14.60026  49.38422  82.30350 119.39325
           D11         95.51224 131.51223 167.51246-156.48786-120.48789
           D12       -146.83814-107.92604 -73.71733 -40.12612  -4.06504
           D13        -21.62961  18.63073  54.02120  87.74986 122.91293
           D14         96.02001 139.19245 172.79141-155.88840-120.66422
                          11
     Eigenvalues --    -0.14186
           R1           1.37867
           R2           1.50989
           R3           1.20493
           R4           0.99485
           R5           1.11517
           R6           1.12275
           R7           1.48932
           R8           1.02028
           R9           1.01665
           A1         110.57683
           A2         120.05093
           A3         129.32472
           A4         112.68822
           A5         108.65746
           A6         108.25317
           A7         111.46242
           A8         106.52373
           A9         114.55261
           A10        107.09784
           A11        110.59674
           A12        109.75228
           A13        107.17239
           D1         178.69424
           D2          -3.58558
           D3          79.23148
           D4        -165.46233
           D5         -47.92574
           D6         -98.21735
           D7          17.08883
           D8         134.62543
           D9          39.39699
           D10        157.43606
           D11        -84.48770
           D12         33.55136
           D13        157.62941
           D14        -84.33153
 Largest change from initial coordinates is atom    9       1.380 Angstoms.
 GradGradGradGradGradGradGradGradGradGradGradGradGradGradGradGradGradGrad

 Leave Link  103 at Sat Nov 25 14:45:27 2023, MaxMem=   134217728 cpu:               0.1 elap:               0.0
 (Enter /home/emanuele/chem_software/gaussian//gdv/l202.exe)
                          Input orientation:                          
 ---------------------------------------------------------------------
 Center     Atomic      Atomic             Coordinates (Angstroms)
 Number     Number       Type             X           Y           Z
 ---------------------------------------------------------------------
      1          6           0       -0.675676   -0.402674    0.274771
      2          8           0       -0.873883    0.200505   -0.948997
      3          6           0        0.737644   -0.176115    0.755372
      4          1           0        0.808571    0.851240    1.183301
      5          1           0        0.940514   -0.888274    1.599318
      6          7           0        1.730874   -0.470781   -0.314556
      7          1           0        1.392249   -0.141946   -1.219084
      8          1           0        2.599355    0.021463   -0.122159
      9          8           0       -1.586711   -0.970065    0.822432
     10          1           0       -1.790911    0.053059   -1.305447
 ---------------------------------------------------------------------
                    Distance matrix (angstroms):
                    1          2          3          4          5
     1  C    0.000000
     2  O    1.378666   0.000000
     3  C    1.509893   2.375654   0.000000
     4  H    2.144928   2.792992   1.115174   0.000000
     5  H    2.145297   3.312308   1.122752   1.793430   0.000000
     6  N    2.478594   2.763675   1.489322   2.200445   2.112317
     7  H    2.564351   2.307721   2.080421   2.664311   2.950332
     8  H    3.326150   3.574787   2.067624   2.366361   2.557901
     9  O    1.204927   2.239714   2.457128   3.030636   2.645204
    10  H    1.987091   0.994855   3.270028   3.686226   4.096882
                    6          7          8          9         10
     6  N    0.000000
     7  H    1.020279   0.000000
     8  H    1.016651   1.639223   0.000000
     9  O    3.542371   3.705101   4.404376   0.000000
    10  H    3.695841   3.190297   4.547043   2.369884   0.000000
 Symmetry turned off by external request.
 Stoichiometry    C2H5NO2
 Framework group  C1[X(C2H5NO2)]
 Deg. of freedom    24
 Full point group                 C1      NOp   1
 Rotational constants (GHZ):           9.4870808           3.9781934           3.0380057
 Leave Link  202 at Sat Nov 25 14:45:27 2023, MaxMem=   134217728 cpu:               0.1 elap:               0.0
 (Enter /home/emanuele/chem_software/gaussian//gdv/l601.exe)
 Copying SCF densities to generalized density rwf, IOpCl= 0 IROHF=0.

 **********************************************************************

            Population analysis using the SCF Density.

 **********************************************************************

 Alpha  occ. eigenvalues --       -1.20227      -1.16262      -1.12680      -0.95124      -0.80348
 Alpha  occ. eigenvalues --       -0.66586      -0.65356      -0.63062      -0.58500      -0.55810
 Alpha  occ. eigenvalues --       -0.52637      -0.50821      -0.45952      -0.42244      -0.36869
 Alpha virt. eigenvalues --        0.00989       0.04941       0.09287       0.10401       0.14214
 Alpha virt. eigenvalues --        0.15939       0.17378       0.18192       0.20447       0.23738
          Condensed to atoms (all electrons):
               1          2          3          4          5          6
     1  C    3.367722   0.000000   0.000000   0.000000   0.000000   0.000000
     2  O    0.000000   6.541469   0.000000   0.000000   0.000000   0.000000
     3  C    0.000000   0.000000   4.259612   0.000000   0.000000   0.000000
     4  H    0.000000   0.000000   0.000000   0.841480   0.000000   0.000000
     5  H    0.000000   0.000000   0.000000   0.000000   0.804268   0.000000
     6  N    0.000000   0.000000   0.000000   0.000000   0.000000   5.479915
     7  H    0.000000   0.000000   0.000000   0.000000   0.000000   0.000000
     8  H    0.000000   0.000000   0.000000   0.000000   0.000000   0.000000
     9  O    0.000000   0.000000   0.000000   0.000000   0.000000   0.000000
    10  H    0.000000   0.000000   0.000000   0.000000   0.000000   0.000000
               7          8          9         10
     1  C    0.000000   0.000000   0.000000   0.000000
     2  O    0.000000   0.000000   0.000000   0.000000
     3  C    0.000000   0.000000   0.000000   0.000000
     4  H    0.000000   0.000000   0.000000   0.000000
     5  H    0.000000   0.000000   0.000000   0.000000
     6  N    0.000000   0.000000   0.000000   0.000000
     7  H    0.775287   0.000000   0.000000   0.000000
     8  H    0.000000   0.786712   0.000000   0.000000
     9  O    0.000000   0.000000   6.488918   0.000000
    10  H    0.000000   0.000000   0.000000   0.654617
 Mulliken charges:
               1
     1  C    0.632278
     2  O   -0.541469
     3  C   -0.259612
     4  H    0.158520
     5  H    0.195732
     6  N   -0.479915
     7  H    0.224713
     8  H    0.213288
     9  O   -0.488918
    10  H    0.345383
 Sum of Mulliken charges =  -0.00000
 Mulliken charges with hydrogens summed into heavy atoms:
               1
     1  C    0.632278
     2  O   -0.196087
     3  C    0.094640
     6  N   -0.041914
     9  O   -0.488918
 Charge=             -0.0000 electrons
 Dipole moment (field-independent basis, Debye):
    X=              1.1821    Y=              2.6590    Z=             -0.4274  Tot=              2.9411
 N-N= 1.252069183025D+02 E-N=-1.638923693182D+02  KE=-6.555563072529D+01
 Leave Link  601 at Sat Nov 25 14:45:27 2023, MaxMem=   134217728 cpu:               0.1 elap:               0.0
 (Enter /home/emanuele/chem_software/gaussian//gdv/l9999.exe)
 Unable to Open any file for archive entry.
 1\1\GINC-EMANUELE-XPS-13-9343\Scan\RPM6\ZDO\C2H5N1O2\EMANUELE\25-Nov-2
 023\0\\#p nosymm geom=nocrowd opt=(modredundant,maxcycle=100) PM6\\Tit
 le\\0,1\C,-0.6756759943,-0.4026737445,0.2747712791\O,-0.8738834554,0.2
 005048,-0.9489967595\C,0.7376435162,-0.1761153073,0.7553717399\H,0.808
 5708766,0.8512403219,1.1833008237\H,0.9405135941,-0.888274263,1.599317
 7418\N,1.7308739077,-0.4707806219,-0.3145560918\H,1.392249049,-0.14194
 59801,-1.2190839741\H,2.5993549956,0.0214629992,-0.122158962\O,-1.5867
 107283,-0.9700652008,0.8224321721\H,-1.7909107613,0.0530589965,-1.3054
 469693\\Version=ES64L-GDVRevJ.14\HF=-0.1426829,-0.1425691,-0.1417768,-
 0.141688,-0.1421409,-0.1417751,-0.1438989,-0.1470529,-0.1460745,-0.142
 6169,-0.1418639\RMSD=7.614e-09,3.421e-09,3.618e-09,3.623e-09,1.627e-09
 ,7.707e-09,2.975e-09,3.204e-09,3.237e-09,9.296e-09,6.743e-09\PG=C01 [X
 (C2H5N1O2)]\\@
 The archive entry for this job was punched.


 NEVER TEACH A PIG TO SING.
 IT WASTES YOUR TIME AND ANNOYS THE PIG.
     -- SEEN ON A GREETING CARD
 Job cpu time:       0 days  0 hours  3 minutes 14.9 seconds.
 Elapsed time:       0 days  0 hours  0 minutes 49.6 seconds.
 File lengths (MBytes):  RWF=      6 Int=      0 D2E=      0 Chk=      2 Scr=      1
 Normal termination of Gaussian DV at Sat Nov 25 14:45:27 2023.
