 Entering Gaussian System, Link 0=g16
 Input=but_qm_26437.gjf
 Output=/home/e.falbo/force_field/but_qm.log
 Initial command:
 /cm/shared/gaussian/versions/g16.c01/intel64-sandybridge/g16/l1.exe "/local/scratch/e.falbo/gaurun26437/Gau-25055.inp" -scrdir="/local/scratch/e.falbo/gaurun26437/"
 Entering Link 1 = /cm/shared/gaussian/versions/g16.c01/intel64-sandybridge/g16/l1.exe PID=     25056.
  
 Copyright (c) 1988-2019, Gaussian, Inc.  All Rights Reserved.
  
 This is part of the Gaussian(R) 16 program.  It is based on
 the Gaussian(R) 09 system (copyright 2009, Gaussian, Inc.),
 the Gaussian(R) 03 system (copyright 2003, Gaussian, Inc.),
 the Gaussian(R) 98 system (copyright 1998, Gaussian, Inc.),
 the Gaussian(R) 94 system (copyright 1995, Gaussian, Inc.),
 the Gaussian 92(TM) system (copyright 1992, Gaussian, Inc.),
 the Gaussian 90(TM) system (copyright 1990, Gaussian, Inc.),
 the Gaussian 88(TM) system (copyright 1988, Gaussian, Inc.),
 the Gaussian 86(TM) system (copyright 1986, Carnegie Mellon
 University), and the Gaussian 82(TM) system (copyright 1983,
 Carnegie Mellon University). Gaussian is a federally registered
 trademark of Gaussian, Inc.
  
 This software contains proprietary and confidential information,
 including trade secrets, belonging to Gaussian, Inc.
  
 This software is provided under written license and may be
 used, copied, transmitted, or stored only in accord with that
 written license.
  
 The following legend is applicable only to US Government
 contracts under FAR:
  
                    RESTRICTED RIGHTS LEGEND
  
 Use, reproduction and disclosure by the US Government is
 subject to restrictions as set forth in subparagraphs (a)
 and (c) of the Commercial Computer Software - Restricted
 Rights clause in FAR 52.227-19.
  
 Gaussian, Inc.
 340 Quinnipiac St., Bldg. 40, Wallingford CT 06492
  
  
 ---------------------------------------------------------------
 Warning -- This program may not be used in any manner that
 competes with the business of Gaussian, Inc. or will provide
 assistance to any competitor of Gaussian, Inc.  The licensee
 of this program is prohibited from giving any competitor of
 Gaussian, Inc. access to this program.  By using this program,
 the user acknowledges that Gaussian, Inc. is engaged in the
 business of creating and licensing software in the field of
 computational chemistry and represents and warrants to the
 licensee that it is not a competitor of Gaussian, Inc. and that
 it will not use this program in any manner prohibited above.
 ---------------------------------------------------------------
  

 Cite this work as:
 Gaussian 16, Revision C.01,
 M. J. Frisch, G. W. Trucks, H. B. Schlegel, G. E. Scuseria, 
 M. A. Robb, J. R. Cheeseman, G. Scalmani, V. Barone, 
 G. A. Petersson, H. Nakatsuji, X. Li, M. Caricato, A. V. Marenich, 
 J. Bloino, B. G. Janesko, R. Gomperts, B. Mennucci, H. P. Hratchian, 
 J. V. Ortiz, A. F. Izmaylov, J. L. Sonnenberg, D. Williams-Young, 
 F. Ding, F. Lipparini, F. Egidi, J. Goings, B. Peng, A. Petrone, 
 T. Henderson, D. Ranasinghe, V. G. Zakrzewski, J. Gao, N. Rega, 
 G. Zheng, W. Liang, M. Hada, M. Ehara, K. Toyota, R. Fukuda, 
 J. Hasegawa, M. Ishida, T. Nakajima, Y. Honda, O. Kitao, H. Nakai, 
 T. Vreven, K. Throssell, J. A. Montgomery, Jr., J. E. Peralta, 
 F. Ogliaro, M. J. Bearpark, J. J. Heyd, E. N. Brothers, K. N. Kudin, 
 V. N. Staroverov, T. A. Keith, R. Kobayashi, J. Normand, 
 K. Raghavachari, A. P. Rendell, J. C. Burant, S. S. Iyengar, 
 J. Tomasi, M. Cossi, J. M. Millam, M. Klene, C. Adamo, R. Cammi, 
 J. W. Ochterski, R. L. Martin, K. Morokuma, O. Farkas, 
 J. B. Foresman, and D. J. Fox, Gaussian, Inc., Wallingford CT, 2019.
 
 ******************************************
 Gaussian 16:  ES64L-G16RevC.01  3-Jul-2019
                29-Oct-2021 
 ******************************************
 %Mem=58GB
 %NProcShared=16
 Will use up to   16 processors via shared memory.
 %Chk=but_qm.chk
 ----------------------------------------------------------------------
 #P B3LYP/def2TZVPP Geom=Connectivity opt=(calcall,tight,maxstep=7,maxc
 ycles=100) Freq
 ----------------------------------------------------------------------
 1/6=100,7=10,8=7,10=4,18=20,19=15,26=3,38=1,57=2/1,3;
 2/9=110,12=2,17=6,18=5,40=1/2;
 3/5=44,7=202,11=2,25=1,30=1,71=2,74=-5,140=1/1,2,3;
 4//1;
 5/5=2,38=5/2;
 8/6=4,10=90,11=11/1;
 11/6=1,8=1,9=11,15=111,16=1/1,2,10;
 10/6=1/2;
 6/7=2,8=2,9=2,10=2,18=1,28=1/1;
 7/10=1,25=1/1,2,3,16;
 1/6=100,7=10,8=7,10=4,18=20,19=15,26=3/3(3);
 2/9=110/2;
 7/8=1,9=1,25=1,44=-1/16;
 99//99;
 2/9=110/2;
 3/5=44,7=202,11=2,25=1,30=1,71=2,74=-5,140=1/1,2,3;
 4/5=5,16=3,69=1/1;
 5/5=2,38=5/2;
 8/6=4,10=90,11=11/1;
 11/6=1,8=1,9=11,15=111,16=1/1,2,10;
 10/6=1/2;
 7/10=1,25=1/1,2,3,16;
 1/6=100,7=10,8=7,10=4,18=20,19=15,26=3/3(-8);
 2/9=110/2;
 6/7=2,8=2,9=2,10=2,18=1,19=2,28=1/1;
 7/8=1,9=1,25=1,44=-1/16;
 99//99;
 Leave Link    1 at Fri Oct 29 10:01:04 2021, MaxMem=  7784628224 cpu:               0.5 elap:               0.0
 (Enter /cm/shared/gaussian/versions/g16.c01/intel64-sandybridge/g16/l101.exe)
 ----------------------
 Title C-CTard Required
 ----------------------
 Symbolic Z-matrix:
 Charge =  0 Multiplicity = 1
 C-CT                 -2.49467   0.37115   0. 
 H-HC                 -2.13802  -0.63766   0. 
 H-HC                 -2.138     0.87555  -0.87365 
 H-HC                 -3.56467   0.37116   0. 
 C-CT                 -1.98133   1.0971    1.2574 
 H-HC                 -0.91133   1.09709   1.25741 
 H-HC                 -2.338     0.59271   2.13106 
 C-CT                 -2.49464   2.54904   1.2574 
 H-HC                 -2.13797   3.05343   0.38375 
 H-HC                 -3.56464   2.54905   1.2574 
 C-CT                 -1.9813    3.27499   2.51481 
 H-HC                 -0.91131   3.27329   2.51579 
 H-HC                 -2.33636   4.28436   2.51384 
 H-HC                 -2.33957   2.77172   3.38846 
 
 ITRead=  0  0  0  0  0  0  0  0  0  0  0  0  0  0
 MicOpt= -1 -1 -1 -1 -1 -1 -1 -1 -1 -1 -1 -1 -1 -1
 NAtoms=     14 NQM=       14 NQMF=       0 NMMI=      0 NMMIF=      0
                NMic=       0 NMicF=      0.
                    Isotopes and Nuclear Properties:
 (Nuclear quadrupole moments (NQMom) in fm**2, nuclear magnetic moments (NMagM)
  in nuclear magnetons)

  Atom         1           2           3           4           5           6           7           8           9          10
 IAtWgt=          12           1           1           1          12           1           1          12           1           1
 AtmWgt=  12.0000000   1.0078250   1.0078250   1.0078250  12.0000000   1.0078250   1.0078250  12.0000000   1.0078250   1.0078250
 NucSpn=           0           1           1           1           0           1           1           0           1           1
 AtZEff=  -0.0000000  -0.0000000  -0.0000000  -0.0000000  -0.0000000  -0.0000000  -0.0000000  -0.0000000  -0.0000000  -0.0000000
 NQMom=    0.0000000   0.0000000   0.0000000   0.0000000   0.0000000   0.0000000   0.0000000   0.0000000   0.0000000   0.0000000
 NMagM=    0.0000000   2.7928460   2.7928460   2.7928460   0.0000000   2.7928460   2.7928460   0.0000000   2.7928460   2.7928460
 AtZNuc=   6.0000000   1.0000000   1.0000000   1.0000000   6.0000000   1.0000000   1.0000000   6.0000000   1.0000000   1.0000000

  Atom        11          12          13          14
 IAtWgt=          12           1           1           1
 AtmWgt=  12.0000000   1.0078250   1.0078250   1.0078250
 NucSpn=           0           1           1           1
 AtZEff=  -0.0000000  -0.0000000  -0.0000000  -0.0000000
 NQMom=    0.0000000   0.0000000   0.0000000   0.0000000
 NMagM=    0.0000000   2.7928460   2.7928460   2.7928460
 AtZNuc=   6.0000000   1.0000000   1.0000000   1.0000000
 Leave Link  101 at Fri Oct 29 10:01:05 2021, MaxMem=  7784628224 cpu:               5.5 elap:               0.4
 (Enter /cm/shared/gaussian/versions/g16.c01/intel64-sandybridge/g16/l103.exe)

 GradGradGradGradGradGradGradGradGradGradGradGradGradGradGradGradGradGrad
 Berny optimization.
 Initialization pass.
                           ----------------------------
                           !    Initial Parameters    !
                           ! (Angstroms and Degrees)  !
 --------------------------                            --------------------------
 ! Name  Definition              Value          Derivative Info.                !
 --------------------------------------------------------------------------------
 ! R1    R(1,2)                  1.07           calculate D2E/DX2 analytically  !
 ! R2    R(1,3)                  1.07           calculate D2E/DX2 analytically  !
 ! R3    R(1,4)                  1.07           calculate D2E/DX2 analytically  !
 ! R4    R(1,5)                  1.54           calculate D2E/DX2 analytically  !
 ! R5    R(5,6)                  1.07           calculate D2E/DX2 analytically  !
 ! R6    R(5,7)                  1.07           calculate D2E/DX2 analytically  !
 ! R7    R(5,8)                  1.54           calculate D2E/DX2 analytically  !
 ! R8    R(8,9)                  1.07           calculate D2E/DX2 analytically  !
 ! R9    R(8,10)                 1.07           calculate D2E/DX2 analytically  !
 ! R10   R(8,11)                 1.54           calculate D2E/DX2 analytically  !
 ! R11   R(11,12)                1.07           calculate D2E/DX2 analytically  !
 ! R12   R(11,13)                1.07           calculate D2E/DX2 analytically  !
 ! R13   R(11,14)                1.07           calculate D2E/DX2 analytically  !
 ! A1    A(2,1,3)              109.4712         calculate D2E/DX2 analytically  !
 ! A2    A(2,1,4)              109.4712         calculate D2E/DX2 analytically  !
 ! A3    A(2,1,5)              109.4712         calculate D2E/DX2 analytically  !
 ! A4    A(3,1,4)              109.4712         calculate D2E/DX2 analytically  !
 ! A5    A(3,1,5)              109.4713         calculate D2E/DX2 analytically  !
 ! A6    A(4,1,5)              109.4712         calculate D2E/DX2 analytically  !
 ! A7    A(1,5,6)              109.4712         calculate D2E/DX2 analytically  !
 ! A8    A(1,5,7)              109.4712         calculate D2E/DX2 analytically  !
 ! A9    A(1,5,8)              109.4712         calculate D2E/DX2 analytically  !
 ! A10   A(6,5,7)              109.4712         calculate D2E/DX2 analytically  !
 ! A11   A(6,5,8)              109.4713         calculate D2E/DX2 analytically  !
 ! A12   A(7,5,8)              109.4712         calculate D2E/DX2 analytically  !
 ! A13   A(5,8,9)              109.4712         calculate D2E/DX2 analytically  !
 ! A14   A(5,8,10)             109.4713         calculate D2E/DX2 analytically  !
 ! A15   A(5,8,11)             109.4712         calculate D2E/DX2 analytically  !
 ! A16   A(9,8,10)             109.4713         calculate D2E/DX2 analytically  !
 ! A17   A(9,8,11)             109.4712         calculate D2E/DX2 analytically  !
 ! A18   A(10,8,11)            109.4712         calculate D2E/DX2 analytically  !
 ! A19   A(8,11,12)            109.4712         calculate D2E/DX2 analytically  !
 ! A20   A(8,11,13)            109.4712         calculate D2E/DX2 analytically  !
 ! A21   A(8,11,14)            109.4712         calculate D2E/DX2 analytically  !
 ! A22   A(12,11,13)           109.4713         calculate D2E/DX2 analytically  !
 ! A23   A(12,11,14)           109.4712         calculate D2E/DX2 analytically  !
 ! A24   A(13,11,14)           109.4712         calculate D2E/DX2 analytically  !
 ! D1    D(2,1,5,6)             59.9999         calculate D2E/DX2 analytically  !
 ! D2    D(2,1,5,7)            -60.0001         calculate D2E/DX2 analytically  !
 ! D3    D(2,1,5,8)            179.9999         calculate D2E/DX2 analytically  !
 ! D4    D(3,1,5,6)            -60.0001         calculate D2E/DX2 analytically  !
 ! D5    D(3,1,5,7)            179.9999         calculate D2E/DX2 analytically  !
 ! D6    D(3,1,5,8)             59.9999         calculate D2E/DX2 analytically  !
 ! D7    D(4,1,5,6)            179.9999         calculate D2E/DX2 analytically  !
 ! D8    D(4,1,5,7)             59.9999         calculate D2E/DX2 analytically  !
 ! D9    D(4,1,5,8)            -60.0001         calculate D2E/DX2 analytically  !
 ! D10   D(1,5,8,9)            -60.0002         calculate D2E/DX2 analytically  !
 ! D11   D(1,5,8,10)            59.9999         calculate D2E/DX2 analytically  !
 ! D12   D(1,5,8,11)           179.9999         calculate D2E/DX2 analytically  !
 ! D13   D(6,5,8,9)             59.9998         calculate D2E/DX2 analytically  !
 ! D14   D(6,5,8,10)           179.9998         calculate D2E/DX2 analytically  !
 ! D15   D(6,5,8,11)           -60.0002         calculate D2E/DX2 analytically  !
 ! D16   D(7,5,8,9)            179.9998         calculate D2E/DX2 analytically  !
 ! D17   D(7,5,8,10)           -60.0001         calculate D2E/DX2 analytically  !
 ! D18   D(7,5,8,11)            59.9998         calculate D2E/DX2 analytically  !
 ! D19   D(5,8,11,12)           59.8891         calculate D2E/DX2 analytically  !
 ! D20   D(5,8,11,13)          179.8892         calculate D2E/DX2 analytically  !
 ! D21   D(5,8,11,14)          -60.1109         calculate D2E/DX2 analytically  !
 ! D22   D(9,8,11,12)          -60.1108         calculate D2E/DX2 analytically  !
 ! D23   D(9,8,11,13)           59.8892         calculate D2E/DX2 analytically  !
 ! D24   D(9,8,11,14)          179.8892         calculate D2E/DX2 analytically  !
 ! D25   D(10,8,11,12)         179.8892         calculate D2E/DX2 analytically  !
 ! D26   D(10,8,11,13)         -60.1108         calculate D2E/DX2 analytically  !
 ! D27   D(10,8,11,14)          59.8892         calculate D2E/DX2 analytically  !
 --------------------------------------------------------------------------------
 Trust Radius=7.00D-02 FncErr=1.00D-07 GrdErr=1.00D-06 EigMax=2.50D+02 EigMin=1.00D-04
 Number of steps in this run=    100 maximum allowed number of steps=    100.
 GradGradGradGradGradGradGradGradGradGradGradGradGradGradGradGradGradGrad

 Leave Link  103 at Fri Oct 29 10:01:05 2021, MaxMem=  7784628224 cpu:               0.4 elap:               0.0
 (Enter /cm/shared/gaussian/versions/g16.c01/intel64-sandybridge/g16/l202.exe)
                          Input orientation:                          
 ---------------------------------------------------------------------
 Center     Atomic      Atomic             Coordinates (Angstroms)
 Number     Number       Type             X           Y           Z
 ---------------------------------------------------------------------
      1          6    90000001       -2.494672    0.371147    0.000000
      2          1    20001035       -2.138018   -0.637663    0.000000
      3          1    20001035       -2.137999    0.875545   -0.873652
      4          1    20001035       -3.564672    0.371160    0.000000
      5          6    90000001       -1.981330    1.097103    1.257405
      6          1    20001035       -0.911330    1.097089    1.257406
      7          1    20001035       -2.338004    0.592706    2.131056
      8          6    90000001       -2.494644    2.549036    1.257404
      9          1    20001035       -2.137967    3.053435    0.383754
     10          1    20001035       -3.564644    2.549051    1.257401
     11          6    90000001       -1.981304    3.274990    2.514811
     12          1    20001035       -0.911306    3.273285    2.515791
     13          1    20001035       -2.336363    4.284363    2.513836
     14          1    20001035       -2.339573    2.771720    3.388460
 ---------------------------------------------------------------------
                    Distance matrix (angstroms):
                    1          2          3          4          5
     1  C    0.000000
     2  H    1.070000   0.000000
     3  H    1.070000   1.747302   0.000000
     4  H    1.070000   1.747303   1.747303   0.000000
     5  C    1.540000   2.148263   2.148263   2.148263   0.000000
     6  H    2.148263   2.468845   2.468847   3.024610   1.070000
     7  H    2.148263   2.468846   3.024611   2.468845   1.070000
     8  C    2.514809   3.444314   2.732977   2.732978   1.540000
     9  H    2.732979   3.710993   2.514810   3.062246   2.148263
    10  H    2.732977   3.710993   3.062241   2.514809   2.148264
    11  C    3.875581   4.653782   4.154945   4.154944   2.514809
    12  H    4.154354   4.809318   4.329232   4.668178   2.732078
    13  H    4.653782   5.530375   4.809829   4.810537   3.444313
    14  H    4.155534   4.811047   4.669229   4.329574   2.733875
                    6          7          8          9         10
     6  H    0.000000
     7  H    1.747303   0.000000
     8  C    2.148263   2.148263   0.000000
     9  H    2.468845   3.024610   1.070000   0.000000
    10  H    3.024611   2.468848   1.070000   1.747303   0.000000
    11  C    2.732978   2.732975   1.540000   2.148263   2.148263
    12  H    2.513835   3.060881   2.148263   2.469536   3.024609
    13  H    3.710533   3.711449   2.148263   2.468156   2.469536
    14  H    3.063603   2.515784   2.148263   3.024610   2.468156
                   11         12         13         14
    11  C    0.000000
    12  H    1.070000   0.000000
    13  H    1.070000   1.747303   0.000000
    14  H    1.070000   1.747303   1.747303   0.000000
 Stoichiometry    C4H10
 Framework group  C1[X(C4H10)]
 Deg. of freedom    36
 Full point group                 C1      NOp   1
 Largest Abelian subgroup         C1      NOp   1
 Largest concise Abelian subgroup C1      NOp   1
                         Standard orientation:                         
 ---------------------------------------------------------------------
 Center     Atomic      Atomic             Coordinates (Angstroms)
 Number     Number       Type             X           Y           Z
 ---------------------------------------------------------------------
      1          6    90000001        1.933553   -0.128084    0.000001
      2          1    20001035        2.693619    0.625042   -0.000000
      3          1    20001035        2.035225   -0.737426   -0.873649
      4          1    20001035        2.035224   -0.737423    0.873654
      5          6    90000001        0.546964    0.541969   -0.000001
      6          1    20001035        0.445294    1.151309   -0.873653
      7          1    20001035        0.445291    1.151310    0.873650
      8          6    90000001       -0.546964   -0.541969   -0.000001
      9          1    20001035       -0.445294   -1.151309   -0.873654
     10          1    20001035       -0.445293   -1.151312    0.873649
     11          6    90000001       -1.933553    0.128084    0.000001
     12          1    20001035       -2.034489    0.738947   -0.872672
     13          1    20001035       -2.693619   -0.625040   -0.001951
     14          1    20001035       -2.035959    0.735901    0.874627
 ---------------------------------------------------------------------
 Rotational constants (GHZ):          23.0583260           3.7383904           3.4902866
 Leave Link  202 at Fri Oct 29 10:01:05 2021, MaxMem=  7784628224 cpu:               0.3 elap:               0.0
 (Enter /cm/shared/gaussian/versions/g16.c01/intel64-sandybridge/g16/l301.exe)
 Standard basis: def2TZVPP (5D, 7F)
 Ernie: Thresh=  0.10000D-02 Tol=  0.10000D-05 Strict=F.
 There are   294 symmetry adapted cartesian basis functions of A   symmetry.
 There are   264 symmetry adapted basis functions of A   symmetry.
   264 basis functions,   374 primitive gaussians,   294 cartesian basis functions
    17 alpha electrons       17 beta electrons
       nuclear repulsion energy       131.8273076382 Hartrees.
 IExCor=  402 DFT=T Ex+Corr=B3LYP ExCW=0 ScaHFX=  0.200000
 ScaDFX=  0.800000  0.720000  1.000000  0.810000 ScalE2=  1.000000  1.000000
 IRadAn=      5 IRanWt=     -1 IRanGd=            0 ICorTp=0 IEmpDi=  4
 NAtoms=   14 NActive=   14 NUniq=   14 SFac= 1.00D+00 NAtFMM=   60 NAOKFM=F Big=F
 Integral buffers will be    131072 words long.
 Raffenetti 2 integral format.
 Two-electron integral symmetry is turned on.
 Leave Link  301 at Fri Oct 29 10:01:05 2021, MaxMem=  7784628224 cpu:               1.0 elap:               0.1
 (Enter /cm/shared/gaussian/versions/g16.c01/intel64-sandybridge/g16/l302.exe)
 NPDir=0 NMtPBC=     1 NCelOv=     1 NCel=       1 NClECP=     1 NCelD=      1
         NCelK=      1 NCelE2=     1 NClLst=     1 CellRange=     0.0.
 One-electron integrals computed using PRISM.
 One-electron integral symmetry used in STVInt
   1 Symmetry operations used in ECPInt.
 ECPInt:  NShTT=    5460 NPrTT=   12998 LenC2=    5420 LenP2D=   11384.
 LDataN:  DoStor=T MaxTD1= 6 Len=  172
 NBasis=   264 RedAO= T EigKep=  1.61D-04  NBF=   264
 NBsUse=   264 1.00D-06 EigRej= -1.00D+00 NBFU=   264
 Precomputing XC quadrature grid using
 IXCGrd= 4 IRadAn=           5 IRanWt=          -1 IRanGd=           0 AccXCQ= 0.00D+00.
 Generated NRdTot=       0 NPtTot=           0 NUsed=           0 NTot=          32
 NSgBfM=   294   294   294   294   294 MxSgAt=    14 MxSgA2=    14.
 Leave Link  302 at Fri Oct 29 10:01:05 2021, MaxMem=  7784628224 cpu:               4.6 elap:               0.3
 (Enter /cm/shared/gaussian/versions/g16.c01/intel64-sandybridge/g16/l303.exe)
 DipDrv:  MaxL=1.
 Leave Link  303 at Fri Oct 29 10:01:05 2021, MaxMem=  7784628224 cpu:               0.5 elap:               0.1
 (Enter /cm/shared/gaussian/versions/g16.c01/intel64-sandybridge/g16/l401.exe)
 ExpMin= 9.52D-02 ExpMax= 1.36D+04 ExpMxC= 4.63D+02 IAcc=3 IRadAn=         5 AccDes= 0.00D+00
 Harris functional with IExCor=  402 and IRadAn=       5 diagonalized for initial guess.
 HarFok:  IExCor=  402 AccDes= 0.00D+00 IRadAn=         5 IDoV= 1 UseB2=F ITyADJ=14
 ICtDFT=  3500011 ScaDFX=  1.000000  1.000000  1.000000  1.000000
 FoFCou: FMM=F IPFlag=           0 FMFlag=      100000 FMFlg1=           0
         NFxFlg=           0 DoJE=T BraDBF=F KetDBF=T FulRan=T
         wScrn=  0.000000 ICntrl=       500 IOpCl=  0 I1Cent=   200000004 NGrid=           0
         NMat0=    1 NMatS0=      1 NMatT0=    0 NMatD0=    1 NMtDS0=    0 NMtDT0=    0
 Petite list used in FoFCou.
 Harris En= -158.620414902750    
 JPrj=0 DoOrth=F DoCkMO=F.
 Leave Link  401 at Fri Oct 29 10:01:06 2021, MaxMem=  7784628224 cpu:              14.6 elap:               0.9
 (Enter /cm/shared/gaussian/versions/g16.c01/intel64-sandybridge/g16/l502.exe)
 Integral symmetry usage will be decided dynamically.
 Closed shell SCF:
 Using DIIS extrapolation, IDIIS=  1040.
 NGot=  7784628224 LenX=  7784447594 LenY=  7784360717
 Requested convergence on RMS density matrix=1.00D-08 within 128 cycles.
 Requested convergence on MAX density matrix=1.00D-06.
 Requested convergence on             energy=1.00D-06.
 No special actions if energy rises.
 Fock matrices will be formed incrementally for  20 cycles.
 Integral accuracy reduced to 1.0D-05 until final iterations.

 Cycle   1  Pass 0  IDiag  1:
 FoFJK:  IHMeth= 1 ICntrl=       0 DoSepK=F KAlg= 0 I1Cent=           0 FoldK=F
 IRaf= 970000000 NMat=       1 IRICut=       1 DoRegI=T DoRafI=F ISym2E= 0 IDoP0=0 IntGTp=1.
 FoFCou: FMM=F IPFlag=           0 FMFlag=      100000 FMFlg1=           0
         NFxFlg=           0 DoJE=F BraDBF=F KetDBF=F FulRan=T
         wScrn=  0.000000 ICntrl=         0 IOpCl=  0 I1Cent=           0 NGrid=           0
         NMat0=    1 NMatS0=      1 NMatT0=    0 NMatD0=    1 NMtDS0=    0 NMtDT0=    0
 Symmetry not used in FoFCou.
 E= -158.278813398923    
 DIIS: error= 4.29D-02 at cycle   1 NSaved=   1.
 NSaved= 1 IEnMin= 1 EnMin= -158.278813398923     IErMin= 1 ErrMin= 4.29D-02
 ErrMax= 4.29D-02  0.00D+00 EMaxC= 1.00D-01 BMatC= 2.35D-01 BMatP= 2.35D-01
 IDIUse=3 WtCom= 5.71D-01 WtEn= 4.29D-01
 Coeff-Com:  0.100D+01
 Coeff-En:   0.100D+01
 Coeff:      0.100D+01
 Gap=     0.305 Goal=   None    Shift=    0.000
 GapD=    0.305 DampG=1.000 DampE=0.500 DampFc=0.5000 IDamp=-1.
 Damping current iteration by 5.00D-01
 RMSDP=3.37D-03 MaxDP=8.29D-02              OVMax= 2.17D-01

 Cycle   2  Pass 0  IDiag  1:
 RMSU=  1.64D-03    CP:  9.45D-01
 E= -158.378776031295     Delta-E=       -0.099962632372 Rises=F Damp=T
 DIIS: error= 6.54D-03 at cycle   2 NSaved=   2.
 NSaved= 2 IEnMin= 2 EnMin= -158.378776031295     IErMin= 2 ErrMin= 6.54D-03
 ErrMax= 6.54D-03  0.00D+00 EMaxC= 1.00D-01 BMatC= 1.01D-02 BMatP= 2.35D-01
 IDIUse=3 WtCom= 9.35D-01 WtEn= 6.54D-02
 Coeff-Com:  0.816D-01 0.918D+00
 Coeff-En:   0.175D+00 0.825D+00
 Coeff:      0.877D-01 0.912D+00
 Gap=     0.357 Goal=   None    Shift=    0.000
 RMSDP=8.43D-04 MaxDP=3.22D-02 DE=-1.00D-01 OVMax= 1.31D-01

 Cycle   3  Pass 0  IDiag  1:
 RMSU=  6.15D-04    CP:  9.52D-01  6.50D-01
 E= -158.517044313651     Delta-E=       -0.138268282356 Rises=F Damp=F
 DIIS: error= 4.59D-03 at cycle   3 NSaved=   3.
 NSaved= 3 IEnMin= 3 EnMin= -158.517044313651     IErMin= 3 ErrMin= 4.59D-03
 ErrMax= 4.59D-03  0.00D+00 EMaxC= 1.00D-01 BMatC= 1.77D-03 BMatP= 1.01D-02
 IDIUse=3 WtCom= 9.54D-01 WtEn= 4.59D-02
 Coeff-Com: -0.126D-01 0.243D+00 0.769D+00
 Coeff-En:   0.000D+00 0.000D+00 0.100D+01
 Coeff:     -0.120D-01 0.232D+00 0.780D+00
 Gap=     0.350 Goal=   None    Shift=    0.000
 RMSDP=1.53D-04 MaxDP=4.99D-03 DE=-1.38D-01 OVMax= 1.29D-02

 Cycle   4  Pass 0  IDiag  1:
 RMSU=  1.32D-04    CP:  9.49D-01  6.90D-01  9.41D-01
 E= -158.518401754945     Delta-E=       -0.001357441294 Rises=F Damp=F
 DIIS: error= 1.85D-03 at cycle   4 NSaved=   4.
 NSaved= 4 IEnMin= 4 EnMin= -158.518401754945     IErMin= 4 ErrMin= 1.85D-03
 ErrMax= 1.85D-03  0.00D+00 EMaxC= 1.00D-01 BMatC= 4.73D-04 BMatP= 1.77D-03
 IDIUse=3 WtCom= 9.81D-01 WtEn= 1.85D-02
 Coeff-Com: -0.114D-01 0.571D-01 0.378D+00 0.576D+00
 Coeff-En:   0.000D+00 0.000D+00 0.140D+00 0.860D+00
 Coeff:     -0.112D-01 0.561D-01 0.374D+00 0.581D+00
 Gap=     0.350 Goal=   None    Shift=    0.000
 RMSDP=5.61D-05 MaxDP=1.76D-03 DE=-1.36D-03 OVMax= 5.13D-03

 Cycle   5  Pass 0  IDiag  1:
 RMSU=  3.55D-05    CP:  9.49D-01  6.82D-01  9.75D-01  7.28D-01
 E= -158.518831951509     Delta-E=       -0.000430196564 Rises=F Damp=F
 DIIS: error= 3.00D-04 at cycle   5 NSaved=   5.
 NSaved= 5 IEnMin= 5 EnMin= -158.518831951509     IErMin= 5 ErrMin= 3.00D-04
 ErrMax= 3.00D-04  0.00D+00 EMaxC= 1.00D-01 BMatC= 2.30D-05 BMatP= 4.73D-04
 IDIUse=3 WtCom= 9.97D-01 WtEn= 3.00D-03
 Coeff-Com: -0.300D-02 0.274D-02 0.855D-01 0.239D+00 0.675D+00
 Coeff-En:   0.000D+00 0.000D+00 0.000D+00 0.000D+00 0.100D+01
 Coeff:     -0.299D-02 0.273D-02 0.852D-01 0.239D+00 0.676D+00
 Gap=     0.350 Goal=   None    Shift=    0.000
 RMSDP=1.17D-05 MaxDP=3.97D-04 DE=-4.30D-04 OVMax= 9.19D-04

 Cycle   6  Pass 0  IDiag  1:
 RMSU=  7.89D-06    CP:  9.49D-01  6.83D-01  9.80D-01  7.50D-01  7.87D-01
 E= -158.518852704312     Delta-E=       -0.000020752803 Rises=F Damp=F
 DIIS: error= 2.72D-05 at cycle   6 NSaved=   6.
 NSaved= 6 IEnMin= 6 EnMin= -158.518852704312     IErMin= 6 ErrMin= 2.72D-05
 ErrMax= 2.72D-05  0.00D+00 EMaxC= 1.00D-01 BMatC= 8.87D-08 BMatP= 2.30D-05
 IDIUse=1 WtCom= 1.00D+00 WtEn= 0.00D+00
 Coeff-Com: -0.243D-04-0.732D-03 0.649D-02 0.268D-01 0.102D+00 0.865D+00
 Coeff:     -0.243D-04-0.732D-03 0.649D-02 0.268D-01 0.102D+00 0.865D+00
 Gap=     0.350 Goal=   None    Shift=    0.000
 RMSDP=1.50D-06 MaxDP=3.52D-05 DE=-2.08D-05 OVMax= 8.57D-05

 Initial convergence to 1.0D-05 achieved.  Increase integral accuracy.
 Cycle   7  Pass 1  IDiag  1:
 E= -158.518878334880     Delta-E=       -0.000025630568 Rises=F Damp=F
 DIIS: error= 6.24D-05 at cycle   1 NSaved=   1.
 NSaved= 1 IEnMin= 1 EnMin= -158.518878334880     IErMin= 1 ErrMin= 6.24D-05
 ErrMax= 6.24D-05  0.00D+00 EMaxC= 1.00D-01 BMatC= 1.57D-07 BMatP= 1.57D-07
 IDIUse=1 WtCom= 1.00D+00 WtEn= 0.00D+00
 Coeff-Com:  0.100D+01
 Coeff:      0.100D+01
 Gap=     0.350 Goal=   None    Shift=    0.000
 RMSDP=1.50D-06 MaxDP=3.52D-05 DE=-2.56D-05 OVMax= 4.47D-05

 Cycle   8  Pass 1  IDiag  1:
 RMSU=  1.11D-05    CP:  1.00D+00
 E= -158.518878383361     Delta-E=       -0.000000048481 Rises=F Damp=F
 DIIS: error= 5.19D-06 at cycle   2 NSaved=   2.
 NSaved= 2 IEnMin= 2 EnMin= -158.518878383361     IErMin= 2 ErrMin= 5.19D-06
 ErrMax= 5.19D-06  0.00D+00 EMaxC= 1.00D-01 BMatC= 2.69D-09 BMatP= 1.57D-07
 IDIUse=1 WtCom= 1.00D+00 WtEn= 0.00D+00
 Coeff-Com:  0.363D-01 0.964D+00
 Coeff:      0.363D-01 0.964D+00
 Gap=     0.350 Goal=   None    Shift=    0.000
 RMSDP=2.74D-07 MaxDP=7.14D-06 DE=-4.85D-08 OVMax= 2.38D-05

 Cycle   9  Pass 1  IDiag  1:
 RMSU=  2.58D-07    CP:  1.00D+00  1.01D+00
 E= -158.518878384998     Delta-E=       -0.000000001636 Rises=F Damp=F
 DIIS: error= 3.09D-06 at cycle   3 NSaved=   3.
 NSaved= 3 IEnMin= 3 EnMin= -158.518878384998     IErMin= 3 ErrMin= 3.09D-06
 ErrMax= 3.09D-06  0.00D+00 EMaxC= 1.00D-01 BMatC= 1.17D-09 BMatP= 2.69D-09
 IDIUse=1 WtCom= 1.00D+00 WtEn= 0.00D+00
 Coeff-Com: -0.727D-03 0.394D+00 0.606D+00
 Coeff:     -0.727D-03 0.394D+00 0.606D+00
 Gap=     0.350 Goal=   None    Shift=    0.000
 RMSDP=1.07D-07 MaxDP=2.16D-06 DE=-1.64D-09 OVMax= 9.90D-06

 Cycle  10  Pass 1  IDiag  1:
 RMSU=  4.43D-08    CP:  1.00D+00  1.01D+00  6.30D-01
 E= -158.518878386159     Delta-E=       -0.000000001161 Rises=F Damp=F
 DIIS: error= 5.81D-07 at cycle   4 NSaved=   4.
 NSaved= 4 IEnMin= 4 EnMin= -158.518878386159     IErMin= 4 ErrMin= 5.81D-07
 ErrMax= 5.81D-07  0.00D+00 EMaxC= 1.00D-01 BMatC= 4.92D-11 BMatP= 1.17D-09
 IDIUse=1 WtCom= 1.00D+00 WtEn= 0.00D+00
 Coeff-Com: -0.111D-02 0.190D+00 0.315D+00 0.496D+00
 Coeff:     -0.111D-02 0.190D+00 0.315D+00 0.496D+00
 Gap=     0.350 Goal=   None    Shift=    0.000
 RMSDP=2.04D-08 MaxDP=5.59D-07 DE=-1.16D-09 OVMax= 1.47D-06

 Cycle  11  Pass 1  IDiag  1:
 RMSU=  1.37D-08    CP:  1.00D+00  1.01D+00  6.38D-01  6.65D-01
 E= -158.518878386208     Delta-E=       -0.000000000049 Rises=F Damp=F
 DIIS: error= 5.12D-08 at cycle   5 NSaved=   5.
 NSaved= 5 IEnMin= 5 EnMin= -158.518878386208     IErMin= 5 ErrMin= 5.12D-08
 ErrMax= 5.12D-08  0.00D+00 EMaxC= 1.00D-01 BMatC= 2.21D-13 BMatP= 4.92D-11
 IDIUse=1 WtCom= 1.00D+00 WtEn= 0.00D+00
 Coeff-Com: -0.188D-03 0.273D-01 0.450D-01 0.107D+00 0.821D+00
 Coeff:     -0.188D-03 0.273D-01 0.450D-01 0.107D+00 0.821D+00
 Gap=     0.350 Goal=   None    Shift=    0.000
 RMSDP=1.90D-09 MaxDP=5.82D-08 DE=-4.89D-11 OVMax= 1.54D-07

 SCF Done:  E(RB3LYP) =  -158.518878386     A.U. after   11 cycles
            NFock= 11  Conv=0.19D-08     -V/T= 2.0043
 KE= 1.578417735067D+02 PE=-6.300369626342D+02 EE= 1.818490031032D+02
 Leave Link  502 at Fri Oct 29 10:01:22 2021, MaxMem=  7784628224 cpu:             262.3 elap:              16.4
 (Enter /cm/shared/gaussian/versions/g16.c01/intel64-sandybridge/g16/l801.exe)
 DoSCS=F DFT=T ScalE2(SS,OS)=  1.000000  1.000000
 Range of M.O.s used for correlation:     1   264
 NBasis=   264 NAE=    17 NBE=    17 NFC=     0 NFV=     0
 NROrb=    264 NOA=    17 NOB=    17 NVA=   247 NVB=   247

 **** Warning!!: The largest alpha MO coefficient is  0.20211418D+02

 Leave Link  801 at Fri Oct 29 10:01:23 2021, MaxMem=  7784628224 cpu:               0.4 elap:               0.0
 (Enter /cm/shared/gaussian/versions/g16.c01/intel64-sandybridge/g16/l1101.exe)
 Using compressed storage, NAtomX=    14.
 Will process     15 centers per pass.
   1 Symmetry operations used in ECPInt.
 ECPInt:  NShTT=    5460 NPrTT=   12998 LenC2=    5420 LenP2D=   11384.
 LDataN:  DoStor=T MaxTD1= 7 Len=  274
 Leave Link 1101 at Fri Oct 29 10:01:23 2021, MaxMem=  7784628224 cpu:               5.3 elap:               0.4
 (Enter /cm/shared/gaussian/versions/g16.c01/intel64-sandybridge/g16/l1102.exe)
 Symmetrizing basis deriv contribution to polar:
 IMax=3 JMax=2 DiffMx= 0.00D+00
 Leave Link 1102 at Fri Oct 29 10:01:23 2021, MaxMem=  7784628224 cpu:               0.5 elap:               0.1
 (Enter /cm/shared/gaussian/versions/g16.c01/intel64-sandybridge/g16/l1110.exe)
 Forming Gx(P) for the SCF density, NAtomX=    14.
 Integral derivatives from FoFJK, PRISM(SPDF).
 Do as many integral derivatives as possible in FoFJK.
 G2DrvN: MDV=    7784626646.
 G2DrvN: will do    15 centers at a time, making    1 passes.
 Calling FoFCou, ICntrl=  3107 FMM=F I1Cent=   0 AccDes= 0.00D+00.
 FoFJK:  IHMeth= 1 ICntrl=    3107 DoSepK=F KAlg= 0 I1Cent=           0 FoldK=F
 IRaf=         0 NMat=       1 IRICut=       1 DoRegI=T DoRafI=F ISym2E= 0 IDoP0=0 IntGTp=1.
 FoFCou: FMM=F IPFlag=           0 FMFlag=      100000 FMFlg1=           0
         NFxFlg=           0 DoJE=F BraDBF=F KetDBF=F FulRan=T
         wScrn=  0.000000 ICntrl=      3107 IOpCl=  0 I1Cent=           0 NGrid=           0
         NMat0=    1 NMatS0=      1 NMatT0=    0 NMatD0=    1 NMtDS0=    0 NMtDT0=    0
 Symmetry not used in FoFCou.
 End of G2Drv F.D. properties file   721 does not exist.
 End of G2Drv F.D. properties file   722 does not exist.
 End of G2Drv F.D. properties file   788 does not exist.
 Leave Link 1110 at Fri Oct 29 10:01:59 2021, MaxMem=  7784628224 cpu:             582.8 elap:              36.5
 (Enter /cm/shared/gaussian/versions/g16.c01/intel64-sandybridge/g16/l1002.exe)
 Minotr:  Closed shell wavefunction.
          IDoAtm=11111111111111
          Direct CPHF calculation.
          Differentiating once with respect to electric field.
                with respect to dipole field.
          Differentiating once with respect to nuclear coordinates.
          Requested convergence is 1.0D-08 RMS, and 1.0D-07 maximum.
          Secondary convergence is 1.0D-12 RMS, and 1.0D-12 maximum.
          NewPWx=T KeepS1=F KeepF1=F KeepIn=T MapXYZ=F SortEE=F KeepMc=T.
         4173 words used for storage of precomputed grid.
 Keep R1 ints in memory in canonical form, NReq=629791877.
 FoFCou: FMM=F IPFlag=           0 FMFlag=           0 FMFlg1=           0
         NFxFlg=           0 DoJE=F BraDBF=F KetDBF=F FulRan=T
         wScrn=  0.000000 ICntrl=       600 IOpCl=  0 I1Cent=           0 NGrid=           0
         NMat0=    1 NMatS0=  34980 NMatT0=    0 NMatD0=    1 NMtDS0=    0 NMtDT0=    0
 Symmetry not used in FoFCou.
 Two-electron integral symmetry not used.
          MDV=    7784628224 using IRadAn=       1.
          Solving linear equations simultaneously, MaxMat=       0.
          There are    45 degrees of freedom in the 1st order CPHF.  IDoFFX=6 NUNeed=     3.
     42 vectors produced by pass  0 Test12= 9.33D-15 2.22D-09 XBig12= 3.07D+01 2.36D+00.
 AX will form    42 AO Fock derivatives at one time.
     42 vectors produced by pass  1 Test12= 9.33D-15 2.22D-09 XBig12= 1.51D+00 3.90D-01.
     42 vectors produced by pass  2 Test12= 9.33D-15 2.22D-09 XBig12= 2.33D-02 4.14D-02.
     42 vectors produced by pass  3 Test12= 9.33D-15 2.22D-09 XBig12= 4.42D-05 1.45D-03.
     42 vectors produced by pass  4 Test12= 9.33D-15 2.22D-09 XBig12= 4.22D-08 5.55D-05.
     20 vectors produced by pass  5 Test12= 9.33D-15 2.22D-09 XBig12= 2.88D-11 1.18D-06.
      3 vectors produced by pass  6 Test12= 9.33D-15 2.22D-09 XBig12= 2.03D-14 3.38D-08.
 InvSVY:  IOpt=1 It=  1 EMax= 3.55D-15
 Solved reduced A of dimension   233 with    45 vectors.
 FullF1:  Do perturbations      1 to       3.
 Isotropic polarizability for W=    0.000000       50.50 Bohr**3.
 End of Minotr F.D. properties file   721 does not exist.
 End of Minotr F.D. properties file   722 does not exist.
 End of Minotr F.D. properties file   788 does not exist.
 Leave Link 1002 at Fri Oct 29 10:02:46 2021, MaxMem=  7784628224 cpu:             743.5 elap:              46.6
 (Enter /cm/shared/gaussian/versions/g16.c01/intel64-sandybridge/g16/l601.exe)
 Copying SCF densities to generalized density rwf, IOpCl= 0 IROHF=0.

 **********************************************************************

            Population analysis using the SCF Density.

 **********************************************************************

 Orbital symmetries:
       Occupied  (A) (A) (A) (A) (A) (A) (A) (A) (A) (A) (A) (A)
                 (A) (A) (A) (A) (A)
       Virtual   (A) (A) (A) (A) (A) (A) (A) (A) (A) (A) (A) (A)
                 (A) (A) (A) (A) (A) (A) (A) (A) (A) (A) (A) (A)
                 (A) (A) (A) (A) (A) (A) (A) (A) (A) (A) (A) (A)
                 (A) (A) (A) (A) (A) (A) (A) (A) (A) (A) (A) (A)
                 (A) (A) (A) (A) (A) (A) (A) (A) (A) (A) (A) (A)
                 (A) (A) (A) (A) (A) (A) (A) (A) (A) (A) (A) (A)
                 (A) (A) (A) (A) (A) (A) (A) (A) (A) (A) (A) (A)
                 (A) (A) (A) (A) (A) (A) (A) (A) (A) (A) (A) (A)
                 (A) (A) (A) (A) (A) (A) (A) (A) (A) (A) (A) (A)
                 (A) (A) (A) (A) (A) (A) (A) (A) (A) (A) (A) (A)
                 (A) (A) (A) (A) (A) (A) (A) (A) (A) (A) (A) (A)
                 (A) (A) (A) (A) (A) (A) (A) (A) (A) (A) (A) (A)
                 (A) (A) (A) (A) (A) (A) (A) (A) (A) (A) (A) (A)
                 (A) (A) (A) (A) (A) (A) (A) (A) (A) (A) (A) (A)
                 (A) (A) (A) (A) (A) (A) (A) (A) (A) (A) (A) (A)
                 (A) (A) (A) (A) (A) (A) (A) (A) (A) (A) (A) (A)
                 (A) (A) (A) (A) (A) (A) (A) (A) (A) (A) (A) (A)
                 (A) (A) (A) (A) (A) (A) (A) (A) (A) (A) (A) (A)
                 (A) (A) (A) (A) (A) (A) (A) (A) (A) (A) (A) (A)
                 (A) (A) (A) (A) (A) (A) (A) (A) (A) (A) (A) (A)
                 (A) (A) (A) (A) (A) (A) (A)
 The electronic state is 1-A.
 Alpha  occ. eigenvalues --  -10.15680 -10.15660 -10.14823 -10.14823  -0.79647
 Alpha  occ. eigenvalues --   -0.72567  -0.63144  -0.58263  -0.47838  -0.43075
 Alpha  occ. eigenvalues --   -0.41886  -0.41683  -0.37115  -0.35876  -0.33602
 Alpha  occ. eigenvalues --   -0.33481  -0.31399
 Alpha virt. eigenvalues --    0.03618   0.05825   0.08182   0.08288   0.10839
 Alpha virt. eigenvalues --    0.11459   0.12410   0.13474   0.14563   0.14997
 Alpha virt. eigenvalues --    0.16200   0.16870   0.19235   0.21401   0.23748
 Alpha virt. eigenvalues --    0.24236   0.24726   0.26796   0.29584   0.31303
 Alpha virt. eigenvalues --    0.33380   0.35814   0.36962   0.38925   0.42163
 Alpha virt. eigenvalues --    0.43388   0.44013   0.45182   0.45742   0.46296
 Alpha virt. eigenvalues --    0.47469   0.47823   0.48075   0.48952   0.50072
 Alpha virt. eigenvalues --    0.55086   0.57504   0.58563   0.62342   0.62500
 Alpha virt. eigenvalues --    0.65977   0.72631   0.73204   0.75797   0.81698
 Alpha virt. eigenvalues --    0.81828   0.83674   0.89001   0.90605   0.91346
 Alpha virt. eigenvalues --    0.94205   0.94655   0.95874   0.99268   1.00903
 Alpha virt. eigenvalues --    1.01233   1.04941   1.04996   1.07205   1.09057
 Alpha virt. eigenvalues --    1.09186   1.14311   1.16501   1.17168   1.18473
 Alpha virt. eigenvalues --    1.18835   1.21455   1.21669   1.24835   1.28868
 Alpha virt. eigenvalues --    1.30135   1.37129   1.38102   1.39953   1.42239
 Alpha virt. eigenvalues --    1.42647   1.43661   1.44802   1.46503   1.46557
 Alpha virt. eigenvalues --    1.47335   1.49461   1.50215   1.52290   1.54075
 Alpha virt. eigenvalues --    1.55762   1.56576   1.60284   1.62676   1.64271
 Alpha virt. eigenvalues --    1.67486   1.67602   1.68176   1.89845   1.94704
 Alpha virt. eigenvalues --    2.01656   2.02238   2.06633   2.09330   2.10109
 Alpha virt. eigenvalues --    2.21889   2.27311   2.39329   2.45783   2.46094
 Alpha virt. eigenvalues --    2.46705   2.47704   2.51009   2.52167   2.52466
 Alpha virt. eigenvalues --    2.55185   2.61865   2.63394   2.65453   2.66976
 Alpha virt. eigenvalues --    2.76092   2.82899   2.84008   2.86619   2.87540
 Alpha virt. eigenvalues --    2.89032   2.91073   2.91827   2.93333   2.96113
 Alpha virt. eigenvalues --    2.96153   2.99744   3.02451   3.03650   3.05789
 Alpha virt. eigenvalues --    3.06436   3.08112   3.08917   3.10161   3.11075
 Alpha virt. eigenvalues --    3.13838   3.16095   3.16731   3.19185   3.20335
 Alpha virt. eigenvalues --    3.21244   3.24546   3.28403   3.31244   3.32942
 Alpha virt. eigenvalues --    3.33510   3.36082   3.45518   3.45583   3.50214
 Alpha virt. eigenvalues --    3.52055   3.54301   3.58847   3.64588   3.64832
 Alpha virt. eigenvalues --    3.65167   3.65301   3.68483   3.70198   3.71894
 Alpha virt. eigenvalues --    3.71958   3.79768   3.80494   3.81768   3.84790
 Alpha virt. eigenvalues --    3.87650   3.89667   3.90268   3.90473   3.92238
 Alpha virt. eigenvalues --    3.93270   3.96187   3.96891   4.01160   4.01986
 Alpha virt. eigenvalues --    4.02816   4.03378   4.06904   4.08099   4.09320
 Alpha virt. eigenvalues --    4.11555   4.12027   4.12845   4.15586   4.15848
 Alpha virt. eigenvalues --    4.18788   4.22038   4.22371   4.25685   4.26854
 Alpha virt. eigenvalues --    4.31661   4.32225   4.33507   4.38141   4.38516
 Alpha virt. eigenvalues --    4.40563   4.43435   4.48282   4.57392   4.58309
 Alpha virt. eigenvalues --    4.61228   4.62288   4.67808   4.67878   4.72550
 Alpha virt. eigenvalues --    4.73072   4.79569   4.82542   4.83997   4.89021
 Alpha virt. eigenvalues --    4.89669   4.90033   4.93945   4.99765   5.00748
 Alpha virt. eigenvalues --    5.06148   5.08629   5.18184   5.22002   5.31018
 Alpha virt. eigenvalues --    5.34094   5.37756   5.37937   5.38037   5.41731
 Alpha virt. eigenvalues --    5.41975   5.43143   5.47015   5.54271   5.55719
 Alpha virt. eigenvalues --    5.56163   5.56822   5.59107   5.60707   5.60736
 Alpha virt. eigenvalues --    5.66885   5.67539   5.69229   5.72155   5.75447
 Alpha virt. eigenvalues --    5.75448   5.78044   5.81887  23.42451  23.48513
 Alpha virt. eigenvalues --   23.76248  23.76872
          Condensed to atoms (all electrons):
               1          2          3          4          5          6
     1  C    4.870322   0.413438   0.415538   0.415546   0.281514  -0.036560
     2  H    0.413438   0.585813  -0.022728  -0.022728  -0.038664  -0.004467
     3  H    0.415538  -0.022728   0.595233  -0.024614  -0.040961  -0.005328
     4  H    0.415546  -0.022728  -0.024614   0.595234  -0.040970   0.008106
     5  C    0.281514  -0.038664  -0.040961  -0.040970   4.908843   0.428566
     6  H   -0.036560  -0.004467  -0.005328   0.008106   0.428566   0.615430
     7  H   -0.036567  -0.004465   0.008106  -0.005326   0.428553  -0.027058
     8  C   -0.053790   0.011040  -0.007335  -0.007331   0.304762  -0.040971
     9  H   -0.006137  -0.000107   0.005077  -0.000225  -0.040981  -0.004986
    10  H   -0.006133  -0.000108  -0.000226   0.005075  -0.040988   0.008049
    11  C    0.011630  -0.000885  -0.000191  -0.000192  -0.053790  -0.006158
    12  H   -0.000189   0.000004   0.000032   0.000029  -0.007353   0.005083
    13  H   -0.000885   0.000031   0.000004   0.000004   0.011040  -0.000107
    14  H   -0.000194   0.000005   0.000029   0.000032  -0.007313  -0.000223
               7          8          9         10         11         12
     1  C   -0.036567  -0.053790  -0.006137  -0.006133   0.011630  -0.000189
     2  H   -0.004465   0.011040  -0.000107  -0.000108  -0.000885   0.000004
     3  H    0.008106  -0.007335   0.005077  -0.000226  -0.000191   0.000032
     4  H   -0.005326  -0.007331  -0.000225   0.005075  -0.000192   0.000029
     5  C    0.428553   0.304762  -0.040981  -0.040988  -0.053790  -0.007353
     6  H   -0.027058  -0.040971  -0.004986   0.008049  -0.006158   0.005083
     7  H    0.615451  -0.040998   0.008052  -0.004990  -0.006113  -0.000228
     8  C   -0.040998   4.908843   0.428559   0.428560   0.281514  -0.040989
     9  H    0.008052   0.428559   0.615437  -0.027058  -0.036570  -0.005301
    10  H   -0.004990   0.428560  -0.027058   0.615443  -0.036557   0.008107
    11  C   -0.006113   0.281514  -0.036570  -0.036557   4.870322   0.415550
    12  H   -0.000228  -0.040989  -0.005301   0.008107   0.415550   0.595278
    13  H   -0.000108  -0.038664  -0.004492  -0.004440   0.413438  -0.022740
    14  H    0.005069  -0.040943   0.008105  -0.005353   0.415534  -0.024614
              13         14
     1  C   -0.000885  -0.000194
     2  H    0.000031   0.000005
     3  H    0.000004   0.000029
     4  H    0.000004   0.000032
     5  C    0.011040  -0.007313
     6  H   -0.000107  -0.000223
     7  H   -0.000108   0.005069
     8  C   -0.038664  -0.040943
     9  H   -0.004492   0.008105
    10  H   -0.004440  -0.005353
    11  C    0.413438   0.415534
    12  H   -0.022740  -0.024614
    13  H    0.585813  -0.022717
    14  H   -0.022717   0.595189
 Mulliken charges:
               1
     1  C   -0.267532
     2  H    0.083821
     3  H    0.077363
     4  H    0.077360
     5  C   -0.092257
     6  H    0.060623
     7  H    0.060622
     8  C   -0.092258
     9  H    0.060627
    10  H    0.060618
    11  C   -0.267532
    12  H    0.077330
    13  H    0.083821
    14  H    0.077394
 Sum of Mulliken charges =  -0.00000
 Mulliken charges with hydrogens summed into heavy atoms:
               1
     1  C   -0.028988
     5  C    0.028988
     8  C    0.028988
    11  C   -0.028988
 APT charges:
               1
     1  C    0.052158
     2  H   -0.031637
     3  H   -0.018569
     4  H   -0.018567
     5  C    0.100183
     6  H   -0.041790
     7  H   -0.041778
     8  C    0.100182
     9  H   -0.041791
    10  H   -0.041777
    11  C    0.052158
    12  H   -0.018556
    13  H   -0.031636
    14  H   -0.018580
 Sum of APT charges =  -0.00000
 APT charges with hydrogens summed into heavy atoms:
               1
     1  C   -0.016615
     5  C    0.016615
     8  C    0.016615
    11  C   -0.016615
 Electronic spatial extent (au):  <R**2>=            415.8217
 Charge=             -0.0000 electrons
 Dipole moment (field-independent basis, Debye):
    X=              0.0000    Y=              0.0000    Z=              0.0000  Tot=              0.0000
 Quadrupole moment (field-independent basis, Debye-Ang):
   XX=            -30.0660   YY=            -28.7384   ZZ=            -27.7934
   XY=              0.4621   XZ=             -0.0000   YZ=             -0.0000
 Traceless Quadrupole moment (field-independent basis, Debye-Ang):
   XX=             -1.2001   YY=              0.1275   ZZ=              1.0726
   XY=              0.4621   XZ=             -0.0000   YZ=             -0.0000
 Octapole moment (field-independent basis, Debye-Ang**2):
  XXX=              0.0000  YYY=              0.0000  ZZZ=              0.0030  XYY=              0.0000
  XXY=             -0.0000  XXZ=             -0.0006  XZZ=             -0.0000  YZZ=             -0.0000
  YYZ=             -0.0023  XYZ=             -0.0012
 Hexadecapole moment (field-independent basis, Debye-Ang**3):
 XXXX=           -456.4392 YYYY=            -93.5670 ZZZZ=            -58.0555 XXXY=              7.6318
 XXXZ=              0.0036 YYYX=              1.7123 YYYZ=             -0.0024 ZZZX=             -0.0069
 ZZZY=              0.0009 XXYY=            -87.1962 XXZZ=            -83.5467 YYZZ=            -23.0840
 XXYZ=              0.0052 YYXZ=              0.0049 ZZXY=             -1.4347
 N-N= 1.318273076382D+02 E-N=-6.300369676716D+02  KE= 1.578417735067D+02
  Exact polarizability:      58.724      -0.379      47.545       0.000       0.000      45.239
 Approx polarizability:      67.774      -0.132      66.321       0.000      -0.000      65.584
 No NMR shielding tensors so no spin-rotation constants.
 Leave Link  601 at Fri Oct 29 10:02:46 2021, MaxMem=  7784628224 cpu:               3.8 elap:               0.3
 (Enter /cm/shared/gaussian/versions/g16.c01/intel64-sandybridge/g16/l701.exe)
 ... and contract with generalized density number  0.
 Compute integral second derivatives.
   1 Symmetry operations used in ECPInt.
 ECPInt:  NShTT=    5460 NPrTT=   12998 LenC2=    5420 LenP2D=   11384.
 LDataN:  DoStor=T MaxTD1= 8 Len=  415
 Leave Link  701 at Fri Oct 29 10:02:47 2021, MaxMem=  7784628224 cpu:               4.3 elap:               0.3
 (Enter /cm/shared/gaussian/versions/g16.c01/intel64-sandybridge/g16/l702.exe)
 L702 exits ... SP integral derivatives will be done elsewhere.
 Leave Link  702 at Fri Oct 29 10:02:47 2021, MaxMem=  7784628224 cpu:               0.4 elap:               0.0
 (Enter /cm/shared/gaussian/versions/g16.c01/intel64-sandybridge/g16/l703.exe)
 Integral derivatives from FoFJK, PRISM(SPDF).
 Compute integral second derivatives, UseDBF=F ICtDFT=           0.
 Calling FoFJK, ICntrl=    100127 FMM=F ISym2X=0 I1Cent= 0 IOpClX= 0 NMat=1 NMatS=1 NMatT=0.
 FoFJK:  IHMeth= 1 ICntrl=  100127 DoSepK=F KAlg= 0 I1Cent=           0 FoldK=F
 IRaf=         0 NMat=       1 IRICut=       1 DoRegI=T DoRafI=F ISym2E= 0 IDoP0=0 IntGTp=1.
 FoFCou: FMM=F IPFlag=           0 FMFlag=      100000 FMFlg1=         800
         NFxFlg=           0 DoJE=F BraDBF=F KetDBF=F FulRan=T
         wScrn=  0.000000 ICntrl=    100127 IOpCl=  0 I1Cent=           0 NGrid=           0
         NMat0=    1 NMatS0=      1 NMatT0=    0 NMatD0=    1 NMtDS0=    0 NMtDT0=    0
 Symmetry not used in FoFCou.
 Leave Link  703 at Fri Oct 29 10:04:02 2021, MaxMem=  7784628224 cpu:            1200.6 elap:              75.1
 (Enter /cm/shared/gaussian/versions/g16.c01/intel64-sandybridge/g16/l716.exe)
 Dipole        = 3.96316883D-08 2.27810011D-08 1.70870283D-05
 Polarizability= 5.87241950D+01-3.78723428D-01 4.75451939D+01
                 9.21459949D-05 2.50363558D-04 4.52386339D+01
 ***** Axes restored to original set *****
 -------------------------------------------------------------------
 Center     Atomic                   Forces (Hartrees/Bohr)
 Number     Number              X              Y              Z
 -------------------------------------------------------------------
      1        6           0.011269521    0.005160322    0.021386181
      2        1           0.002432946   -0.014364376   -0.004319849
      3        1           0.003128575    0.004418163   -0.013277378
      4        1          -0.013966436   -0.001626445   -0.002809514
      5        6          -0.021644508    0.012516978   -0.028104517
      6        1           0.014803938   -0.000938952    0.002942163
      7        1          -0.002088560   -0.006914954    0.013289551
      8        6           0.021643510   -0.012517432    0.028105073
      9        1           0.002094059    0.006910002   -0.013288933
     10        1          -0.014804913    0.000945518   -0.002945617
     11        6          -0.011272747   -0.005161417   -0.021384181
     12        1           0.013966412    0.001611515    0.002816203
     13        1          -0.002420749    0.014368654    0.004312443
     14        1          -0.003141049   -0.004407574    0.013278375
 -------------------------------------------------------------------
 Cartesian Forces:  Max     0.028105073 RMS     0.012199960
 FormGI is forming the generalized inverse of G from B-inverse, IUseBI=4.
 Leave Link  716 at Fri Oct 29 10:04:02 2021, MaxMem=  7784628224 cpu:               0.7 elap:               0.1
 (Enter /cm/shared/gaussian/versions/g16.c01/intel64-sandybridge/g16/l103.exe)

 GradGradGradGradGradGradGradGradGradGradGradGradGradGradGradGradGradGrad
 Berny optimization.
 Red2BG is reusing G-inverse.
 Internal  Forces:  Max     0.014806717 RMS     0.006460332
 Search for a local minimum.
 Step number   1 out of a maximum of  100
 All quantities printed in internal units (Hartrees-Bohrs-Radians)
 RMS Force = .64603D-02 SwitMx=.10000D-02 MixMth= 1
 Mixed Optimization -- RFO/linear search
 Second derivative matrix not updated -- analytic derivatives used.
 ITU=  0
     Eigenvalues ---    0.00205   0.00249   0.00300   0.03732   0.04001
     Eigenvalues ---    0.04098   0.04235   0.04679   0.04687   0.04704
     Eigenvalues ---    0.04780   0.06276   0.06407   0.09354   0.11671
     Eigenvalues ---    0.12650   0.12653   0.13634   0.14047   0.16093
     Eigenvalues ---    0.16146   0.19078   0.23087   0.26646   0.28215
     Eigenvalues ---    0.31535   0.37069   0.37206   0.37483   0.37530
     Eigenvalues ---    0.37625   0.37663   0.37885   0.37954   0.38390
     Eigenvalues ---    0.38440
 RFO step:  Lambda=-9.61296965D-03 EMin= 2.05405678D-03
 Linear search not attempted -- first point.
 Maximum step size (   0.070) exceeded in Quadratic search.
    -- Step size scaled by   0.358
 Iteration  1 RMS(Cart)=  0.01299543 RMS(Int)=  0.00009789
 Iteration  2 RMS(Cart)=  0.00012673 RMS(Int)=  0.00003809
 Iteration  3 RMS(Cart)=  0.00000001 RMS(Int)=  0.00003809
 ITry= 1 IFail=0 DXMaxC= 3.21D-02 DCOld= 1.00D+10 DXMaxT= 7.00D-02 DXLimC= 3.00D+00 Rises=F
 Variable       Old X    -DE/DX   Delta X   Delta X   Delta X     New X
                                 (Linear)    (Quad)   (Total)
    R1        2.02201   0.01435   0.00000   0.01317   0.01317   2.03518
    R2        2.02201   0.01397   0.00000   0.01373   0.01373   2.03573
    R3        2.02201   0.01397   0.00000   0.01373   0.01373   2.03573
    R4        2.91018   0.00127   0.00000  -0.00770  -0.00770   2.90247
    R5        2.02201   0.01480   0.00000   0.01485   0.01485   2.03686
    R6        2.02201   0.01481   0.00000   0.01485   0.01485   2.03686
    R7        2.91018  -0.00037   0.00000  -0.00636  -0.00636   2.90382
    R8        2.02201   0.01481   0.00000   0.01485   0.01485   2.03686
    R9        2.02201   0.01480   0.00000   0.01485   0.01485   2.03686
   R10        2.91018   0.00127   0.00000  -0.00770  -0.00770   2.90247
   R11        2.02201   0.01397   0.00000   0.01373   0.01373   2.03574
   R12        2.02201   0.01435   0.00000   0.01317   0.01317   2.03518
   R13        2.02201   0.01397   0.00000   0.01373   0.01373   2.03573
    A1        1.91063  -0.00418   0.00000  -0.01015  -0.01022   1.90042
    A2        1.91063  -0.00418   0.00000  -0.01015  -0.01022   1.90042
    A3        1.91063   0.00591   0.00000   0.01188   0.01182   1.92245
    A4        1.91063  -0.00325   0.00000  -0.01079  -0.01083   1.89981
    A5        1.91063   0.00285   0.00000   0.00961   0.00955   1.92019
    A6        1.91063   0.00285   0.00000   0.00961   0.00956   1.92019
    A7        1.91063  -0.00257   0.00000  -0.00002  -0.00006   1.91057
    A8        1.91063  -0.00257   0.00000  -0.00002  -0.00007   1.91057
    A9        1.91063   0.01154   0.00000   0.02114   0.02107   1.93170
   A10        1.91063   0.00020   0.00000  -0.01603  -0.01606   1.89457
   A11        1.91063  -0.00330   0.00000  -0.00254  -0.00262   1.90801
   A12        1.91063  -0.00329   0.00000  -0.00253  -0.00261   1.90802
   A13        1.91063  -0.00329   0.00000  -0.00253  -0.00261   1.90802
   A14        1.91063  -0.00330   0.00000  -0.00254  -0.00262   1.90801
   A15        1.91063   0.01154   0.00000   0.02114   0.02107   1.93170
   A16        1.91063   0.00020   0.00000  -0.01603  -0.01606   1.89457
   A17        1.91063  -0.00257   0.00000  -0.00002  -0.00006   1.91057
   A18        1.91063  -0.00257   0.00000  -0.00002  -0.00007   1.91056
   A19        1.91063   0.00285   0.00000   0.00960   0.00955   1.92018
   A20        1.91063   0.00591   0.00000   0.01188   0.01182   1.92245
   A21        1.91063   0.00285   0.00000   0.00961   0.00956   1.92019
   A22        1.91063  -0.00418   0.00000  -0.01015  -0.01022   1.90042
   A23        1.91063  -0.00325   0.00000  -0.01079  -0.01083   1.89981
   A24        1.91063  -0.00418   0.00000  -0.01015  -0.01022   1.90042
    D1        1.04720  -0.00145   0.00000  -0.00983  -0.00985   1.03735
    D2       -1.04720   0.00145   0.00000   0.00983   0.00985  -1.03735
    D3        3.14159  -0.00000   0.00000  -0.00000  -0.00000   3.14159
    D4       -1.04720  -0.00170   0.00000  -0.01055  -0.01058  -1.05778
    D5        3.14159   0.00121   0.00000   0.00911   0.00912  -3.13247
    D6        1.04720  -0.00025   0.00000  -0.00073  -0.00073   1.04646
    D7        3.14159  -0.00121   0.00000  -0.00911  -0.00912   3.13247
    D8        1.04720   0.00170   0.00000   0.01055   0.01058   1.05777
    D9       -1.04720   0.00025   0.00000   0.00072   0.00072  -1.04648
   D10       -1.04720   0.00190   0.00000   0.01136   0.01136  -1.03584
   D11        1.04720  -0.00190   0.00000  -0.01138  -0.01137   1.03582
   D12        3.14159  -0.00000   0.00000  -0.00001  -0.00001   3.14158
   D13        1.04719   0.00379   0.00000   0.02274   0.02273   1.06992
   D14        3.14159   0.00000   0.00000  -0.00001  -0.00001   3.14158
   D15       -1.04720   0.00189   0.00000   0.01136   0.01135  -1.03585
   D16        3.14159   0.00000   0.00000  -0.00001  -0.00001   3.14158
   D17       -1.04720  -0.00379   0.00000  -0.02275  -0.02274  -1.06994
   D18        1.04719  -0.00190   0.00000  -0.01139  -0.01138   1.03581
   D19        1.04526  -0.00024   0.00000  -0.00058  -0.00059   1.04467
   D20        3.13966   0.00001   0.00000   0.00014   0.00014   3.13979
   D21       -1.04913   0.00026   0.00000   0.00086   0.00087  -1.04827
   D22       -1.04913  -0.00170   0.00000  -0.01042  -0.01044  -1.05958
   D23        1.04526  -0.00145   0.00000  -0.00970  -0.00972   1.03554
   D24        3.13966  -0.00120   0.00000  -0.00898  -0.00899   3.13067
   D25        3.13966   0.00121   0.00000   0.00924   0.00925  -3.13427
   D26       -1.04913   0.00146   0.00000   0.00996   0.00998  -1.03915
   D27        1.04526   0.00171   0.00000   0.01069   0.01071   1.05597
         Item               Value     Threshold  Converged?
 Maximum Force            0.014807     0.000015     NO 
 RMS     Force            0.006460     0.000010     NO 
 Maximum Displacement     0.032105     0.000060     NO 
 RMS     Displacement     0.012893     0.000040     NO 
 Predicted change in Energy=-2.863967D-03
 Lowest energy point so far.  Saving SCF results.
 GradGradGradGradGradGradGradGradGradGradGradGradGradGradGradGradGradGrad

 Leave Link  103 at Fri Oct 29 10:04:02 2021, MaxMem=  7784628224 cpu:               0.4 elap:               0.1
 (Enter /cm/shared/gaussian/versions/g16.c01/intel64-sandybridge/g16/l202.exe)
                          Input orientation:                          
 ---------------------------------------------------------------------
 Center     Atomic      Atomic             Coordinates (Angstroms)
 Number     Number       Type             X           Y           Z
 ---------------------------------------------------------------------
      1          6    90000001       -2.494091    0.364162   -0.003065
      2          1    20001035       -2.137658   -0.652105   -0.007692
      3          1    20001035       -2.140405    0.861770   -0.890641
      4          1    20001035       -3.571263    0.355940   -0.014453
      5          6    90000001       -1.987077    1.096938    1.247949
      6          1    20001035       -0.909253    1.091934    1.255088
      7          1    20001035       -2.338218    0.586775    2.130114
      8          6    90000001       -2.488888    2.549204    1.266854
      9          1    20001035       -2.137738    3.059370    0.384694
     10          1    20001035       -3.566712    2.554210    1.259706
     11          6    90000001       -1.981893    3.281974    2.517880
     12          1    20001035       -0.904719    3.288618    2.530201
     13          1    20001035       -2.336834    4.298766    2.521596
     14          1    20001035       -2.337081    2.785413    3.405441
 ---------------------------------------------------------------------
                    Distance matrix (angstroms):
                    1          2          3          4          5
     1  C    0.000000
     2  H    1.076970   0.000000
     3  H    1.077264   1.752548   0.000000
     4  H    1.077264   1.752548   1.752405   0.000000
     5  C    1.535923   2.158347   2.156937   2.156938   0.000000
     6  H    2.150422   2.478965   2.484525   3.039691   1.077859
     7  H    2.150420   2.478964   3.039689   2.484522   1.077860
     8  C    2.527278   3.463555   2.761098   2.761104   1.536635
     9  H    2.746178   3.732159   2.540853   3.085911   2.149196
    10  H    2.746165   3.732151   3.085887   2.540845   2.149192
    11  C    3.889877   4.677580   4.183364   4.183358   2.527278
    12  H    4.182820   4.846684   4.372490   4.710236   2.760277
    13  H    4.677580   5.563102   4.847153   4.847808   3.463554
    14  H    4.183901   4.848276   4.711200   4.372782   2.761924
                    6          7          8          9         10
     6  H    0.000000
     7  H    1.750085   0.000000
     8  C    2.149191   2.149197   0.000000
     9  H    2.477410   3.033217   1.077860   0.000000
    10  H    3.033210   2.477420   1.077860   1.750085   0.000000
    11  C    2.746175   2.746166   1.535923   2.150424   2.150418
    12  H    2.539952   3.084631   2.156935   2.485174   3.039691
    13  H    3.731729   3.732578   2.158347   2.478324   2.479606
    14  H    3.087164   2.541746   2.156941   3.039688   2.483874
                   11         12         13         14
    11  C    0.000000
    12  H    1.077265   0.000000
    13  H    1.076970   1.752548   0.000000
    14  H    1.077263   1.752405   1.752547   0.000000
 Stoichiometry    C4H10
 Framework group  C1[X(C4H10)]
 Deg. of freedom    36
 Full point group                 C1      NOp   1
 RotChk:  IX=0 Diff= 1.76D-04
 Largest Abelian subgroup         C1      NOp   1
 Largest concise Abelian subgroup C1      NOp   1
                         Standard orientation:                         
 ---------------------------------------------------------------------
 Center     Atomic      Atomic             Coordinates (Angstroms)
 Number     Number       Type             X           Y           Z
 ---------------------------------------------------------------------
      1          6    90000001        1.940879   -0.125595    0.000005
      2          1    20001035        2.709565    0.628717   -0.000000
      3          1    20001035        2.056737   -0.741514   -0.876190
      4          1    20001035        2.056732   -0.741495    0.876215
      5          6    90000001        0.553339    0.533036   -0.000006
      6          1    20001035        0.450422    1.153906   -0.875055
      7          1    20001035        0.450418    1.153922    0.875030
      8          6    90000001       -0.553340   -0.533036   -0.000006
      9          1    20001035       -0.450424   -1.153915   -0.875048
     10          1    20001035       -0.450418   -1.153913    0.875037
     11          6    90000001       -1.940879    0.125595    0.000005
     12          1    20001035       -2.056060    0.742930   -0.875283
     13          1    20001035       -2.709564   -0.628715   -0.001814
     14          1    20001035       -2.057409    0.740078    0.877119
 ---------------------------------------------------------------------
 Rotational constants (GHZ):          23.2281812           3.6994039           3.4613899
 Leave Link  202 at Fri Oct 29 10:04:02 2021, MaxMem=  7784628224 cpu:               0.4 elap:               0.0
 (Enter /cm/shared/gaussian/versions/g16.c01/intel64-sandybridge/g16/l301.exe)
 Standard basis: def2TZVPP (5D, 7F)
 Ernie: Thresh=  0.10000D-02 Tol=  0.10000D-05 Strict=F.
 There are   294 symmetry adapted cartesian basis functions of A   symmetry.
 There are   264 symmetry adapted basis functions of A   symmetry.
   264 basis functions,   374 primitive gaussians,   294 cartesian basis functions
    17 alpha electrons       17 beta electrons
       nuclear repulsion energy       131.4218090381 Hartrees.
 IExCor=  402 DFT=T Ex+Corr=B3LYP ExCW=0 ScaHFX=  0.200000
 ScaDFX=  0.800000  0.720000  1.000000  0.810000 ScalE2=  1.000000  1.000000
 IRadAn=      5 IRanWt=     -1 IRanGd=            0 ICorTp=0 IEmpDi=  4
 NAtoms=   14 NActive=   14 NUniq=   14 SFac= 1.00D+00 NAtFMM=   60 NAOKFM=F Big=F
 Integral buffers will be    131072 words long.
 Raffenetti 2 integral format.
 Two-electron integral symmetry is turned on.
 Leave Link  301 at Fri Oct 29 10:04:02 2021, MaxMem=  7784628224 cpu:               0.9 elap:               0.1
 (Enter /cm/shared/gaussian/versions/g16.c01/intel64-sandybridge/g16/l302.exe)
 NPDir=0 NMtPBC=     1 NCelOv=     1 NCel=       1 NClECP=     1 NCelD=      1
         NCelK=      1 NCelE2=     1 NClLst=     1 CellRange=     0.0.
 One-electron integrals computed using PRISM.
 One-electron integral symmetry used in STVInt
   1 Symmetry operations used in ECPInt.
 ECPInt:  NShTT=    5460 NPrTT=   12998 LenC2=    5416 LenP2D=   11368.
 LDataN:  DoStor=T MaxTD1= 6 Len=  172
 NBasis=   264 RedAO= T EigKep=  1.67D-04  NBF=   264
 NBsUse=   264 1.00D-06 EigRej= -1.00D+00 NBFU=   264
 Precomputing XC quadrature grid using
 IXCGrd= 4 IRadAn=           5 IRanWt=          -1 IRanGd=           0 AccXCQ= 0.00D+00.
 Generated NRdTot=       0 NPtTot=           0 NUsed=           0 NTot=          32
 NSgBfM=   294   294   294   294   294 MxSgAt=    14 MxSgA2=    14.
 Leave Link  302 at Fri Oct 29 10:04:02 2021, MaxMem=  7784628224 cpu:               4.2 elap:               0.3
 (Enter /cm/shared/gaussian/versions/g16.c01/intel64-sandybridge/g16/l303.exe)
 DipDrv:  MaxL=1.
 Leave Link  303 at Fri Oct 29 10:04:02 2021, MaxMem=  7784628224 cpu:               1.3 elap:               0.1
 (Enter /cm/shared/gaussian/versions/g16.c01/intel64-sandybridge/g16/l401.exe)
 Initial guess from the checkpoint file:  "but_qm.chk"
 B after Tr=     0.000000   -0.000000    0.000000
         Rot=    1.000000    0.000012   -0.000001    0.000108 Ang=   0.01 deg.
 Guess basis will be translated and rotated to current coordinates.
 JPrj=2 DoOrth=T DoCkMO=T.
 Generating alternative initial guess.
 ExpMin= 9.52D-02 ExpMax= 1.36D+04 ExpMxC= 4.63D+02 IAcc=3 IRadAn=         5 AccDes= 0.00D+00
 Harris functional with IExCor=  402 and IRadAn=       5 diagonalized for initial guess.
 HarFok:  IExCor=  402 AccDes= 0.00D+00 IRadAn=         5 IDoV= 1 UseB2=F ITyADJ=14
 ICtDFT=  3500011 ScaDFX=  1.000000  1.000000  1.000000  1.000000
 FoFCou: FMM=F IPFlag=           0 FMFlag=      100000 FMFlg1=           0
         NFxFlg=           0 DoJE=T BraDBF=F KetDBF=T FulRan=T
         wScrn=  0.000000 ICntrl=       500 IOpCl=  0 I1Cent=   200000004 NGrid=           0
         NMat0=    1 NMatS0=      1 NMatT0=    0 NMatD0=    1 NMtDS0=    0 NMtDT0=    0
 Petite list used in FoFCou.
 Harris En= -158.617376176764    
 Leave Link  401 at Fri Oct 29 10:04:04 2021, MaxMem=  7784628224 cpu:              16.5 elap:               1.1
 (Enter /cm/shared/gaussian/versions/g16.c01/intel64-sandybridge/g16/l502.exe)
 Integral symmetry usage will be decided dynamically.
 Closed shell SCF:
 Using DIIS extrapolation, IDIIS=  1040.
 NGot=  7784628224 LenX=  7784447594 LenY=  7784360717
 Requested convergence on RMS density matrix=1.00D-08 within 128 cycles.
 Requested convergence on MAX density matrix=1.00D-06.
 Requested convergence on             energy=1.00D-06.
 No special actions if energy rises.
 Fock matrices will be formed incrementally for  20 cycles.
 Integral accuracy reduced to 1.0D-05 until final iterations.

 Cycle   1  Pass 0  IDiag  1:
 FoFJK:  IHMeth= 1 ICntrl=       0 DoSepK=F KAlg= 0 I1Cent=           0 FoldK=F
 IRaf= 970000000 NMat=       1 IRICut=       1 DoRegI=T DoRafI=F ISym2E= 0 IDoP0=0 IntGTp=1.
 FoFCou: FMM=F IPFlag=           0 FMFlag=      100000 FMFlg1=           0
         NFxFlg=           0 DoJE=F BraDBF=F KetDBF=F FulRan=T
         wScrn=  0.000000 ICntrl=         0 IOpCl=  0 I1Cent=           0 NGrid=           0
         NMat0=    1 NMatS0=      1 NMatT0=    0 NMatD0=    1 NMtDS0=    0 NMtDT0=    0
 Symmetry not used in FoFCou.
 E= -158.521497229027    
 DIIS: error= 1.22D-03 at cycle   1 NSaved=   1.
 NSaved= 1 IEnMin= 1 EnMin= -158.521497229027     IErMin= 1 ErrMin= 1.22D-03
 ErrMax= 1.22D-03  0.00D+00 EMaxC= 1.00D-01 BMatC= 3.31D-04 BMatP= 3.31D-04
 IDIUse=3 WtCom= 9.88D-01 WtEn= 1.22D-02
 Coeff-Com:  0.100D+01
 Coeff-En:   0.100D+01
 Coeff:      0.100D+01
 Gap=     0.810 Goal=   None    Shift=    0.000
 GapD=    0.810 DampG=2.000 DampE=1.000 DampFc=2.0000 IDamp=-1.
 RMSDP=7.40D-05 MaxDP=2.12D-03              OVMax= 4.25D-03

 Cycle   2  Pass 0  IDiag  1:
 RMSU=  7.40D-05    CP:  1.00D+00
 E= -158.521720336026     Delta-E=       -0.000223106999 Rises=F Damp=F
 DIIS: error= 3.32D-04 at cycle   2 NSaved=   2.
 NSaved= 2 IEnMin= 2 EnMin= -158.521720336026     IErMin= 2 ErrMin= 3.32D-04
 ErrMax= 3.32D-04  0.00D+00 EMaxC= 1.00D-01 BMatC= 1.19D-05 BMatP= 3.31D-04
 IDIUse=3 WtCom= 9.97D-01 WtEn= 3.32D-03
 Coeff-Com:  0.431D-01 0.957D+00
 Coeff-En:   0.000D+00 0.100D+01
 Coeff:      0.430D-01 0.957D+00
 Gap=     0.355 Goal=   None    Shift=    0.000
 RMSDP=1.95D-05 MaxDP=5.89D-04 DE=-2.23D-04 OVMax= 1.39D-03

 Cycle   3  Pass 0  IDiag  1:
 RMSU=  1.94D-05    CP:  1.00D+00  9.79D-01
 E= -158.521721008632     Delta-E=       -0.000000672606 Rises=F Damp=F
 DIIS: error= 3.39D-04 at cycle   3 NSaved=   3.
 NSaved= 3 IEnMin= 3 EnMin= -158.521721008632     IErMin= 2 ErrMin= 3.32D-04
 ErrMax= 3.39D-04  0.00D+00 EMaxC= 1.00D-01 BMatC= 1.20D-05 BMatP= 1.19D-05
 IDIUse=3 WtCom= 9.97D-01 WtEn= 3.39D-03
 Coeff-Com: -0.207D-02 0.502D+00 0.500D+00
 Coeff-En:   0.000D+00 0.486D+00 0.514D+00
 Coeff:     -0.206D-02 0.502D+00 0.500D+00
 Gap=     0.354 Goal=   None    Shift=    0.000
 RMSDP=9.49D-06 MaxDP=3.20D-04 DE=-6.73D-07 OVMax= 6.90D-04

 Initial convergence to 1.0D-05 achieved.  Increase integral accuracy.
 Cycle   4  Pass 1  IDiag  1:
 E= -158.521749775060     Delta-E=       -0.000028766428 Rises=F Damp=F
 DIIS: error= 6.25D-05 at cycle   1 NSaved=   1.
 NSaved= 1 IEnMin= 1 EnMin= -158.521749775060     IErMin= 1 ErrMin= 6.25D-05
 ErrMax= 6.25D-05  0.00D+00 EMaxC= 1.00D-01 BMatC= 2.23D-07 BMatP= 2.23D-07
 IDIUse=1 WtCom= 1.00D+00 WtEn= 0.00D+00
 Coeff-Com:  0.100D+01
 Coeff:      0.100D+01
 Gap=     0.354 Goal=   None    Shift=    0.000
 RMSDP=9.49D-06 MaxDP=3.20D-04 DE=-2.88D-05 OVMax= 1.38D-04

 Cycle   5  Pass 1  IDiag  1:
 RMSU=  1.07D-05    CP:  1.00D+00
 E= -158.521749814394     Delta-E=       -0.000000039334 Rises=F Damp=F
 DIIS: error= 2.64D-05 at cycle   2 NSaved=   2.
 NSaved= 2 IEnMin= 2 EnMin= -158.521749814394     IErMin= 2 ErrMin= 2.64D-05
 ErrMax= 2.64D-05  0.00D+00 EMaxC= 1.00D-01 BMatC= 8.94D-08 BMatP= 2.23D-07
 IDIUse=1 WtCom= 1.00D+00 WtEn= 0.00D+00
 Coeff-Com:  0.360D+00 0.640D+00
 Coeff:      0.360D+00 0.640D+00
 Gap=     0.354 Goal=   None    Shift=    0.000
 RMSDP=1.13D-06 MaxDP=3.11D-05 DE=-3.93D-08 OVMax= 8.49D-05

 Cycle   6  Pass 1  IDiag  1:
 RMSU=  1.12D-06    CP:  1.00D+00  9.91D-01
 E= -158.521749886694     Delta-E=       -0.000000072299 Rises=F Damp=F
 DIIS: error= 1.26D-05 at cycle   3 NSaved=   3.
 NSaved= 3 IEnMin= 3 EnMin= -158.521749886694     IErMin= 3 ErrMin= 1.26D-05
 ErrMax= 1.26D-05  0.00D+00 EMaxC= 1.00D-01 BMatC= 1.71D-08 BMatP= 8.94D-08
 IDIUse=1 WtCom= 1.00D+00 WtEn= 0.00D+00
 Coeff-Com:  0.312D-01 0.309D+00 0.659D+00
 Coeff:      0.312D-01 0.309D+00 0.659D+00
 Gap=     0.354 Goal=   None    Shift=    0.000
 RMSDP=3.84D-07 MaxDP=1.19D-05 DE=-7.23D-08 OVMax= 3.02D-05

 Cycle   7  Pass 1  IDiag  1:
 RMSU=  1.51D-07    CP:  1.00D+00  9.99D-01  6.96D-01
 E= -158.521749904185     Delta-E=       -0.000000017491 Rises=F Damp=F
 DIIS: error= 1.47D-06 at cycle   4 NSaved=   4.
 NSaved= 4 IEnMin= 4 EnMin= -158.521749904185     IErMin= 4 ErrMin= 1.47D-06
 ErrMax= 1.47D-06  0.00D+00 EMaxC= 1.00D-01 BMatC= 2.43D-10 BMatP= 1.71D-08
 IDIUse=1 WtCom= 1.00D+00 WtEn= 0.00D+00
 Coeff-Com:  0.630D-03 0.874D-01 0.228D+00 0.684D+00
 Coeff:      0.630D-03 0.874D-01 0.228D+00 0.684D+00
 Gap=     0.354 Goal=   None    Shift=    0.000
 RMSDP=4.69D-08 MaxDP=1.74D-06 DE=-1.75D-08 OVMax= 4.21D-06

 Cycle   8  Pass 1  IDiag  1:
 RMSU=  2.68D-08    CP:  1.00D+00  9.99D-01  7.08D-01  7.63D-01
 E= -158.521749904382     Delta-E=       -0.000000000197 Rises=F Damp=F
 DIIS: error= 4.05D-07 at cycle   5 NSaved=   5.
 NSaved= 5 IEnMin= 5 EnMin= -158.521749904382     IErMin= 5 ErrMin= 4.05D-07
 ErrMax= 4.05D-07  0.00D+00 EMaxC= 1.00D-01 BMatC= 2.95D-11 BMatP= 2.43D-10
 IDIUse=1 WtCom= 1.00D+00 WtEn= 0.00D+00
 Coeff-Com: -0.644D-03 0.353D-01 0.981D-01 0.360D+00 0.507D+00
 Coeff:     -0.644D-03 0.353D-01 0.981D-01 0.360D+00 0.507D+00
 Gap=     0.354 Goal=   None    Shift=    0.000
 RMSDP=1.16D-08 MaxDP=4.98D-07 DE=-1.97D-10 OVMax= 1.11D-06

 Cycle   9  Pass 1  IDiag  1:
 RMSU=  7.97D-09    CP:  1.00D+00  9.99D-01  7.08D-01  7.63D-01  6.87D-01
 E= -158.521749904409     Delta-E=       -0.000000000028 Rises=F Damp=F
 DIIS: error= 2.93D-08 at cycle   6 NSaved=   6.
 NSaved= 6 IEnMin= 6 EnMin= -158.521749904409     IErMin= 6 ErrMin= 2.93D-08
 ErrMax= 2.93D-08  0.00D+00 EMaxC= 1.00D-01 BMatC= 9.23D-14 BMatP= 2.95D-11
 IDIUse=1 WtCom= 1.00D+00 WtEn= 0.00D+00
 Coeff-Com: -0.111D-03 0.301D-02 0.930D-02 0.372D-01 0.827D-01 0.868D+00
 Coeff:     -0.111D-03 0.301D-02 0.930D-02 0.372D-01 0.827D-01 0.868D+00
 Gap=     0.354 Goal=   None    Shift=    0.000
 RMSDP=1.29D-09 MaxDP=2.72D-08 DE=-2.79D-11 OVMax= 1.08D-07

 SCF Done:  E(RB3LYP) =  -158.521749904     A.U. after    9 cycles
            NFock=  9  Conv=0.13D-08     -V/T= 2.0049
 KE= 1.577475444395D+02 PE=-6.291499288145D+02 EE= 1.814588254324D+02
 Leave Link  502 at Fri Oct 29 10:04:19 2021, MaxMem=  7784628224 cpu:             240.7 elap:              15.1
 (Enter /cm/shared/gaussian/versions/g16.c01/intel64-sandybridge/g16/l801.exe)
 DoSCS=F DFT=T ScalE2(SS,OS)=  1.000000  1.000000
 Range of M.O.s used for correlation:     1   264
 NBasis=   264 NAE=    17 NBE=    17 NFC=     0 NFV=     0
 NROrb=    264 NOA=    17 NOB=    17 NVA=   247 NVB=   247

 **** Warning!!: The largest alpha MO coefficient is  0.19883354D+02

 Leave Link  801 at Fri Oct 29 10:04:19 2021, MaxMem=  7784628224 cpu:               0.5 elap:               0.1
 (Enter /cm/shared/gaussian/versions/g16.c01/intel64-sandybridge/g16/l1101.exe)
 Using compressed storage, NAtomX=    14.
 Will process     15 centers per pass.
   1 Symmetry operations used in ECPInt.
 ECPInt:  NShTT=    5460 NPrTT=   12998 LenC2=    5416 LenP2D=   11368.
 LDataN:  DoStor=T MaxTD1= 7 Len=  274
 Leave Link 1101 at Fri Oct 29 10:04:19 2021, MaxMem=  7784628224 cpu:               5.3 elap:               0.4
 (Enter /cm/shared/gaussian/versions/g16.c01/intel64-sandybridge/g16/l1102.exe)
 Symmetrizing basis deriv contribution to polar:
 IMax=3 JMax=2 DiffMx= 0.00D+00
 Leave Link 1102 at Fri Oct 29 10:04:19 2021, MaxMem=  7784628224 cpu:               0.8 elap:               0.1
 (Enter /cm/shared/gaussian/versions/g16.c01/intel64-sandybridge/g16/l1110.exe)
 Forming Gx(P) for the SCF density, NAtomX=    14.
 Integral derivatives from FoFJK, PRISM(SPDF).
 Do as many integral derivatives as possible in FoFJK.
 G2DrvN: MDV=    7784626646.
 G2DrvN: will do    15 centers at a time, making    1 passes.
 Calling FoFCou, ICntrl=  3107 FMM=F I1Cent=   0 AccDes= 0.00D+00.
 FoFJK:  IHMeth= 1 ICntrl=    3107 DoSepK=F KAlg= 0 I1Cent=           0 FoldK=F
 IRaf=         0 NMat=       1 IRICut=       1 DoRegI=T DoRafI=F ISym2E= 0 IDoP0=0 IntGTp=1.
 FoFCou: FMM=F IPFlag=           0 FMFlag=      100000 FMFlg1=           0
         NFxFlg=           0 DoJE=F BraDBF=F KetDBF=F FulRan=T
         wScrn=  0.000000 ICntrl=      3107 IOpCl=  0 I1Cent=           0 NGrid=           0
         NMat0=    1 NMatS0=      1 NMatT0=    0 NMatD0=    1 NMtDS0=    0 NMtDT0=    0
 Symmetry not used in FoFCou.
 End of G2Drv F.D. properties file   721 does not exist.
 End of G2Drv F.D. properties file   722 does not exist.
 End of G2Drv F.D. properties file   788 does not exist.
 Leave Link 1110 at Fri Oct 29 10:04:55 2021, MaxMem=  7784628224 cpu:             580.3 elap:              36.3
 (Enter /cm/shared/gaussian/versions/g16.c01/intel64-sandybridge/g16/l1002.exe)
 Minotr:  Closed shell wavefunction.
          IDoAtm=11111111111111
          Direct CPHF calculation.
          Differentiating once with respect to electric field.
                with respect to dipole field.
          Differentiating once with respect to nuclear coordinates.
          Requested convergence is 1.0D-08 RMS, and 1.0D-07 maximum.
          Secondary convergence is 1.0D-12 RMS, and 1.0D-12 maximum.
          NewPWx=T KeepS1=F KeepF1=F KeepIn=T MapXYZ=F SortEE=F KeepMc=T.
         4173 words used for storage of precomputed grid.
 Keep R1 ints in memory in canonical form, NReq=629791877.
 FoFCou: FMM=F IPFlag=           0 FMFlag=           0 FMFlg1=           0
         NFxFlg=           0 DoJE=F BraDBF=F KetDBF=F FulRan=T
         wScrn=  0.000000 ICntrl=       600 IOpCl=  0 I1Cent=           0 NGrid=           0
         NMat0=    1 NMatS0=  34980 NMatT0=    0 NMatD0=    1 NMtDS0=    0 NMtDT0=    0
 Symmetry not used in FoFCou.
 Two-electron integral symmetry not used.
          MDV=    7784628224 using IRadAn=       1.
          Solving linear equations simultaneously, MaxMat=       0.
          There are    45 degrees of freedom in the 1st order CPHF.  IDoFFX=6 NUNeed=     3.
     42 vectors produced by pass  0 Test12= 9.33D-15 2.22D-09 XBig12= 3.09D+01 2.38D+00.
 AX will form    42 AO Fock derivatives at one time.
     42 vectors produced by pass  1 Test12= 9.33D-15 2.22D-09 XBig12= 1.54D+00 3.87D-01.
     42 vectors produced by pass  2 Test12= 9.33D-15 2.22D-09 XBig12= 2.45D-02 4.25D-02.
     42 vectors produced by pass  3 Test12= 9.33D-15 2.22D-09 XBig12= 4.75D-05 1.52D-03.
     42 vectors produced by pass  4 Test12= 9.33D-15 2.22D-09 XBig12= 4.69D-08 6.07D-05.
     20 vectors produced by pass  5 Test12= 9.33D-15 2.22D-09 XBig12= 2.93D-11 1.35D-06.
      3 vectors produced by pass  6 Test12= 9.33D-15 2.22D-09 XBig12= 2.10D-14 3.44D-08.
 InvSVY:  IOpt=1 It=  1 EMax= 2.66D-15
 Solved reduced A of dimension   233 with    45 vectors.
 FullF1:  Do perturbations      1 to       3.
 Isotropic polarizability for W=    0.000000       51.00 Bohr**3.
 End of Minotr F.D. properties file   721 does not exist.
 End of Minotr F.D. properties file   722 does not exist.
 End of Minotr F.D. properties file   788 does not exist.
 Leave Link 1002 at Fri Oct 29 10:05:42 2021, MaxMem=  7784628224 cpu:             747.2 elap:              46.8
 (Enter /cm/shared/gaussian/versions/g16.c01/intel64-sandybridge/g16/l701.exe)
 ... and contract with generalized density number  0.
 Compute integral second derivatives.
   1 Symmetry operations used in ECPInt.
 ECPInt:  NShTT=    5460 NPrTT=   12998 LenC2=    5416 LenP2D=   11368.
 LDataN:  DoStor=T MaxTD1= 8 Len=  415
 Leave Link  701 at Fri Oct 29 10:05:43 2021, MaxMem=  7784628224 cpu:               4.3 elap:               0.3
 (Enter /cm/shared/gaussian/versions/g16.c01/intel64-sandybridge/g16/l702.exe)
 L702 exits ... SP integral derivatives will be done elsewhere.
 Leave Link  702 at Fri Oct 29 10:05:43 2021, MaxMem=  7784628224 cpu:               0.5 elap:               0.1
 (Enter /cm/shared/gaussian/versions/g16.c01/intel64-sandybridge/g16/l703.exe)
 Integral derivatives from FoFJK, PRISM(SPDF).
 Compute integral second derivatives, UseDBF=F ICtDFT=           0.
 Calling FoFJK, ICntrl=    100127 FMM=F ISym2X=0 I1Cent= 0 IOpClX= 0 NMat=1 NMatS=1 NMatT=0.
 FoFJK:  IHMeth= 1 ICntrl=  100127 DoSepK=F KAlg= 0 I1Cent=           0 FoldK=F
 IRaf=         0 NMat=       1 IRICut=       1 DoRegI=T DoRafI=F ISym2E= 0 IDoP0=0 IntGTp=1.
 FoFCou: FMM=F IPFlag=           0 FMFlag=      100000 FMFlg1=         800
         NFxFlg=           0 DoJE=F BraDBF=F KetDBF=F FulRan=T
         wScrn=  0.000000 ICntrl=    100127 IOpCl=  0 I1Cent=           0 NGrid=           0
         NMat0=    1 NMatS0=      1 NMatT0=    0 NMatD0=    1 NMtDS0=    0 NMtDT0=    0
 Symmetry not used in FoFCou.
 Leave Link  703 at Fri Oct 29 10:06:58 2021, MaxMem=  7784628224 cpu:            1201.3 elap:              75.2
 (Enter /cm/shared/gaussian/versions/g16.c01/intel64-sandybridge/g16/l716.exe)
 Dipole        = 3.12610472D-08 2.35046809D-08 1.44386310D-05
 Polarizability= 5.91078287D+01-3.57967329D-01 4.80460561D+01
                 5.30657076D-05 1.85225056D-04 4.58400452D+01
 ***** Axes restored to original set *****
 -------------------------------------------------------------------
 Center     Atomic                   Forces (Hartrees/Bohr)
 Number     Number              X              Y              Z
 -------------------------------------------------------------------
[...]
 ! D4    D(3,1,5,6)            -62.247          -DE/DX =    0.0                 !
 ! D5    D(3,1,5,7)           -178.043          -DE/DX =    0.0                 !
 ! D6    D(3,1,5,8)             59.855          -DE/DX =    0.0                 !
 ! D7    D(4,1,5,6)            178.043          -DE/DX =    0.0                 !
 ! D8    D(4,1,5,7)             62.247          -DE/DX =    0.0                 !
 ! D9    D(4,1,5,8)            -59.855          -DE/DX =    0.0                 !
 ! D10   D(1,5,8,9)            -57.6801         -DE/DX =    0.0                 !
 ! D11   D(1,5,8,10)            57.6801         -DE/DX =    0.0                 !
 ! D12   D(1,5,8,11)           180.0            -DE/DX =    0.0                 !
 ! D13   D(6,5,8,9)             64.6397         -DE/DX =    0.0                 !
 ! D14   D(6,5,8,10)           180.0            -DE/DX =    0.0                 !
 ! D15   D(6,5,8,11)           -57.6801         -DE/DX =    0.0                 !
 ! D16   D(7,5,8,9)            180.0            -DE/DX =    0.0                 !
 ! D17   D(7,5,8,10)           -64.6398         -DE/DX =    0.0                 !
 ! D18   D(7,5,8,11)            57.6801         -DE/DX =    0.0                 !
 ! D19   D(5,8,11,12)           59.855          -DE/DX =    0.0                 !
 ! D20   D(5,8,11,13)         -180.0            -DE/DX =    0.0                 !
 ! D21   D(5,8,11,14)          -59.855          -DE/DX =    0.0                 !
 ! D22   D(9,8,11,12)          -62.247          -DE/DX =    0.0                 !
 ! D23   D(9,8,11,13)           57.898          -DE/DX =    0.0                 !
 ! D24   D(9,8,11,14)          178.043          -DE/DX =    0.0                 !
 ! D25   D(10,8,11,12)        -178.043          -DE/DX =    0.0                 !
 ! D26   D(10,8,11,13)         -57.898          -DE/DX =    0.0                 !
 ! D27   D(10,8,11,14)          62.247          -DE/DX =    0.0                 !
 --------------------------------------------------------------------------------
 GradGradGradGradGradGradGradGradGradGradGradGradGradGradGradGradGradGrad

 Leave Link  103 at Fri Oct 29 10:18:13 2021, MaxMem=  7784628224 cpu:               0.7 elap:               0.1
 (Enter /cm/shared/gaussian/versions/g16.c01/intel64-sandybridge/g16/l9999.exe)

 ----------------------------------------------------------------------

 Electric dipole moment (input orientation):
 (Debye = 10**-18 statcoulomb cm , SI units = C m)
                  (au)            (Debye)         (10**-30 SI)
   Tot        0.000000D+00      0.000000D+00      0.000000D+00
   x          0.000000D+00      0.000000D+00      0.000000D+00
   y          0.000000D+00      0.000000D+00      0.000000D+00
   z          0.000000D+00      0.000000D+00      0.000000D+00

 Dipole polarizability, Alpha (input orientation).
 (esu units = cm**3 , SI units = C**2 m**2 J**-1)
 Alpha(0;0):
               (au)            (10**-24 esu)      (10**-40 SI)
   iso        0.520849D+02      0.771818D+01      0.858764D+01
   aniso      0.119762D+02      0.177469D+01      0.197461D+01
   xx         0.479279D+02      0.710218D+01      0.790224D+01
   yx         0.450911D+00      0.668182D-01      0.743452D-01
   yy         0.553626D+02      0.820389D+01      0.912806D+01
   zx         0.165534D+01      0.245296D+00      0.272928D+00
   zy         0.551978D+01      0.817948D+00      0.910089D+00
   zz         0.529642D+02      0.784848D+01      0.873262D+01

 ----------------------------------------------------------------------

 Dipole orientation:
     6         -2.76987446         -1.37435473         -3.61622938
     1         -2.09778780          0.57471826         -3.63900114
     1         -3.95303287         -1.60869146         -1.94133999
     1         -3.97611419         -1.63962140         -5.26990756
     6         -0.57667814         -3.25084626         -3.61400080
     1          0.63310355         -2.89720007         -1.97389463
     1          0.61019847         -2.92789389         -5.27701359
     6         -1.43012458         -6.01130016         -3.58243145
     1         -2.61700073         -6.33425261         -1.91941843
     1         -2.63990672         -6.36494626         -5.22253738
     6          0.76307174         -7.88779169         -3.58020351
     1          1.96931204         -7.62252491         -1.92652582
     1          0.09098508         -9.83686468         -3.55743139
     1          1.94622958         -7.65345509         -5.25509338

 Electric dipole moment (dipole orientation):
 (Debye = 10**-18 statcoulomb cm , SI units = C m)
                  (au)            (Debye)         (10**-30 SI)
   Tot        0.000000D+00      0.000000D+00      0.000000D+00
   x          0.000000D+00      0.000000D+00      0.000000D+00
   y          0.000000D+00      0.000000D+00      0.000000D+00
   z          0.000000D+00      0.000000D+00      0.000000D+00

 Dipole polarizability, Alpha (dipole orientation).
 (esu units = cm**3 , SI units = C**2 m**2 J**-1)
 Alpha(0;0):
               (au)            (10**-24 esu)      (10**-40 SI)
   iso        0.520849D+02      0.771818D+01      0.858764D+01
   aniso      0.119762D+02      0.177469D+01      0.197461D+01
   xx         0.514213D+02      0.761985D+01      0.847823D+01
   yx        -0.435175D+01     -0.644863D+00     -0.717507D+00
   yy         0.577587D+02      0.855895D+01      0.952312D+01
   zx         0.102920D-01      0.152512D-02      0.169692D-02
   zy        -0.691079D-01     -0.102407D-01     -0.113944D-01
   zz         0.470746D+02      0.697574D+01      0.776156D+01

 ----------------------------------------------------------------------
 Unable to Open any file for archive entry.
 1\1\GINC-CURIE05\Freq\RB3LYP\def2TZVPP\C4H10\E.FALBO\29-Oct-2021\0\\#P
  Geom=AllCheck Guess=TCheck SCRF=Check GenChk RB3LYP/def2TZVPP Freq\\T
 itle C-CTard Required\\0,1\C,-2.4934129606,0.3494544361,-0.0103330369\
 H,-2.1372214903,-0.6817525807,-0.0233807177\H,-2.1460791605,0.83134709
 93,-0.9268859013\H,-3.5847152327,0.3232847718,-0.0464579607\C,-2.00023
 91371,1.0970729388,1.2269453113\H,-0.9061781614,1.0767993184,1.2542503
 16\H,-2.3338152258,0.5726215866,2.1279468881\C,-2.475736124,2.54906538
 45,1.287864729\H,-2.1421598072,3.0735167747,0.3868632967\H,-3.56979712
 3,2.5693390372,1.2605594527\C,-1.9825625761,3.2966837917,2.5251432473\
 H,-0.8912603355,3.3228532727,2.5612685284\H,-2.338753892,4.3278908628,
 2.5381908342\H,-2.3298967639,2.814791166,3.4416960131\\Version=ES64L-G
 16RevC.01\State=1-A\HF=-158.5242167\RMSD=4.019e-09\RMSF=2.476e-07\Zero
 Point=0.1315072\Thermal=0.1373041\ETot=-158.3869126\HTot=-158.3859684\
 GTot=-158.4207425\Dipole=0.,0.,0.\DipoleDeriv=0.1179318,0.0032004,-0.0
 146336,-0.0105762,0.049687,-0.0624835,-0.0225836,-0.0399722,0.068049,0
 .0396269,0.072773,-0.0044951,0.051872,-0.1733397,-0.0545533,-0.0165562
 ,-0.0204008,0.0292523,0.0296899,-0.0430654,0.0575741,-0.0426723,0.0044
 887,0.102266,0.0344721,0.0394319,-0.1191442,-0.1681894,-0.0284722,-0.0
 382897,0.0159678,0.0550307,-0.010243,0.0106838,-0.0206671,0.0281931,0.
 1383613,0.0113072,-0.0227775,0.0174416,0.0933865,-0.0078018,-0.0192376
 ,-0.0178254,0.1145731,-0.1878087,0.0166589,-0.0352982,-0.0147522,0.008
 0895,-0.0244053,-0.0211636,-0.0186832,0.0259207,0.0303882,-0.0324018,0
 .0579201,-0.0172806,-0.0373427,0.0572209,0.0343851,0.0781169,-0.146844
 ,0.1383613,0.0113072,-0.0227775,0.0174415,0.0933865,-0.0078018,-0.0192
 376,-0.0178254,0.1145731,0.0303882,-0.0324018,0.0579201,-0.0172806,-0.
 0373427,0.0572208,0.0343852,0.0781168,-0.146844,-0.1878087,0.0166589,-
 0.0352983,-0.0147522,0.0080895,-0.0244053,-0.0211637,-0.0186832,0.0259
 207,0.1179317,0.0032004,-0.0146336,-0.0105762,0.049687,-0.0624835,-0.0
 225836,-0.0399722,0.068049,-0.1681894,-0.0284722,-0.0382898,0.0159679,
 0.0550307,-0.010243,0.0106837,-0.0206671,0.0281931,0.0396269,0.072773,
 -0.0044951,0.051872,-0.1733398,-0.0545533,-0.0165562,-0.0204008,0.0292
 523,0.0296899,-0.0430654,0.0575741,-0.0426724,0.0044887,0.1022659,0.03
 44722,0.0394318,-0.1191442\Polar=47.9278777,0.4509113,55.3625741,1.655
 3372,5.519784,52.9641896\Quadrupole=0.3012977,-0.0394792,-0.2618185,-0
 .0236487,-0.3440681,-0.3519821\PG=C01 [X(C4H10)]\NImag=0\\0.54884942,-
 0.01803513,0.54367113,-0.02564703,-0.03783994,0.49443218,-0.07621601,0
 .08221817,0.00018121,0.07884768,0.08154449,-0.27787153,0.00018584,-0.0
 8956841,0.30287934,-0.00020754,0.00128664,-0.04688776,0.00151696,0.001
 71301,0.04975499,-0.07532794,-0.03769592,0.07018799,0.00338357,0.00473
 783,-0.01021412,0.07744754,-0.03778106,-0.09980101,0.09663413,-0.01108
 926,-0.01347111,0.02538582,0.04293586,0.10567577,0.06972443,0.09581670
 ,-0.22295653,-0.00068811,0.00023389,0.00041309,-0.07551763,-0.10438900
 ,0.24658435,-0.30319977,-0.00451844,-0.00430767,-0.01021731,0.00009911
 ,0.00020391,-0.01010721,0.00000946,0.00025175,0.33143618,-0.00394214,-
 0.04771388,0.00036732,0.03129896,0.00155662,0.00018440,-0.01547711,-0.
 00071397,-0.00081293,0.00575201,0.04773523,-0.00356068,0.00038218,-0.0
 4717179,-0.00045105,0.00021694,-0.00101377,0.02741142,-0.00069893,0.00
 086164,0.00693656,0.00238002,0.05053622,-0.09170912,-0.01609105,-0.029
 48916,0.00324994,0.00519531,0.01061126,0.00368918,0.00619014,0.0089971
 1,-0.01115772,-0.01674552,-0.02937336,0.56343030,-0.01705720,-0.102430
 19,-0.04119355,-0.01216804,-0.01391573,-0.02709983,0.00560727,0.007226
 33,0.01212371,-0.00044888,-0.00116060,-0.00092956,0.01560570,0.4671075
 6,-0.03004669,-0.03961484,-0.15130188,0.00059152,0.00127222,0.00029143
 ,-0.01040025,-0.01433108,-0.02439775,-0.00090818,-0.00015136,-0.001163
 92,-0.02168941,-0.04092427,0.52315834,-0.01037584,-0.00068187,-0.00080
 156,0.00046492,-0.00057264,-0.00003670,0.00059745,0.00037470,-0.000369
 19,0.00107275,-0.00105334,-0.00189828,-0.29533847,0.00252512,-0.002123
 89,0.32368905,-0.01753777,-0.00078769,-0.00091775,0.00000415,0.0002943
 9,0.00071894,0.00077162,0.00053195,0.00030828,-0.00090596,-0.00106271,
 -0.00333637,0.00208770,-0.04737271,0.00135627,-0.00395995,0.05451978,-
 0.02921311,-0.00097117,-0.00187320,0.00070517,0.00033946,0.00111677,0.
 00025701,0.00089510,0.00110102,-0.00221145,-0.00294142,-0.00426632,-0.
 00109140,0.00138094,-0.04889749,0.00445519,0.00232334,0.05194358,0.003
 46311,0.00530981,-0.01036684,0.00018273,0.00024646,0.00072955,0.000267
 16,-0.00084114,-0.00250362,0.00066667,0.00071519,0.00025276,-0.0755016
 0,-0.03823658,0.06557845,-0.01099289,-0.01581686,0.02702857,0.07736756
 ,0.00559629,0.00777224,-0.01546257,0.00048155,0.00078745,0.00063639,-0
 .00132761,-0.00103620,-0.00346622,0.00021804,0.00044807,0.00088167,-0.
 03774016,-0.10325112,0.09715251,-0.00040479,-0.00013781,-0.00050697,0.
 04109465,0.11706322,0.00848311,0.01166559,-0.02427208,0.00045618,-0.00
 031074,0.00090591,-0.00238614,-0.00330709,-0.00348723,-0.00043127,0.00
 045862,0.00111569,0.06458001,0.09703145,-0.21285591,0.00097186,-0.0002
 7704,0.00022517,-0.07032034,-0.10489357,0.23572157,0.00402178,-0.01117
 918,0.00097490,-0.00063588,-0.00222684,-0.00275461,0.00003413,0.000532
 83,0.00030209,0.00047094,-0.00138642,-0.00041100,-0.09151112,0.0323103
 4,-0.00055230,-0.01235203,0.03403348,0.00026751,0.00330967,-0.01058632
 ,-0.00037164,0.56343025,0.00361236,-0.01982891,-0.00523815,-0.00052614
 ,0.00011397,-0.00094600,0.00028086,0.00170082,0.00171972,0.00068078,0.
 00110979,0.00131754,0.03231035,-0.16695461,0.00248044,0.00137904,-0.00
 320962,0.00010639,0.00643538,-0.01913497,0.00017117,0.01560572,0.46710
 758,0.00951055,-0.02940782,-0.00195257,-0.00177319,-0.00372499,-0.0047
 8349,0.00037241,-0.00063312,0.00084539,0.00056618,0.00070427,0.0009996
 1,-0.00055230,0.00248044,-0.07923364,0.00012562,-0.00077930,-0.0004858
 9,-0.00925082,0.02660105,-0.00022224,-0.02168941,-0.04092429,0.5231583
 7,0.00006569,-0.00050421,-0.00009683,-0.00010134,-0.00005026,-0.000223
 17,0.00015222,-0.00024528,0.00002266,-0.00004862,-0.00003564,0.0001423
 6,0.00330967,0.00643539,-0.00925082,0.00071096,-0.00058416,-0.00054253
 ,0.00045868,0.00251264,-0.00045019,-0.07550164,-0.03823662,0.06557850,
 0.07736760,-0.00036554,0.00149612,0.00150801,0.00028115,0.00045665,-0.
 00025659,0.00007890,0.00001600,-0.00119551,-0.00003500,-0.00008153,-0.
 00008854,-0.01058632,-0.01913498,0.02660105,0.00019622,0.00148870,-0.0
 0025901,0.00251263,-0.00588681,-0.00065066,-0.03774021,-0.10325114,0.0
 9715254,0.04109469,0.11706324,-0.00019455,-0.00051078,0.00101357,-0.00
 009220,0.00003555,0.00025551,0.00021902,0.00034536,0.00046375,-0.00001
 501,-0.00000951,-0.00000487,-0.00037164,0.00017117,-0.00022224,-0.0004
 4885,0.00025165,0.00013373,-0.00045019,-0.00065066,0.00100744,0.064580
 06,0.09703147,-0.21285590,-0.07032040,-0.10489359,0.23572156,0.0005739
 8,-0.00074771,-0.00020713,0.00046768,0.00005725,0.00001139,-0.00003489
 ,0.00002300,0.00002407,0.00056451,0.00052363,0.00064434,-0.01235203,0.
 00137904,0.00012562,0.00095283,0.00234135,-0.00034687,0.00071096,0.000
 19622,-0.00044884,-0.29533841,0.00252512,-0.00212395,-0.01099290,-0.00
 040479,0.00097185,0.32368899,0.00080287,0.00175936,0.00086386,-0.00030
 932,0.00021511,0.00031059,-0.00008722,-0.00008097,-0.00009539,-0.00083
 992,-0.00008836,-0.00032455,0.03403348,-0.00320962,-0.00077929,0.00234
 135,-0.00606942,-0.00040255,-0.00058416,0.00148869,0.00025165,0.002087
 70,-0.04737272,0.00135627,-0.01581686,-0.00013780,-0.00027704,-0.00395
 995,0.05451978,0.00086538,0.00012241,0.00024204,-0.00013987,0.00007591
 ,-0.00007199,0.00011822,0.00000462,-0.00001915,-0.00015180,-0.00016706
 ,0.00015582,0.00026751,0.00010639,-0.00048589,-0.00034687,-0.00040255,
 0.00069590,-0.00054253,-0.00025901,0.00013373,-0.00109147,0.00138094,-
 0.04889750,0.02702856,-0.00050697,0.00022518,0.00445526,0.00232334,0.0
 5194359,-0.00125868,0.00239896,-0.00007553,0.00064073,0.00074023,0.000
 54138,-0.00000742,-0.00008176,-0.00021735,0.00048006,0.00010541,0.0000
 3763,0.00402178,0.00361236,0.00951055,0.00057397,0.00080287,0.00086538
 ,0.00006569,-0.00036554,-0.00019455,-0.09170911,-0.01705719,-0.0300466
 8,0.00346311,0.00559629,0.00848312,-0.01037584,-0.01753776,-0.02921311
 ,0.54884948,0.00239896,-0.00549193,0.00096153,-0.00054973,-0.00078966,
 -0.00168336,0.00020191,0.00006315,-0.00030149,-0.00012560,-0.00004721,
 0.00009435,-0.01117918,-0.01982891,-0.02940783,-0.00074770,0.00175936,
 0.00012241,-0.00050421,0.00149612,-0.00051078,-0.01609104,-0.10243018,
 -0.03961484,0.00530981,0.00777224,0.01166560,-0.00068187,-0.00078769,-
 0.00097117,-0.01803513,0.54367111,-0.00007553,0.00096153,0.00006619,-0
 .00020301,0.00042447,0.00048404,-0.00010612,-0.00015311,0.00027745,-0.
 00004321,-0.00014009,-0.00009967,0.00097490,-0.00523815,-0.00195257,-0
 .00020713,0.00086386,0.00024204,-0.00009683,0.00150801,0.00101357,-0.0
 2948915,-0.04119355,-0.15130190,-0.01036683,-0.01546257,-0.02427208,-0
 .00080157,-0.00091775,-0.00187321,-0.02564700,-0.03783992,0.49443212,0
 .00048007,-0.00012560,-0.00004321,0.00000786,-0.00009394,-0.00006598,-
 0.00003229,0.00001800,-0.00000535,0.00006394,0.00019035,0.00018153,0.0
 0047094,0.00068077,0.00056618,0.00056451,-0.00083992,-0.00015180,-0.00
 004862,-0.00003500,-0.00001502,-0.01115771,-0.00044888,-0.00090818,0.0
 0066667,0.00021804,-0.00043127,0.00107275,-0.00090596,-0.00221145,-0.3
 0319981,-0.00451840,-0.00430775,0.33143622,0.00010541,-0.00004721,-0.0
 0014008,0.00006525,-0.00000843,0.00000004,-0.00001062,0.00000412,0.000
 03316,0.00019035,0.00002287,0.00009454,-0.00138641,0.00110979,0.000704
 27,0.00052363,-0.00008836,-0.00016706,-0.00003564,-0.00008153,-0.00000
 951,-0.01674552,-0.00116060,-0.00015137,0.00071519,0.00044807,0.000458
 62,-0.00105334,-0.00106271,-0.00294142,-0.00394210,-0.04771388,0.00036
 731,0.00575197,0.04773523,0.00003763,0.00009435,-0.00009967,0.00011820
 ,0.00000393,0.00002047,-0.00003042,0.00000679,-0.00003773,0.00018153,0
 .00009454,0.00006862,-0.00041100,0.00131754,0.00099961,0.00064434,-0.0
 0032455,0.00015582,0.00014236,-0.00008855,-0.00000487,-0.02937337,-0.0
 0092956,-0.00116393,0.00025276,0.00088167,0.00111569,-0.00189828,-0.00
 333637,-0.00426632,-0.00356077,0.00038218,-0.04717179,0.00693665,0.002
 38002,0.05053622,0.00064072,-0.00054973,-0.00020301,-0.00006694,-0.000
 12215,-0.00019436,-0.00000763,-0.00001616,-0.00002744,0.00000786,0.000
 06525,0.00011820,-0.00063588,-0.00052613,-0.00177319,0.00046768,-0.000
 30932,-0.00013987,-0.00010135,0.00028115,-0.00009220,0.00324994,-0.012
 16804,0.00059152,0.00018273,0.00048155,0.00045618,0.00046492,0.0000041
 5,0.00070517,-0.07621598,0.08221813,0.00018120,-0.01021730,0.03129897,
 -0.00045105,0.07884765,0.00074023,-0.00078966,0.00042447,-0.00012215,-
 0.00024977,-0.00034884,0.00001357,0.00000272,-0.00011664,-0.00009394,-
 0.00000843,0.00000393,-0.00222684,0.00011396,-0.00372499,0.00005725,0.
 00021512,0.00007591,-0.00005026,0.00045665,0.00003555,0.00519530,-0.01
 391573,0.00127222,0.00024646,0.00078745,-0.00031074,-0.00057264,0.0002
 9439,0.00033946,0.08154446,-0.27787155,0.00018586,0.00009911,0.0015566
 1,0.00021694,-0.08956838,0.30287936,0.00054138,-0.00168336,0.00048404,
 -0.00019436,-0.00034884,-0.00051002,0.00008204,0.00009879,0.00002481,-
 0.00006598,0.00000004,0.00002047,-0.00275461,-0.00094600,-0.00478350,0
 .00001139,0.00031059,-0.00007199,-0.00022317,-0.00025659,0.00025551,0.
 01061126,-0.02709984,0.00029143,0.00072954,0.00063639,0.00090591,-0.00
 003670,0.00071894,0.00111677,-0.00020755,0.00128666,-0.04688776,0.0002
 0390,0.00018441,-0.00101377,0.00151697,0.00171298,0.04975499,-0.000007
 42,0.00020191,-0.00010612,-0.00000763,0.00001357,0.00008204,-0.0000538
 7,-0.00002932,0.00000657,-0.00003229,-0.00001062,-0.00003042,0.0000341
 3,0.00028086,0.00037241,-0.00003489,-0.00008722,0.00011821,0.00015222,
 0.00007890,0.00021902,0.00368918,0.00560726,-0.01040024,0.00026716,-0.
 00132761,-0.00238614,0.00059745,0.00077162,0.00025700,-0.07532800,-0.0
 3769595,0.07018804,-0.01010722,-0.01547711,0.02741142,0.00338357,0.004
 73782,-0.01021411,0.07744761,-0.00008176,0.00006315,-0.00015311,-0.000
 01616,0.00000272,0.00009879,-0.00002932,-0.00011759,0.00014172,0.00001
 800,0.00000412,0.00000679,0.00053283,0.00170082,-0.00063312,0.00002300
 ,-0.00008097,0.00000462,-0.00024528,0.00001600,0.00034536,0.00619015,0
 .00722633,-0.01433107,-0.00084114,-0.00103620,-0.00330709,0.00037470,0
 .00053195,0.00089510,-0.03778109,-0.09980099,0.09663409,0.00000946,-0.
 00071397,-0.00069894,-0.01108928,-0.01347111,0.02538582,0.04293589,0.1
 0567575,-0.00021735,-0.00030149,0.00027745,-0.00002744,-0.00011664,0.0
 0002481,0.00000657,0.00014172,0.00032689,-0.00000535,0.00003316,-0.000
 03773,0.00030210,0.00171972,0.00084539,0.00002407,-0.00009539,-0.00001
 915,0.00002266,-0.00119551,0.00046375,0.00899712,0.01212371,-0.0243977
 5,-0.00250362,-0.00346622,-0.00348723,-0.00036919,0.00030828,0.0011010
 2,0.06972448,0.09581666,-0.22295644,0.00025174,-0.00081293,0.00086164,
 -0.00068811,0.00023390,0.00041309,-0.07551769,-0.10438896,0.24658427\\
 0.00000030,-0.00000042,0.00000023,0.00000030,-0.00000013,0.00000042,0.
 00000024,-0.00000036,0.00000018,0.00000022,-0.00000036,0.00000018,-0.0
 0000006,-0.00000010,-0.00000018,0.00000017,0.00000015,0.00000022,0.000
 00005,0.00000010,0.00000030,0.00000008,0.00000011,0.00000017,-0.000000
 05,-0.00000011,-0.00000029,-0.00000019,-0.00000015,-0.00000022,-0.0000
 0028,0.00000043,-0.00000024,-0.00000023,0.00000036,-0.00000018,-0.0000
 0030,0.00000013,-0.00000042,-0.00000024,0.00000036,-0.00000016\\\@
 The archive entry for this job was punched.


 KEEP CLOSE TO NATURES HEART, YOURSELF;
 AND BREAK CLEAR AWAY, ONCE IN A WHILE, AND
 CLIMB A MOUNTAIN OR SPEND A WEEK IN THE
 WOODS.  WASH YOUR SPIRIT CLEAN...
                                         -- JOHN MUIR
 Job cpu time:       0 days  0 hours 43 minutes  0.7 seconds.
 Elapsed time:       0 days  0 hours  2 minutes 42.0 seconds.
 File lengths (MBytes):  RWF=     80 Int=      0 D2E=      0 Chk=      7 Scr=      1
 Normal termination of Gaussian 16 at Fri Oct 29 10:18:14 2021.
