 Entering Gaussian System, Link 0=/home/emanuele/chem_software/gaussian/g09/g09
 Input=GauHarm.gjf
 Output=GauHarm.log
 Initial command:
 /home/emanuele/chem_software/gaussian//gdv/l1.exe "/home/emanuele/chem_software/gaussian/scratch/Gau-189906.inp" -scrdir="/home/emanuele/chem_software/gaussian/scratch/"
 Entering Link 1 = /home/emanuele/chem_software/gaussian//gdv/l1.exe PID=    189908.
  
 Copyright (c) 1988-2020, Gaussian, Inc.  All Rights Reserved.
  
 This is the private, development version of
 the Gaussian(R) DV system of programs. It is based on
 the Gaussian(R) 16 system (copyright 2016, Gaussian, Inc.),
 the Gaussian(R) 09 system (copyright 2009, Gaussian, Inc.),
 the Gaussian(R) 03 system (copyright 2003, Gaussian, Inc.),
 the Gaussian(R) 98 system (copyright 1998, Gaussian, Inc.),
 the Gaussian(R) 94 system (copyright 1995, Gaussian, Inc.),
 the Gaussian 92(TM) system (copyright 1992, Gaussian, Inc.),
 the Gaussian 90(TM) system (copyright 1990, Gaussian, Inc.),
 the Gaussian 88(TM) system (copyright 1988, Gaussian, Inc.),
 the Gaussian 86(TM) system (copyright 1986, Carnegie Mellon
 University), and the Gaussian 82(TM) system (copyright 1983,
 Carnegie Mellon University). Gaussian is a federally registered
 trademark of Gaussian, Inc.
  
 This software contains proprietary and confidential information,
 including trade secrets, belonging to Gaussian, Inc.
  
 This software is provided under written license and may be
 used, copied, transmitted, or stored only in accord with that
 written license.
  
 The following legend is applicable only to US Government
 contracts under FAR:
  
                    RESTRICTED RIGHTS LEGEND
  
 Use, reproduction and disclosure by the US Government is
 subject to restrictions as set forth in subparagraphs (a)
 and (c) of the Commercial Computer Software - Restricted
 Rights clause in FAR 52.227-19.
  
 Gaussian, Inc.
 340 Quinnipiac St., Bldg. 40, Wallingford CT 06492
  
  
 ---------------------------------------------------------------
 Warning -- This program may not be used in any manner that
 competes with the business of Gaussian, Inc. or will provide
 assistance to any competitor of Gaussian, Inc.  The licensee
 of this program is prohibited from giving any competitor of
 Gaussian, Inc. access to this program.  By using this program,
 the user acknowledges that Gaussian, Inc. is engaged in the
 business of creating and licensing software in the field of
 computational chemistry and represents and warrants to the
 licensee that it is not a competitor of Gaussian, Inc. and that
 it will not use this program in any manner prohibited above.
 ---------------------------------------------------------------
  

 Cite this work as:
 Gaussian Development Version, Revision J.14,
 M. J. Frisch, G. W. Trucks, H. B. Schlegel, G. E. Scuseria, 
 M. A. Robb, J. R. Cheeseman, G. Scalmani, V. Barone, 
 G. A. Petersson, H. Nakatsuji, X. Li, A. V. Marenich, M. Caricato, 
 J. Bloino, B. G. Janesko, J. Zheng, R. Gomperts, B. Mennucci, 
 H. P. Hratchian, J. V. Ortiz, A. F. Izmaylov, J. L. Sonnenberg, 
 D. Williams-Young, F. Ding, F. Lipparini, F. Egidi, J. Goings, 
 B. Peng, A. Petrone, T. Henderson, D. Ranasinghe, V. G. Zakrzewski, 
 J. Gao, N. Rega, G. Zheng, W. Liang, M. Hada, M. Ehara, K. Toyota, 
 R. Fukuda, J. Hasegawa, M. Ishida, T. Nakajima, Y. Honda, O. Kitao, 
 H. Nakai, T. Vreven, K. Throssell, J. A. Montgomery, Jr., 
 J. E. Peralta, F. Ogliaro, M. J. Bearpark, J. J. Heyd, 
 E. N. Brothers, K. N. Kudin, V. N. Staroverov, T. A. Keith, 
 R. Kobayashi, J. Normand, K. Raghavachari, A. P. Rendell, 
 J. C. Burant, S. S. Iyengar, J. Tomasi, M. Cossi, J. M. Millam, 
 M. Klene, C. Adamo, R. Cammi, J. W. Ochterski, R. L. Martin, 
 K. Morokuma, O. Farkas, J. B. Foresman, and D. J. Fox, 
 Gaussian, Inc., Wallingford CT, 2020.
 
 ******************************************
 Gaussian DV:  ES64L-GDVRevJ.14 29-Dec-2020
                19-Jun-2025 
 ******************************************
 %mem=1GB
 %nprocshared=1
 Will use up to    1 processors via shared memory.
 %chk=GauHarm.chk
 ----------------------------------------------
 #p Amber=(SoftOnly,Print) nosymm Freq=intmodes
 ----------------------------------------------
 1/10=4,18=20,30=1,37=210000000,38=1,56=2,64=303/1,3;
 2/9=110,12=2,15=1,40=1/2;
 3/5=30,11=9,25=1,30=1,41=10030000,43=2,71=2,140=1/1;
 4/20=11,22=2,24=3,119=11/2;
 7/8=21,25=1,30=1,44=-1/16;
 1/10=4,18=20,30=1,64=303/3;
 99//99;
 Leave Link    1 at Thu Jun 19 11:02:02 2025, MaxMem=   134217728 cpu:               0.0 elap:               0.0
 (Enter /home/emanuele/chem_software/gaussian//gdv/l101.exe)
 -----
 Title
 -----
 Symbolic Z-matrix:
 Charge =  0 Multiplicity = 1
 C-CT-0.00             1.9569   -0.12039   0. 
 H-HC-0.00             2.74201   0.63726   0. 
 H-HC-0.00             2.10375  -0.74938  -0.88076 
 H-HC-0.00             2.10375  -0.74938   0.88076 
 C-CT-0.00             0.56696   0.51292   0. 
 H-HC-0.00             0.46175   1.1634   -0.87403 
 H-HC-0.00             0.46175   1.1634    0.87403 
 C-CT-0.00            -0.56696  -0.51292   0. 
 H-HC-0.00            -0.46175  -1.1634   -0.87403 
 H-HC-0.00            -0.46175  -1.1634    0.87403 
 C-CT-0.00            -1.9569    0.12039   0. 
 H-HC-0.00            -2.10375   0.74938  -0.88076 
 H-HC-0.00            -2.74201  -0.63726   0. 
 H-HC-0.00            -2.10375   0.74938   0.88076 
 
 ITRead=  0  0  0  0  0  0  0  0  0  0  0  0  0  0
 MicOpt= -1 -1 -1 -1 -1 -1 -1 -1 -1 -1 -1 -1 -1 -1
 DXMax1 from symmetrization= 1.89D-06
 NAtoms=     14 NQM=       14 NQMF=       0 NMMI=      0 NMMIF=      0
                NMic=       0 NMicF=      0.
                    Isotopes and Nuclear Properties:
 (Nuclear quadrupole moments (NQMom) in fm**2, nuclear magnetic moments (NMagM)
  in nuclear magnetons)

  Atom         1           2           3           4           5           6           7           8           9          10
 IAtWgt=          12           1           1           1          12           1           1          12           1           1
 AtmWgt=  12.0000000   1.0078250   1.0078250   1.0078250  12.0000000   1.0078250   1.0078250  12.0000000   1.0078250   1.0078250
 NucSpn=           0           1           1           1           0           1           1           0           1           1
 AtZEff=  -0.0000000  -0.0000000  -0.0000000  -0.0000000  -0.0000000  -0.0000000  -0.0000000  -0.0000000  -0.0000000  -0.0000000
 NQMom=    0.0000000   0.0000000   0.0000000   0.0000000   0.0000000   0.0000000   0.0000000   0.0000000   0.0000000   0.0000000
 NMagM=    0.0000000   2.7928460   2.7928460   2.7928460   0.0000000   2.7928460   2.7928460   0.0000000   2.7928460   2.7928460
 AtZNuc=   6.0000000   1.0000000   1.0000000   1.0000000   6.0000000   1.0000000   1.0000000   6.0000000   1.0000000   1.0000000

  Atom        11          12          13          14
 IAtWgt=          12           1           1           1
 AtmWgt=  12.0000000   1.0078250   1.0078250   1.0078250
 NucSpn=           0           1           1           1
 AtZEff=  -0.0000000  -0.0000000  -0.0000000  -0.0000000
 NQMom=    0.0000000   0.0000000   0.0000000   0.0000000
 NMagM=    0.0000000   2.7928460   2.7928460   2.7928460
 AtZNuc=   6.0000000   1.0000000   1.0000000   1.0000000
 Generating MM parameters.
 Read MM parameter file:
 Include all MM classes

 MM sanity checks:
 All charges sum to:                0.00000000
 Charges of atoms sum to:           0.00000000
 WARNING -- There are centers with partial charges, but
 there is no Vanderwaals repulsion. Centers can collapse
 onto each other.
 MMInit generated parameter data with length LenPar=        2689.
 Leave Link  101 at Thu Jun 19 11:02:03 2025, MaxMem=   134217728 cpu:               0.3 elap:               0.3
 (Enter /home/emanuele/chem_software/gaussian//gdv/l103.exe)

 GradGradGradGradGradGradGradGradGradGradGradGradGradGradGradGradGradGrad
 Berny optimization.
 Initialization pass.
                           ----------------------------
                           !    Initial Parameters    !
                           ! (Angstroms and Degrees)  !
 --------------------------                            --------------------------
 ! Name  Definition              Value          Derivative Info.                !
 --------------------------------------------------------------------------------
 ! R1    R(1,2)                  1.0911         calculate D2E/DX2 analytically  !
 ! R2    R(1,3)                  1.0922         calculate D2E/DX2 analytically  !
 ! R3    R(1,4)                  1.0922         calculate D2E/DX2 analytically  !
 ! R4    R(1,5)                  1.5274         calculate D2E/DX2 analytically  !
 ! R5    R(5,6)                  1.0946         calculate D2E/DX2 analytically  !
 ! R6    R(5,7)                  1.0946         calculate D2E/DX2 analytically  !
 ! R7    R(5,8)                  1.5291         calculate D2E/DX2 analytically  !
 ! R8    R(8,9)                  1.0946         calculate D2E/DX2 analytically  !
 ! R9    R(8,10)                 1.0946         calculate D2E/DX2 analytically  !
 ! R10   R(8,11)                 1.5274         calculate D2E/DX2 analytically  !
 ! R11   R(11,12)                1.0922         calculate D2E/DX2 analytically  !
 ! R12   R(11,13)                1.0911         calculate D2E/DX2 analytically  !
 ! R13   R(11,14)                1.0922         calculate D2E/DX2 analytically  !
 ! A1    A(2,1,3)              107.6468         calculate D2E/DX2 analytically  !
 ! A2    A(2,1,4)              107.6468         calculate D2E/DX2 analytically  !
 ! A3    A(2,1,5)              111.5239         calculate D2E/DX2 analytically  !
 ! A4    A(3,1,4)              107.4912         calculate D2E/DX2 analytically  !
 ! A5    A(3,1,5)              111.1697         calculate D2E/DX2 analytically  !
 ! A6    A(4,1,5)              111.1697         calculate D2E/DX2 analytically  !
 ! A7    A(1,5,6)              109.5036         calculate D2E/DX2 analytically  !
 ! A8    A(1,5,7)              109.5036         calculate D2E/DX2 analytically  !
 ! A9    A(1,5,8)              113.3692         calculate D2E/DX2 analytically  !
 ! A10   A(6,5,7)              105.9737         calculate D2E/DX2 analytically  !
 ! A11   A(6,5,8)              109.1118         calculate D2E/DX2 analytically  !
 ! A12   A(7,5,8)              109.1118         calculate D2E/DX2 analytically  !
 ! A13   A(5,8,9)              109.1118         calculate D2E/DX2 analytically  !
 ! A14   A(5,8,10)             109.1118         calculate D2E/DX2 analytically  !
 ! A15   A(5,8,11)             113.3692         calculate D2E/DX2 analytically  !
 ! A16   A(9,8,10)             105.9737         calculate D2E/DX2 analytically  !
 ! A17   A(9,8,11)             109.5036         calculate D2E/DX2 analytically  !
 ! A18   A(10,8,11)            109.5036         calculate D2E/DX2 analytically  !
 ! A19   A(8,11,12)            111.1697         calculate D2E/DX2 analytically  !
 ! A20   A(8,11,13)            111.5239         calculate D2E/DX2 analytically  !
 ! A21   A(8,11,14)            111.1697         calculate D2E/DX2 analytically  !
 ! A22   A(12,11,13)           107.6468         calculate D2E/DX2 analytically  !
 ! A23   A(12,11,14)           107.4912         calculate D2E/DX2 analytically  !
 ! A24   A(13,11,14)           107.6468         calculate D2E/DX2 analytically  !
 ! D1    D(2,1,5,6)             57.898          calculate D2E/DX2 analytically  !
 ! D2    D(2,1,5,7)            -57.898          calculate D2E/DX2 analytically  !
 ! D3    D(2,1,5,8)            180.0            calculate D2E/DX2 analytically  !
 ! D4    D(3,1,5,6)            -62.247          calculate D2E/DX2 analytically  !
 ! D5    D(3,1,5,7)           -178.043          calculate D2E/DX2 analytically  !
 ! D6    D(3,1,5,8)             59.855          calculate D2E/DX2 analytically  !
 ! D7    D(4,1,5,6)            178.043          calculate D2E/DX2 analytically  !
 ! D8    D(4,1,5,7)             62.247          calculate D2E/DX2 analytically  !
 ! D9    D(4,1,5,8)            -59.855          calculate D2E/DX2 analytically  !
 ! D10   D(1,5,8,9)            -57.6801         calculate D2E/DX2 analytically  !
 ! D11   D(1,5,8,10)            57.6801         calculate D2E/DX2 analytically  !
 ! D12   D(1,5,8,11)           180.0            calculate D2E/DX2 analytically  !
 ! D13   D(6,5,8,9)             64.6397         calculate D2E/DX2 analytically  !
 ! D14   D(6,5,8,10)           180.0            calculate D2E/DX2 analytically  !
 ! D15   D(6,5,8,11)           -57.6801         calculate D2E/DX2 analytically  !
 ! D16   D(7,5,8,9)           -180.0            calculate D2E/DX2 analytically  !
 ! D17   D(7,5,8,10)           -64.6397         calculate D2E/DX2 analytically  !
 ! D18   D(7,5,8,11)            57.6801         calculate D2E/DX2 analytically  !
 ! D19   D(5,8,11,12)           59.855          calculate D2E/DX2 analytically  !
 ! D20   D(5,8,11,13)          180.0            calculate D2E/DX2 analytically  !
 ! D21   D(5,8,11,14)          -59.855          calculate D2E/DX2 analytically  !
 ! D22   D(9,8,11,12)          -62.247          calculate D2E/DX2 analytically  !
 ! D23   D(9,8,11,13)           57.898          calculate D2E/DX2 analytically  !
 ! D24   D(9,8,11,14)          178.043          calculate D2E/DX2 analytically  !
 ! D25   D(10,8,11,12)        -178.043          calculate D2E/DX2 analytically  !
 ! D26   D(10,8,11,13)         -57.898          calculate D2E/DX2 analytically  !
 ! D27   D(10,8,11,14)          62.247          calculate D2E/DX2 analytically  !
 --------------------------------------------------------------------------------
 Trust Radius=3.00D-01 FncErr=1.00D-07 GrdErr=1.00D-07 EigMax=2.50D+02 EigMin=1.00D-04
 Number of steps in this run=      2 maximum allowed number of steps=      2.
 GradGradGradGradGradGradGradGradGradGradGradGradGradGradGradGradGradGrad

 Leave Link  103 at Thu Jun 19 11:02:03 2025, MaxMem=   134217728 cpu:               0.0 elap:               0.0
 (Enter /home/emanuele/chem_software/gaussian//gdv/l202.exe)
                          Input orientation:                          
 ---------------------------------------------------------------------
 Center     Atomic      Atomic             Coordinates (Angstroms)
 Number     Number       Type             X           Y           Z
 ---------------------------------------------------------------------
      1          6    20001001        1.956897   -0.120392    0.000000
      2          1    20001034        2.742005    0.637259    0.000000
      3          1    20001034        2.103753   -0.749379   -0.880760
      4          1    20001034        2.103753   -0.749379    0.880760
      5          6    20001001        0.566957    0.512915    0.000000
      6          1    20001034        0.461751    1.163403   -0.874026
      7          1    20001034        0.461751    1.163403    0.874026
      8          6    20001001       -0.566957   -0.512915    0.000000
      9          1    20001034       -0.461751   -1.163403   -0.874026
     10          1    20001034       -0.461751   -1.163403    0.874026
     11          6    20001001       -1.956897    0.120392    0.000000
     12          1    20001034       -2.103753    0.749379   -0.880760
     13          1    20001034       -2.742005   -0.637259    0.000000
     14          1    20001034       -2.103753    0.749379    0.880760
 ---------------------------------------------------------------------
                    Distance matrix (angstroms):
                    1          2          3          4          5
     1  C    0.000000
     2  H    1.091068   0.000000
     3  H    1.092213   1.762348   0.000000
     4  H    1.092213   1.762348   1.761520   0.000000
     5  C    1.527420   2.178599   2.175055   2.175055   0.000000
     6  H    2.155809   2.498061   2.520903   3.071511   1.094589
     7  H    2.155809   2.498061   3.071511   2.520903   1.094589
     8  C    2.554195   3.503160   2.822117   2.822117   1.529081
     9  H    2.775185   3.777613   2.598706   3.135682   2.152255
    10  H    2.775185   3.777613   3.135682   2.598706   2.152255
    11  C    3.921194   4.727244   4.245129   4.245129   2.554195
    12  H    4.245129   4.926427   4.466473   4.801285   2.822117
    13  H    4.727244   5.630165   4.926427   4.926427   3.503160
    14  H    4.245129   4.926427   4.801285   4.466473   2.822117
                    6          7          8          9         10
     6  H    0.000000
     7  H    1.748052   0.000000
     8  C    2.152255   2.152255   0.000000
     9  H    2.503374   3.053288   1.094589   0.000000
    10  H    3.053288   2.503374   1.094589   1.748052   0.000000
    11  C    2.775185   2.775185   1.527420   2.155809   2.155809
    12  H    2.598706   3.135682   2.175055   2.520903   3.071511
    13  H    3.777613   3.777613   2.178599   2.498061   2.498061
    14  H    3.135682   2.598706   2.175055   3.071511   2.520903
                   11         12         13         14
    11  C    0.000000
    12  H    1.092213   0.000000
    13  H    1.091068   1.762348   0.000000
    14  H    1.092213   1.761520   1.762348   0.000000
 Symmetry turned off by external request.
 Stoichiometry    C4H10
 Framework group  C2H[SGH(C4H2),X(H8)]
 Deg. of freedom    11
 Full point group                 C2H     NOp   4
 Rotational constants (GHZ):          23.6116490           3.6179190           3.3991535
 Leave Link  202 at Thu Jun 19 11:02:03 2025, MaxMem=   134217728 cpu:               0.0 elap:               0.0
 (Enter /home/emanuele/chem_software/gaussian//gdv/l301.exe)
 Standard basis: Dummy (5D, 7F)
    14 basis functions,    14 primitive gaussians,    14 cartesian basis functions
     9 alpha electrons        9 beta electrons
       nuclear repulsion energy        36.5440176861 Hartrees.
 IExCor=       0 DFT=F Ex=HF Corr=None N6=None ScaHFX=  1.000000
 ScaDFX=  1.000000  1.000000  1.000000  1.000000  1.000000  0.000000
 ScaDFX=  0.000000  0.000000  0.000000  0.000000  0.000000  0.000000
 IRadAn=      5 IRanWt=     -1 IRanGd=            0 ICorTp=0 IEmpDi=  4
 NAtoms=   14 NActive=   14 NUniq=   14 SFac= 1.00D+00 NAtFMM=   60 NAOKFM=F Big=F
 Integral buffers will be    131072 words long.
 Raffenetti 1 integral format.
 Two-electron integral symmetry is turned off.
 Leave Link  301 at Thu Jun 19 11:02:03 2025, MaxMem=   134217728 cpu:               0.0 elap:               0.0
 (Enter /home/emanuele/chem_software/gaussian//gdv/l402.exe)
 AMBER calculation of energy, first and second derivatives.
 ****************************
 MOLECULAR MECHANICS FUNCTION
 ****************************
 Molecular mechanics terms:
 NBDir 3 1      0      0
 HrmStr1  1- 2    1.00 1.0930
 HrmStr1  1- 3    1.00 1.0930
 HrmStr1  1- 4    1.00 1.0930
 HrmStr1  1- 5    1.00 1.5280
 HrmStr1  5- 6    1.00 1.0930
 HrmStr1  5- 7    1.00 1.0930
 HrmStr1  5- 8    1.00 1.5280
 HrmStr1  8- 9    1.00 1.0930
 HrmStr1  8-10    1.00 1.0930
 HrmStr1  8-11    1.00 1.5280
 HrmStr1 11-12    1.00 1.0930
 HrmStr1 11-13    1.00 1.0930
 HrmStr1 11-14    1.00 1.0930
 HrmBnd1  1- 5- 6   1.00 110.16
 HrmBnd1  1- 5- 7   1.00 110.16
 HrmBnd1  1- 5- 8   1.00 113.37
 HrmBnd1  2- 1- 3   1.00 110.16
 HrmBnd1  2- 1- 4   1.00 110.16
 HrmBnd1  5- 1- 2   1.00 110.16
 HrmBnd1  3- 1- 4   1.00 110.16
 HrmBnd1  5- 1- 3   1.00 110.16
 HrmBnd1  5- 1- 4   1.00 110.16
 HrmBnd1  5- 8- 9   1.00 110.16
 HrmBnd1  5- 8-10   1.00 110.16
 HrmBnd1  5- 8-11   1.00 113.37
 HrmBnd1  6- 5- 7   1.00 110.16
 HrmBnd1  8- 5- 6   1.00 110.16
 HrmBnd1  8- 5- 7   1.00 110.16
 HrmBnd1  8-11-12   1.00 110.16
 HrmBnd1  8-11-13   1.00 110.16
 HrmBnd1  8-11-14   1.00 110.16
 HrmBnd1  9- 8-10   1.00 110.16
 HrmBnd1 11- 8- 9   1.00 110.16
 HrmBnd1 11- 8-10   1.00 110.16
 HrmBnd1 12-11-13   1.00 110.16
 HrmBnd1 12-11-14   1.00 110.16
 HrmBnd1 13-11-14   1.00 110.16
 AmbTrs  2- 1- 5- 6   0   0   0   0  0.0000  0.0000  1.0000  0.0000  9.0
 AmbTrs  2- 1- 5- 7   0   0   0   0  0.0000  0.0000  1.0000  0.0000  9.0
 AmbTrs  8- 5- 1- 2   0   0   0   0  0.0000  0.0000  1.0000  0.0000  9.0
 AmbTrs  3- 1- 5- 6   0   0   0   0  0.0000  0.0000  1.0000  0.0000  9.0
 AmbTrs  3- 1- 5- 7   0   0   0   0  0.0000  0.0000  1.0000  0.0000  9.0
 AmbTrs  8- 5- 1- 3   0   0   0   0  0.0000  0.0000  1.0000  0.0000  9.0
 AmbTrs  4- 1- 5- 6   0   0   0   0  0.0000  0.0000  1.0000  0.0000  9.0
 AmbTrs  4- 1- 5- 7   0   0   0   0  0.0000  0.0000  1.0000  0.0000  9.0
 AmbTrs  8- 5- 1- 4   0   0   0   0  0.0000  0.0000  1.0000  0.0000  9.0
 AmbTrs  1- 5- 8- 9   0   0   0   0  0.0000  0.0000  1.0000  0.0000  9.0
 AmbTrs  1- 5- 8-10   0   0   0   0  0.0000  0.0000  1.0000  0.0000  9.0
 AmbTrs  1- 5- 8-11   0   0   0   0  0.0000  0.0000  1.0000  0.0000  9.0
 AmbTrs  6- 5- 8- 9   0   0   0   0  0.0000  0.0000  1.0000  0.0000  9.0
 AmbTrs  6- 5- 8-10   0   0   0   0  0.0000  0.0000  1.0000  0.0000  9.0
 AmbTrs 11- 8- 5- 6   0   0   0   0  0.0000  0.0000  1.0000  0.0000  9.0
 AmbTrs  7- 5- 8- 9   0   0   0   0  0.0000  0.0000  1.0000  0.0000  9.0
 AmbTrs  7- 5- 8-10   0   0   0   0  0.0000  0.0000  1.0000  0.0000  9.0
 AmbTrs 11- 8- 5- 7   0   0   0   0  0.0000  0.0000  1.0000  0.0000  9.0
 AmbTrs  5- 8-11-12   0   0   0   0  0.0000  0.0000  1.0000  0.0000  9.0
 AmbTrs  5- 8-11-13   0   0   0   0  0.0000  0.0000  1.0000  0.0000  9.0
 AmbTrs  5- 8-11-14   0   0   0   0  0.0000  0.0000  1.0000  0.0000  9.0
 AmbTrs  9- 8-11-12   0   0   0   0  0.0000  0.0000  1.0000  0.0000  9.0
 AmbTrs  9- 8-11-13   0   0   0   0  0.0000  0.0000  1.0000  0.0000  9.0
 AmbTrs  9- 8-11-14   0   0   0   0  0.0000  0.0000  1.0000  0.0000  9.0
 AmbTrs 10- 8-11-12   0   0   0   0  0.0000  0.0000  1.0000  0.0000  9.0
 AmbTrs 10- 8-11-13   0   0   0   0  0.0000  0.0000  1.0000  0.0000  9.0
 AmbTrs 10- 8-11-14   0   0   0   0  0.0000  0.0000  1.0000  0.0000  9.0
 NBPair  2- 1 3 1      0      0 -1.000 -1.000
 NBPair  3- 2 3 1      0      0 -1.000 -1.000
 NBPair  4- 2 3 1      0      0 -1.000 -1.000
 NBPair  5- 2 3 1      0      0 -1.000 -1.000
 NBPair  3- 1 3 1      0      0 -1.000 -1.000
 NBPair  4- 3 3 1      0      0 -1.000 -1.000
 NBPair  5- 3 3 1      0      0 -1.000 -1.000
 NBPair  4- 1 3 1      0      0 -1.000 -1.000
 NBPair  5- 4 3 1      0      0 -1.000 -1.000
 NBPair  5- 1 3 1      0      0 -1.000 -1.000
 NBPair  6- 2 3 1      0      0 -0.500 -0.167
 NBPair  7- 2 3 1      0      0 -0.500 -0.167
 NBPair  8- 2 3 1      0      0 -0.500 -0.167
 NBPair  6- 3 3 1      0      0 -0.500 -0.167
 NBPair  7- 3 3 1      0      0 -0.500 -0.167
 NBPair  8- 3 3 1      0      0 -0.500 -0.167
 NBPair  6- 4 3 1      0      0 -0.500 -0.167
 NBPair  7- 4 3 1      0      0 -0.500 -0.167
 NBPair  8- 4 3 1      0      0 -0.500 -0.167
 NBPair  6- 1 3 1      0      0 -1.000 -1.000
 NBPair  7- 1 3 1      0      0 -1.000 -1.000
 NBPair  8- 1 3 1      0      0 -1.000 -1.000
 NBPair  6- 5 3 1      0      0 -1.000 -1.000
 NBPair  7- 6 3 1      0      0 -1.000 -1.000
 NBPair  8- 6 3 1      0      0 -1.000 -1.000
 NBPair  7- 5 3 1      0      0 -1.000 -1.000
 NBPair  8- 7 3 1      0      0 -1.000 -1.000
 NBPair  8- 5 3 1      0      0 -1.000 -1.000
 NBPair  9- 1 3 1      0      0 -0.500 -0.167
 NBPair 10- 1 3 1      0      0 -0.500 -0.167
 NBPair 11- 1 3 1      0      0 -0.500 -0.167
 NBPair  9- 6 3 1      0      0 -0.500 -0.167
 NBPair 10- 6 3 1      0      0 -0.500 -0.167
 NBPair 11- 6 3 1      0      0 -0.500 -0.167
 NBPair  9- 7 3 1      0      0 -0.500 -0.167
 NBPair 10- 7 3 1      0      0 -0.500 -0.167
 NBPair 11- 7 3 1      0      0 -0.500 -0.167
 NBPair  9- 5 3 1      0      0 -1.000 -1.000
 NBPair 10- 5 3 1      0      0 -1.000 -1.000
 NBPair 11- 5 3 1      0      0 -1.000 -1.000
 NBPair  9- 8 3 1      0      0 -1.000 -1.000
 NBPair 10- 9 3 1      0      0 -1.000 -1.000
 NBPair 11- 9 3 1      0      0 -1.000 -1.000
 NBPair 10- 8 3 1      0      0 -1.000 -1.000
 NBPair 11-10 3 1      0      0 -1.000 -1.000
 NBPair 11- 8 3 1      0      0 -1.000 -1.000
 NBPair 12- 5 3 1      0      0 -0.500 -0.167
 NBPair 13- 5 3 1      0      0 -0.500 -0.167
 NBPair 14- 5 3 1      0      0 -0.500 -0.167
 NBPair 12- 9 3 1      0      0 -0.500 -0.167
 NBPair 13- 9 3 1      0      0 -0.500 -0.167
 NBPair 14- 9 3 1      0      0 -0.500 -0.167
 NBPair 12-10 3 1      0      0 -0.500 -0.167
 NBPair 13-10 3 1      0      0 -0.500 -0.167
 NBPair 14-10 3 1      0      0 -0.500 -0.167
 NBPair 12- 8 3 1      0      0 -1.000 -1.000
 NBPair 13- 8 3 1      0      0 -1.000 -1.000
 NBPair 14- 8 3 1      0      0 -1.000 -1.000
 NBPair 12-11 3 1      0      0 -1.000 -1.000
 NBPair 13-12 3 1      0      0 -1.000 -1.000
 NBPair 14-12 3 1      0      0 -1.000 -1.000
 NBPair 13-11 3 1      0      0 -1.000 -1.000
 NBPair 14-13 3 1      0      0 -1.000 -1.000
 NBPair 14-11 3 1      0      0 -1.000 -1.000
 Energy per function type:
 Direct Coulomb + vdW (small)                           0.000000000
 Direct Coulomb (large)                                 0.000000000
 Direct vdW (large)                                     0.000000000
 Non-direct Coulomb + vdW (small)                       0.000000000
 Non-direct Coulomb (large)                             0.000000000
 Non-direct vdW (large)                                 0.000000000
 Harmonic stretch I                                     0.000000035
 Harmonic bend I                                        0.000042858
 Amber torsion                                          0.000028534
 Energy per function class:
        Coulomb               0.000000000
    Vanderwaals               0.000000000
     Stretching               0.000000035
        Bending               0.000042858
        Torsion               0.000028534
 Energy=    7.142711588E-05 NIter=   0.
 Dipole moment=       0.000000       0.000000       0.000000
 Leave Link  402 at Thu Jun 19 11:02:03 2025, MaxMem=   134217728 cpu:               0.0 elap:               0.0
 (Enter /home/emanuele/chem_software/gaussian//gdv/l716.exe)
 Dipole        = 0.00000000D+00 0.00000000D+00 0.00000000D+00
 Full mass-weighted force constant matrix:
 Low frequencies ---  -18.5074   -5.8538   -0.0000   -0.0000    0.0000    7.4756
 Low frequencies ---   31.9808   39.4450   56.6965
 Diagonal vibrational polarizability:
        0.0000000       0.0000000       0.0000000
 Harmonic frequencies (cm**-1), IR intensities (KM/Mole), Raman scattering
 activities (A**4/AMU), depolarization ratios for plane and unpolarized
 incident light, reduced masses (AMU), force constants (mDyne/A),
 and normal coordinates:
                      1                      2                      3
                      A                      A                      A
 Frequencies --     31.9807                39.4450                56.6965
 Red. masses --      3.6385                 2.4066                 3.8369
 Frc consts  --      0.0022                 0.0022                 0.0073
 IR Inten    --      0.0000                 0.0000                 0.0000
  Atom  AN      X      Y      Z        X      Y      Z        X      Y      Z
     1   6     0.32  -0.00  -0.00    -0.08  -0.14  -0.00    -0.21   0.11  -0.00
     2   1     0.30   0.03  -0.00     0.12  -0.34  -0.00    -0.26   0.14  -0.00
     3   1     0.35   0.00  -0.00    -0.24  -0.18   0.00    -0.22   0.13   0.01
     4   1     0.35   0.00   0.00    -0.24  -0.18  -0.00    -0.22   0.13  -0.01
     5   6     0.13   0.04   0.00     0.09   0.17   0.00     0.23  -0.13   0.00
     6   1     0.14   0.03  -0.00     0.16   0.20   0.00     0.24  -0.14   0.01
     7   1     0.14   0.03   0.00     0.16   0.20  -0.00     0.24  -0.14  -0.01
     8   6    -0.13  -0.04   0.00     0.09   0.17  -0.00     0.23  -0.13  -0.00
     9   1    -0.14  -0.03  -0.00     0.16   0.20  -0.00     0.24  -0.14  -0.01
    10   1    -0.14  -0.03   0.00     0.16   0.20   0.00     0.24  -0.14   0.01
    11   6    -0.32   0.00  -0.00    -0.08  -0.14   0.00    -0.21   0.11   0.00
    12   1    -0.35  -0.00  -0.00    -0.24  -0.18  -0.00    -0.22   0.13  -0.01
    13   1    -0.30  -0.03  -0.00     0.12  -0.34   0.00    -0.26   0.14   0.00
    14   1    -0.35  -0.00   0.00    -0.24  -0.18   0.00    -0.22   0.13   0.01
                      4                      5                      6
                      A                      A                      A
 Frequencies --     60.9012                66.8163                86.9668
 Red. masses --      3.1907                 2.2284                 2.5974
 Frc consts  --      0.0070                 0.0059                 0.0116
 IR Inten    --      0.0000                 0.0000                 0.0000
  Atom  AN      X      Y      Z        X      Y      Z        X      Y      Z
     1   6    -0.11   0.07  -0.00     0.00  -0.00  -0.15     0.02  -0.06  -0.00
     2   1     0.01  -0.03  -0.00    -0.00   0.00  -0.26     0.23  -0.26   0.00
     3   1    -0.21   0.07   0.01    -0.23   0.10  -0.27    -0.12  -0.10  -0.01
     4   1    -0.21   0.07  -0.01     0.23  -0.10  -0.27    -0.12  -0.10   0.01
     5   6     0.26   0.12   0.00    -0.00  -0.00   0.18    -0.09   0.24   0.00
     6   1     0.36   0.15  -0.01    -0.03  -0.01   0.22    -0.18   0.31  -0.04
     7   1     0.36   0.15   0.01     0.03   0.01   0.22    -0.18   0.31   0.04
     8   6    -0.26  -0.12   0.00     0.00   0.00   0.18     0.09  -0.24   0.00
     9   1    -0.36  -0.15  -0.01     0.03   0.01   0.22     0.18  -0.31  -0.04
    10   1    -0.36  -0.15   0.01    -0.03  -0.01   0.22     0.18  -0.31   0.04
    11   6     0.11  -0.07  -0.00    -0.00   0.00  -0.15    -0.02   0.06  -0.00
    12   1     0.21  -0.07   0.01     0.23  -0.10  -0.27     0.12   0.10  -0.01
    13   1    -0.01   0.03  -0.00     0.00  -0.00  -0.26    -0.23   0.26   0.00
    14   1     0.21  -0.07  -0.01    -0.23   0.10  -0.27     0.12   0.10   0.01
                      7                      8                      9
                      A                      A                      A
 Frequencies --    124.1757               139.5787               146.7401
 Red. masses --      1.0084                 1.0454                 1.0212
 Frc consts  --      0.0092                 0.0120                 0.0130
 IR Inten    --      0.0000                 0.0000                 0.0000
  Atom  AN      X      Y      Z        X      Y      Z        X      Y      Z
     1   6    -0.00   0.00  -0.00    -0.00  -0.00  -0.01     0.01   0.01  -0.00
     2   1    -0.00   0.00   0.33    -0.00  -0.00   0.22     0.55   0.04   0.00
     3   1     0.12   0.26  -0.17     0.32  -0.06  -0.09    -0.22   0.11   0.14
     4   1    -0.12  -0.26  -0.17    -0.32   0.06  -0.09    -0.22   0.11  -0.14
     5   6     0.00  -0.00  -0.00     0.00  -0.00  -0.04    -0.01  -0.02  -0.00
     6   1     0.18   0.23   0.05    -0.00   0.27  -0.18    -0.02  -0.10   0.09
     7   1    -0.18  -0.23   0.05     0.00  -0.27  -0.18    -0.02  -0.10  -0.09
     8   6    -0.00   0.00  -0.00     0.00  -0.00   0.04    -0.01  -0.02   0.00
     9   1    -0.18  -0.23   0.05    -0.00   0.27   0.18    -0.02  -0.10  -0.09
    10   1     0.18   0.23   0.05     0.00  -0.27   0.18    -0.02  -0.10   0.09
    11   6     0.00  -0.00  -0.00    -0.00  -0.00   0.01     0.01   0.01   0.00
    12   1    -0.12  -0.26  -0.17     0.32  -0.06   0.09    -0.22   0.11  -0.14
    13   1     0.00  -0.00   0.33    -0.00  -0.00  -0.22     0.55   0.04  -0.00
    14   1     0.12   0.26  -0.17    -0.32   0.06   0.09    -0.22   0.11   0.14
                     10                     11                     12
                      A                      A                      A
 Frequencies --    146.8168               147.0118               147.5967
 Red. masses --      1.0191                 1.0227                 1.0146
 Frc consts  --      0.0129                 0.0130                 0.0130
 IR Inten    --      0.0000                 0.0000                 0.0000
  Atom  AN      X      Y      Z        X      Y      Z        X      Y      Z
     1   6    -0.00  -0.00  -0.01     0.00   0.01  -0.00     0.00   0.00   0.01
     2   1    -0.00  -0.00   0.08     0.54   0.04   0.00     0.00   0.00  -0.01
     3   1     0.32  -0.29  -0.19    -0.21   0.11   0.14    -0.22   0.28   0.14
     4   1    -0.32   0.29  -0.19    -0.21   0.11  -0.14     0.22  -0.28   0.14
     5   6    -0.00   0.00   0.02    -0.01  -0.02   0.00     0.00  -0.00  -0.02
     6   1     0.02  -0.08   0.14    -0.01  -0.12   0.12    -0.02   0.21  -0.23
     7   1    -0.02   0.08   0.14    -0.01  -0.12  -0.12     0.02  -0.21  -0.23
     8   6     0.00  -0.00   0.02     0.01   0.02   0.00     0.00  -0.00   0.02
     9   1    -0.02   0.08   0.14     0.01   0.12   0.12    -0.02   0.21   0.23
    10   1     0.02  -0.08   0.14     0.01   0.12  -0.12     0.02  -0.21   0.23
    11   6     0.00   0.00  -0.01    -0.00  -0.01  -0.00     0.00   0.00  -0.01
    12   1    -0.32   0.29  -0.19     0.21  -0.11   0.14    -0.22   0.28  -0.14
    13   1     0.00   0.00   0.08    -0.54  -0.04   0.00     0.00   0.00   0.01
    14   1     0.32  -0.29  -0.19     0.21  -0.11  -0.14     0.22  -0.28  -0.14
                     13                     14                     15
                      A                      A                      A
 Frequencies --    155.1713               155.1725               157.4531
 Red. masses --      1.0292                 1.0292                 1.0639
 Frc consts  --      0.0146                 0.0146                 0.0155
 IR Inten    --      0.0000                 0.0000                 0.0000
  Atom  AN      X      Y      Z        X      Y      Z        X      Y      Z
     1   6     0.03  -0.01  -0.00     0.03  -0.01   0.00     0.01   0.01   0.00
     2   1    -0.25  -0.30  -0.00    -0.25  -0.30  -0.00    -0.14  -0.11   0.00
     3   1    -0.03   0.23   0.34    -0.03   0.23   0.34     0.03  -0.03  -0.05
     4   1    -0.03   0.23  -0.34    -0.03   0.23  -0.34     0.03  -0.03   0.05
     5   6    -0.00  -0.00   0.00    -0.00  -0.00   0.00    -0.01   0.05  -0.00
     6   1    -0.01   0.01  -0.02    -0.01   0.01  -0.01     0.05  -0.26   0.40
     7   1    -0.01   0.01   0.02    -0.01   0.01   0.01     0.05  -0.26  -0.40
     8   6    -0.00  -0.00  -0.00     0.00   0.00   0.00    -0.01   0.05   0.00
     9   1    -0.01   0.01   0.02     0.01  -0.01  -0.01     0.05  -0.26  -0.40
    10   1    -0.01   0.01  -0.02     0.01  -0.01   0.01     0.05  -0.26   0.40
    11   6     0.03  -0.01   0.00    -0.03   0.01   0.00     0.01   0.01  -0.00
    12   1    -0.03   0.23  -0.34     0.03  -0.23   0.34     0.03  -0.03   0.05
    13   1    -0.25  -0.30   0.00     0.25   0.30  -0.00    -0.14  -0.11  -0.00
    14   1    -0.03   0.23   0.34     0.03  -0.23  -0.34     0.03  -0.03  -0.05
                     16                     17                     18
                      A                      A                      A
 Frequencies --    158.9330               160.5557               168.2173
 Red. masses --      1.0946                 1.0933                 1.1099
 Frc consts  --      0.0163                 0.0166                 0.0185
 IR Inten    --      0.0000                 0.0000                 0.0000
  Atom  AN      X      Y      Z        X      Y      Z        X      Y      Z
     1   6     0.01   0.02  -0.00    -0.00  -0.00  -0.02     0.00   0.00  -0.07
     2   1    -0.16  -0.18   0.00     0.00   0.00   0.04    -0.00  -0.00  -0.02
     3   1     0.02  -0.05  -0.09     0.02   0.17   0.14     0.21   0.13   0.36
     4   1     0.02  -0.05   0.09    -0.02  -0.17   0.14    -0.21  -0.13   0.36
     5   6    -0.01   0.06  -0.00    -0.00  -0.00  -0.06    -0.00   0.00  -0.01
     6   1     0.02  -0.24   0.39     0.10  -0.29   0.33    -0.19  -0.02   0.15
     7   1     0.02  -0.24  -0.39    -0.10   0.29   0.33     0.19   0.02   0.15
     8   6     0.01  -0.06  -0.00     0.00   0.00  -0.06    -0.00   0.00   0.01
     9   1    -0.02   0.24   0.39    -0.10   0.29   0.33    -0.19  -0.02  -0.15
    10   1    -0.02   0.24  -0.39     0.10  -0.29   0.33     0.19   0.02  -0.15
    11   6    -0.01  -0.02  -0.00     0.00   0.00  -0.02     0.00   0.00   0.07
    12   1    -0.02   0.05  -0.09    -0.02  -0.17   0.14     0.21   0.13  -0.36
    13   1     0.16   0.18   0.00    -0.00  -0.00   0.04    -0.00  -0.00   0.02
    14   1    -0.02   0.05   0.09     0.02   0.17   0.14    -0.21  -0.13  -0.36
                     19                     20                     21
                      A                      A                      A
 Frequencies --    171.2905               174.8402               176.9939
 Red. masses --      1.1472                 1.2246                 1.2882
 Frc consts  --      0.0198                 0.0221                 0.0238
 IR Inten    --      0.0000                 0.0000                 0.0000
  Atom  AN      X      Y      Z        X      Y      Z        X      Y      Z
     1   6    -0.00  -0.00  -0.03    -0.04  -0.09   0.00    -0.04  -0.09   0.00
     2   1     0.00   0.00   0.16    -0.02   0.55  -0.00    -0.04   0.54   0.00
     3   1     0.08   0.24  -0.01     0.16   0.03   0.23     0.16   0.02   0.22
     4   1    -0.08  -0.24  -0.01     0.16   0.03  -0.23     0.16   0.02  -0.22
     5   6    -0.00  -0.00  -0.07    -0.00   0.03   0.00    -0.00   0.06  -0.00
     6   1     0.38  -0.15   0.05     0.09   0.00   0.08     0.05  -0.00   0.13
     7   1    -0.38   0.15   0.05     0.09   0.00  -0.08     0.05  -0.00  -0.13
     8   6    -0.00  -0.00   0.07    -0.00   0.03  -0.00     0.00  -0.06  -0.00
     9   1     0.38  -0.15  -0.05     0.09   0.00  -0.08    -0.05   0.00   0.13
    10   1    -0.38   0.15  -0.05     0.09   0.00   0.08    -0.05   0.00  -0.13
    11   6    -0.00  -0.00   0.03    -0.04  -0.09  -0.00     0.04   0.09   0.00
    12   1     0.08   0.24   0.01     0.16   0.03  -0.23    -0.16  -0.02   0.22
    13   1     0.00   0.00  -0.16    -0.02   0.55   0.00     0.04  -0.54   0.00
    14   1    -0.08  -0.24   0.01     0.16   0.03   0.23    -0.16  -0.02  -0.22
                     22                     23                     24
                      A                      A                      A
 Frequencies --    179.1700               215.0708               231.0537
 Red. masses --      1.3221                 1.4647                 1.2228
 Frc consts  --      0.0250                 0.0399                 0.0385
 IR Inten    --      0.0000                 0.0000                 0.0000
  Atom  AN      X      Y      Z        X      Y      Z        X      Y      Z
     1   6     0.00   0.00   0.10     0.00   0.00  -0.06    -0.09   0.04   0.00
     2   1     0.00  -0.00   0.07     0.00  -0.00  -0.33     0.29  -0.29   0.00
     3   1    -0.31  -0.09  -0.34     0.07  -0.14   0.19     0.37  -0.09   0.12
     4   1     0.31   0.09  -0.34    -0.07   0.14   0.19     0.37  -0.09  -0.12
     5   6    -0.00  -0.00  -0.06    -0.00  -0.00   0.13    -0.00  -0.00  -0.00
     6   1     0.08  -0.11   0.06     0.32   0.09  -0.13     0.04   0.00  -0.00
     7   1    -0.08   0.11   0.06    -0.32  -0.09  -0.13     0.04   0.00   0.00
     8   6     0.00   0.00  -0.06    -0.00  -0.00  -0.13    -0.00  -0.00   0.00
     9   1    -0.08   0.11   0.06     0.32   0.09   0.13     0.04   0.00   0.00
    10   1     0.08  -0.11   0.06    -0.32  -0.09   0.13     0.04   0.00  -0.00
    11   6    -0.00  -0.00   0.10     0.00   0.00   0.06    -0.09   0.04  -0.00
    12   1     0.31   0.09  -0.34     0.07  -0.14  -0.19     0.37  -0.09  -0.12
    13   1    -0.00   0.00   0.07     0.00  -0.00   0.33     0.29  -0.29  -0.00
    14   1    -0.31  -0.09  -0.34    -0.07   0.14  -0.19     0.37  -0.09   0.12
                     25                     26                     27
                      A                      A                      A
 Frequencies --    231.0566               234.3640               238.0284
 Red. masses --      1.2232                 1.0150                 1.2235
 Frc consts  --      0.0385                 0.0328                 0.0408
 IR Inten    --      0.0000                 0.0000                 0.0000
  Atom  AN      X      Y      Z        X      Y      Z        X      Y      Z
     1   6    -0.09   0.04  -0.00     0.00   0.00  -0.01     0.02   0.01   0.00
     2   1     0.29  -0.29  -0.00    -0.00  -0.00  -0.20     0.01  -0.03   0.00
     3   1     0.37  -0.09   0.12    -0.04  -0.13   0.10    -0.04   0.05  -0.05
     4   1     0.37  -0.09  -0.12     0.04   0.13   0.10    -0.04   0.05   0.05
     5   6    -0.00  -0.00   0.00    -0.00  -0.00   0.02    -0.09  -0.03  -0.00
     6   1     0.03   0.00  -0.00     0.44   0.06  -0.03     0.48   0.06  -0.03
     7   1     0.03   0.00   0.00    -0.44  -0.06  -0.03     0.48   0.06   0.03
     8   6     0.00   0.00   0.00     0.00   0.00   0.02    -0.09  -0.03   0.00
     9   1    -0.03  -0.00  -0.00    -0.44  -0.06  -0.03     0.48   0.06   0.03
    10   1    -0.03  -0.00   0.00     0.44   0.06  -0.03     0.48   0.06  -0.03
    11   6     0.09  -0.04  -0.00    -0.00  -0.00  -0.01     0.02   0.01  -0.00
    12   1    -0.37   0.09   0.12     0.04   0.13   0.10    -0.04   0.05   0.05
    13   1    -0.29   0.29  -0.00     0.00   0.00  -0.20     0.01  -0.03  -0.00
    14   1    -0.37   0.09  -0.12    -0.04  -0.13   0.10    -0.04   0.05  -0.05
                     28                     29                     30
                      A                      A                      A
 Frequencies --    246.9875               281.7615               300.0087
 Red. masses --      1.3257                 1.1957                 1.1240
 Frc consts  --      0.0476                 0.0559                 0.0596
 IR Inten    --      0.0000                 0.0000                 0.0000
  Atom  AN      X      Y      Z        X      Y      Z        X      Y      Z
     1   6     0.01   0.01   0.00    -0.00  -0.00   0.00     0.00   0.00  -0.07
     2   1     0.01  -0.03   0.00     0.00  -0.00  -0.01    -0.00   0.00   0.47
     3   1    -0.02   0.05  -0.04     0.16   0.21  -0.12    -0.20  -0.22   0.15
     4   1    -0.02   0.05   0.04    -0.16  -0.21  -0.12     0.20   0.22   0.15
     5   6    -0.12  -0.01   0.00     0.00  -0.00   0.09    -0.00   0.00  -0.01
     6   1     0.48   0.09   0.01    -0.13  -0.28  -0.26    -0.03   0.12   0.11
     7   1     0.48   0.09  -0.01     0.13   0.28  -0.26     0.03  -0.12   0.11
     8   6     0.12   0.01   0.00     0.00  -0.00  -0.09     0.00  -0.00  -0.01
     9   1    -0.48  -0.09   0.01    -0.13  -0.28   0.26     0.03  -0.12   0.11
    10   1    -0.48  -0.09  -0.01     0.13   0.28   0.26    -0.03   0.12   0.11
    11   6    -0.01  -0.01   0.00    -0.00  -0.00  -0.00    -0.00  -0.00  -0.07
    12   1     0.02  -0.05  -0.04     0.16   0.21   0.12     0.20   0.22   0.15
    13   1    -0.01   0.03   0.00     0.00  -0.00   0.01     0.00  -0.00   0.47
    14   1     0.02  -0.05   0.04    -0.16  -0.21   0.12    -0.20  -0.22   0.15
                     31                     32                     33
                      A                      A                      A
 Frequencies --    300.2278               300.2335               303.1806
 Red. masses --      1.1407                 1.1429                 1.2128
 Frc consts  --      0.0606                 0.0607                 0.0657
 IR Inten    --      0.0000                 0.0000                 0.0000
  Atom  AN      X      Y      Z        X      Y      Z        X      Y      Z
     1   6    -0.03  -0.07  -0.00    -0.03  -0.07  -0.00     0.00   0.00  -0.08
     2   1     0.09  -0.06   0.00     0.09  -0.06   0.00    -0.00   0.00   0.58
     3   1     0.12   0.40  -0.25     0.12   0.40  -0.25    -0.16  -0.15   0.11
     4   1     0.12   0.40   0.25     0.12   0.40   0.25     0.16   0.15   0.11
     5   6     0.01   0.00  -0.00     0.01   0.00  -0.00     0.00  -0.00   0.05
     6   1    -0.03   0.03   0.03    -0.03   0.03   0.03    -0.01  -0.09  -0.09
     7   1    -0.03   0.03  -0.03    -0.03   0.03  -0.03     0.01   0.09  -0.09
     8   6     0.01   0.00   0.00    -0.01  -0.00  -0.00     0.00  -0.00  -0.05
     9   1    -0.03   0.03  -0.03     0.03  -0.03   0.03    -0.01  -0.09   0.09
    10   1    -0.03   0.03   0.03     0.03  -0.03  -0.03     0.01   0.09   0.09
    11   6    -0.03  -0.07   0.00     0.03   0.07  -0.00     0.00   0.00   0.08
    12   1     0.12   0.40   0.25    -0.12  -0.40  -0.25    -0.16  -0.15  -0.11
    13   1     0.09  -0.06  -0.00    -0.09   0.06   0.00    -0.00   0.00  -0.58
    14   1     0.12   0.40  -0.25    -0.12  -0.40   0.25     0.16   0.15  -0.11
                     34                     35                     36
                      A                      A                      A
 Frequencies --    308.6775               333.4209               335.9146
 Red. masses --      1.1067                 1.1187                 1.1502
 Frc consts  --      0.0621                 0.0733                 0.0765
 IR Inten    --      0.0000                 0.0000                 0.0000
  Atom  AN      X      Y      Z        X      Y      Z        X      Y      Z
     1   6     0.00   0.00  -0.03     0.00   0.01   0.00     0.00   0.01   0.00
     2   1    -0.00  -0.00   0.32     0.00  -0.01  -0.00     0.00  -0.01  -0.00
     3   1    -0.00   0.05  -0.02    -0.01  -0.02   0.01    -0.01  -0.02   0.01
     4   1     0.00  -0.05  -0.02    -0.01  -0.02  -0.01    -0.01  -0.02  -0.01
     5   6     0.00  -0.00   0.06     0.01  -0.07  -0.00     0.02  -0.08  -0.00
     6   1     0.10  -0.31  -0.29    -0.05   0.39   0.31    -0.07   0.38   0.30
     7   1    -0.10   0.31  -0.29    -0.05   0.39  -0.31    -0.07   0.38  -0.30
     8   6    -0.00   0.00   0.06     0.01  -0.07   0.00    -0.02   0.08  -0.00
     9   1    -0.10   0.31  -0.29    -0.05   0.39  -0.31     0.07  -0.38   0.30
    10   1     0.10  -0.31  -0.29    -0.05   0.39   0.31     0.07  -0.38  -0.30
    11   6    -0.00  -0.00  -0.03     0.00   0.01  -0.00    -0.00  -0.01   0.00
    12   1     0.00  -0.05  -0.02    -0.01  -0.02  -0.01     0.01   0.02   0.01
    13   1     0.00   0.00   0.32     0.00  -0.01   0.00    -0.00   0.01  -0.00
    14   1    -0.00   0.05  -0.02    -0.01  -0.02   0.01     0.01   0.02  -0.01

 -------------------
 - Thermochemistry -
 -------------------
 Temperature   298.150 Kelvin.  Pressure      1.00000 Atm.
 Atom     1 has atomic number  6 and mass  12.00000
 Atom     2 has atomic number  1 and mass   1.00783
 Atom     3 has atomic number  1 and mass   1.00783
 Atom     4 has atomic number  1 and mass   1.00783
 Atom     5 has atomic number  6 and mass  12.00000
 Atom     6 has atomic number  1 and mass   1.00783
 Atom     7 has atomic number  1 and mass   1.00783
 Atom     8 has atomic number  6 and mass  12.00000
 Atom     9 has atomic number  1 and mass   1.00783
 Atom    10 has atomic number  1 and mass   1.00783
 Atom    11 has atomic number  6 and mass  12.00000
 Atom    12 has atomic number  1 and mass   1.00783
 Atom    13 has atomic number  1 and mass   1.00783
 Atom    14 has atomic number  1 and mass   1.00783
 Molecular mass:    58.07825 amu.
 Principal axes and moments of inertia in atomic units:
                                 1                 2                 3
     Eigenvalues --           76.434357        498.834054        530.938426
           X                   0.999985         -0.005557          0.000000
           Y                   0.005557          0.999985          0.000000
           Z                   0.000000         -0.000000          1.000000
 This molecule is an asymmetric top.
 Rotational symmetry number  2.
 Rotational temperatures (Kelvin)      1.13318     0.17363     0.16313
 Rotational constants (GHZ):          23.61165     3.61792     3.39915
 Zero-point vibrational energy      40149.7 (Joules/Mol)
                                    9.59601 (Kcal/Mol)
 Warning -- explicit consideration of  36 degrees of freedom as
           vibrations may cause significant error
 Vibrational temperatures:     46.01    56.75    81.57    87.62    96.13
          (Kelvin)            125.13   178.66   200.82   211.13   211.24
                              211.52   212.36   223.26   223.26   226.54
                              228.67   231.00   242.03   246.45   251.56
                              254.65   257.79   309.44   332.43   332.44
                              337.20   342.47   355.36   405.39   431.65
                              431.96   431.97   436.21   444.12   479.72
                              483.31
 
 Zero-point correction=                           0.015292 (Hartree/Particle)
 Thermal correction to Energy=                    0.039512
 Thermal correction to Enthalpy=                  0.040456
 Thermal correction to Gibbs Free Energy=        -0.032197
 Sum of electronic and zero-point Energies=              0.015364
 Sum of electronic and thermal Energies=                 0.039583
 Sum of electronic and thermal Enthalpies=               0.040528
 Sum of electronic and thermal Free Energies=           -0.032126
 
                     E (Thermal)             CV                S
                      KCal/Mol        Cal/Mol-Kelvin    Cal/Mol-Kelvin
 Total                   24.794             72.120            152.911
 Electronic               0.000              0.000              0.000
 Translational            0.889              2.981             38.098
 Rotational               0.889              2.981             23.141
 Vibrational             23.017             66.158             91.672
 Vibration     1          0.594              1.983              5.703
 Vibration     2          0.594              1.981              5.287
 Vibration     3          0.596              1.975              4.569
 Vibration     4          0.597              1.973              4.428
 Vibration     5          0.598              1.970              4.245
 Vibration     6          0.601              1.958              3.727
 Vibration     7          0.610              1.929              3.034
 Vibration     8          0.615              1.914              2.810
 Vibration     9          0.617              1.906              2.714
 Vibration    10          0.617              1.906              2.713
 Vibration    11          0.617              1.906              2.711
 Vibration    12          0.617              1.905              2.703
 Vibration    13          0.620              1.897              2.608
 Vibration    14          0.620              1.897              2.608
 Vibration    15          0.621              1.894              2.580
 Vibration    16          0.621              1.893              2.562
 Vibration    17          0.622              1.891              2.543
 Vibration    18          0.625              1.882              2.455
 Vibration    19          0.626              1.878              2.421
 Vibration    20          0.627              1.873              2.383
 Vibration    21          0.628              1.871              2.360
 Vibration    22          0.629              1.868              2.337
 Vibration    23          0.645              1.818              2.000
 Vibration    24          0.653              1.794              1.871
 Vibration    25          0.653              1.794              1.871
 Vibration    26          0.654              1.788              1.845
 Vibration    27          0.656              1.782              1.818
 Vibration    28          0.661              1.768              1.752
 Vibration    29          0.681              1.707              1.523
 Vibration    30          0.693              1.674              1.417
 Vibration    31          0.693              1.673              1.416
 Vibration    32          0.693              1.673              1.416
 Vibration    33          0.695              1.668              1.399
 Vibration    34          0.698              1.657              1.369
 Vibration    35          0.715              1.609              1.243
 Vibration    36          0.717              1.604              1.231
                       Q            Log10(Q)             Ln(Q)
 Total Bot       0.645054D+15         14.809596         34.100355
 Total V=0       0.697468D+22         21.843524         50.296573
 Vib (Bot)       0.145600D+04          3.163162          7.283449
 Vib (Bot)    1  0.647325D+01          0.811122          1.867678
 Vib (Bot)    2  0.524559D+01          0.719794          1.657387
 Vib (Bot)    3  0.364361D+01          0.561532          1.292975
 Vib (Bot)    4  0.339042D+01          0.530253          1.220954
 Vib (Bot)    5  0.308801D+01          0.489679          1.127528
 Vib (Bot)    6  0.236540D+01          0.373905          0.860949
 Vib (Bot)    7  0.164409D+01          0.215926          0.497189
 Vib (Bot)    8  0.145695D+01          0.163443          0.376342
 Vib (Bot)    9  0.138311D+01          0.140856          0.324334
 Vib (Bot)   10  0.138236D+01          0.140620          0.323789
 Vib (Bot)   11  0.138045D+01          0.140020          0.322407
 Vib (Bot)   12  0.137475D+01          0.138223          0.318271
 Vib (Bot)   13  0.130476D+01          0.115530          0.266019
 Vib (Bot)   14  0.130475D+01          0.115527          0.266010
 Vib (Bot)   15  0.128497D+01          0.108893          0.250735
 Vib (Bot)   16  0.127243D+01          0.104635          0.240930
 Vib (Bot)   17  0.125894D+01          0.100006          0.230273
 Vib (Bot)   18  0.119870D+01          0.078711          0.181239
 Vib (Bot)   19  0.117602D+01          0.070414          0.162134
 Vib (Bot)   20  0.115078D+01          0.060994          0.140444
 Vib (Bot)   21  0.113596D+01          0.055361          0.127474
 Vib (Bot)   22  0.112133D+01          0.049732          0.114512
 Vib (Bot)   23  0.921595D+00         -0.035460         -0.081650
 Vib (Bot)   24  0.852041D+00         -0.069540         -0.160121
 Vib (Bot)   25  0.852029D+00         -0.069546         -0.160135
 Vib (Bot)   26  0.838777D+00         -0.076354         -0.175810
 Vib (Bot)   27  0.824507D+00         -0.083806         -0.192969
 Vib (Bot)   28  0.791330D+00         -0.101642         -0.234040
 Vib (Bot)   29  0.681720D+00         -0.166394         -0.383136
 Vib (Bot)   30  0.633900D+00         -0.197979         -0.455864
 Vib (Bot)   31  0.633360D+00         -0.198350         -0.456717
 Vib (Bot)   32  0.633345D+00         -0.198359         -0.456739
 Vib (Bot)   33  0.626144D+00         -0.203326         -0.468175
 Vib (Bot)   34  0.613059D+00         -0.212498         -0.489294
 Vib (Bot)   35  0.559208D+00         -0.252427         -0.581234
 Vib (Bot)   36  0.554195D+00         -0.256337         -0.590239
 Vib (V=0)       0.157431D+11         10.197090         23.479667
 Vib (V=0)    1  0.699253D+01          0.844634          1.944842
 Vib (V=0)    2  0.576936D+01          0.761128          1.752562
 Vib (V=0)    3  0.417776D+01          0.620943          1.429774
 Vib (V=0)    4  0.392709D+01          0.594071          1.367899
 Vib (V=0)    5  0.362823D+01          0.559695          1.288745
 Vib (V=0)    6  0.291767D+01          0.465036          1.070786
 Vib (V=0)    7  0.221844D+01          0.346048          0.796805
 Vib (V=0)    8  0.204035D+01          0.309705          0.713123
 Vib (V=0)    9  0.197071D+01          0.294623          0.678394
 Vib (V=0)   10  0.197000D+01          0.294467          0.678035
 Vib (V=0)   11  0.196821D+01          0.294071          0.677123
 Vib (V=0)   12  0.196285D+01          0.292887          0.674398
 Vib (V=0)   13  0.189728D+01          0.278132          0.640422
 Vib (V=0)   14  0.189727D+01          0.278130          0.640417
 Vib (V=0)   15  0.187882D+01          0.273885          0.630645
 Vib (V=0)   16  0.186714D+01          0.271178          0.624410
 Vib (V=0)   17  0.185460D+01          0.268250          0.617669
 Vib (V=0)   18  0.179880D+01          0.254983          0.587121
 Vib (V=0)   19  0.177790D+01          0.249906          0.575430
 Vib (V=0)   20  0.175471D+01          0.244206          0.562305
 Vib (V=0)   21  0.174113D+01          0.240830          0.554532
 Vib (V=0)   22  0.172775D+01          0.237481          0.546820
 Vib (V=0)   23  0.154849D+01          0.189909          0.437282
 Vib (V=0)   24  0.148791D+01          0.172578          0.397375
 Vib (V=0)   25  0.148790D+01          0.172575          0.397368
 Vib (V=0)   26  0.147650D+01          0.169233          0.389673
 Vib (V=0)   27  0.146427D+01          0.165620          0.381355
 Vib (V=0)   28  0.143606D+01          0.157172          0.361901
 Vib (V=0)   29  0.134542D+01          0.128859          0.296709
 Vib (V=0)   30  0.130736D+01          0.116395          0.268010
 Vib (V=0)   31  0.130694D+01          0.116254          0.267685
 Vib (V=0)   32  0.130692D+01          0.116250          0.267676
 Vib (V=0)   33  0.130128D+01          0.114372          0.263352
 Vib (V=0)   34  0.129110D+01          0.110960          0.255496
 Vib (V=0)   35  0.125014D+01          0.096959          0.223257
 Vib (V=0)   36  0.124641D+01          0.095662          0.220270
 Electronic      0.100000D+01          0.000000          0.000000
 Translational   0.173970D+08          7.240474         16.671808
 Rotational      0.254660D+05          4.405960         10.145098
                           ----------------------------
                           ! Normal Mode     1        !
 --------------------------                            --------------------------
 ! Name  Definition              Value          Relative Weight (%)             !
 --------------------------------------------------------------------------------
 ! R1    R(1,2)                  0.0085                  0.8                    !
 ! R2    R(1,3)                  0.0034                  0.3                    !
 ! R3    R(1,4)                  0.0034                  0.3                    !
 ! R4    R(1,5)                  0.1926                 17.9                    !
 ! R7    R(5,8)                  0.2337                 21.7                    !
 ! R10   R(8,11)                 0.1926                 17.9                    !
 ! R11   R(11,12)                0.0034                  0.3                    !
 ! R12   R(11,13)                0.0085                  0.8                    !
 ! R13   R(11,14)                0.0034                  0.3                    !
 ! A1    A(2,1,3)               -0.0037                  0.3                    !
 ! A2    A(2,1,4)               -0.0037                  0.3                    !
 ! A5    A(3,1,5)                0.0044                  0.4                    !
 ! A6    A(4,1,5)                0.0044                  0.4                    !
 ! A7    A(1,5,6)               -0.0167                  1.6                    !
 ! A8    A(1,5,7)               -0.0167                  1.6                    !
 ! A9    A(1,5,8)                0.0565                  5.3                    !
 ! A10   A(6,5,7)                0.0042                  0.4                    !
 ! A11   A(6,5,8)               -0.0154                  1.4                    !
 ! A12   A(7,5,8)               -0.0154                  1.4                    !
 ! A13   A(5,8,9)               -0.0154                  1.4                    !
 ! A14   A(5,8,10)              -0.0154                  1.4                    !
 ! A15   A(5,8,11)               0.0565                  5.3                    !
 ! A16   A(9,8,10)               0.0042                  0.4                    !
 ! A17   A(9,8,11)              -0.0167                  1.6                    !
 ! A18   A(10,8,11)             -0.0167                  1.6                    !
 ! A19   A(8,11,12)              0.0044                  0.4                    !
 ! A21   A(8,11,14)              0.0044                  0.4                    !
 ! A22   A(12,11,13)            -0.0037                  0.3                    !
 ! A24   A(13,11,14)            -0.0037                  0.3                    !
 ! D1    D(2,1,5,6)             -0.0069                  0.6                    !
 ! D2    D(2,1,5,7)              0.0069                  0.6                    !
 ! D4    D(3,1,5,6)             -0.0059                  0.5                    !
 ! D5    D(3,1,5,7)              0.0079                  0.7                    !
 ! D7    D(4,1,5,6)             -0.0079                  0.7                    !
 ! D8    D(4,1,5,7)              0.0059                  0.5                    !
 ! D10   D(1,5,8,9)              0.0059                  0.5                    !
 ! D11   D(1,5,8,10)            -0.0059                  0.5                    !
 ! D13   D(6,5,8,9)              0.0118                  1.1                    !
 ! D15   D(6,5,8,11)             0.0059                  0.5                    !
 ! D17   D(7,5,8,10)            -0.0118                  1.1                    !
 ! D18   D(7,5,8,11)            -0.0059                  0.5                    !
 ! D22   D(9,8,11,12)           -0.0059                  0.5                    !
 ! D23   D(9,8,11,13)           -0.0069                  0.6                    !
 ! D24   D(9,8,11,14)           -0.0079                  0.7                    !
 ! D25   D(10,8,11,12)           0.0079                  0.7                    !
 ! D26   D(10,8,11,13)           0.0069                  0.6                    !
 ! D27   D(10,8,11,14)           0.0059                  0.5                    !
 --------------------------------------------------------------------------------
                           ----------------------------
                           ! Normal Mode     2        !
 --------------------------                            --------------------------
 ! Name  Definition              Value          Relative Weight (%)             !
 --------------------------------------------------------------------------------
 ! R1    R(1,2)                  0.0063                  0.6                    !
 ! R4    R(1,5)                 -0.0231                  2.4                    !
 ! R5    R(5,6)                  0.0078                  0.8                    !
 ! R6    R(5,7)                  0.0078                  0.8                    !
 ! R8    R(8,9)                 -0.0078                  0.8                    !
 ! R9    R(8,10)                -0.0078                  0.8                    !
 ! R10   R(8,11)                 0.0231                  2.4                    !
 ! R12   R(11,13)               -0.0063                  0.6                    !
 ! A3    A(2,1,5)                0.012                   1.2                    !
 ! A7    A(1,5,6)                0.0357                  3.6                    !
 ! A8    A(1,5,7)                0.0357                  3.6                    !
 ! A9    A(1,5,8)               -0.123                  12.6                    !
 ! A10   A(6,5,7)               -0.0115                  1.2                    !
 ! A11   A(6,5,8)                0.0353                  3.6                    !
 ! A12   A(7,5,8)                0.0353                  3.6                    !
 ! A13   A(5,8,9)               -0.0353                  3.6                    !
 ! A14   A(5,8,10)              -0.0353                  3.6                    !
 ! A15   A(5,8,11)               0.123                  12.6                    !
 ! A16   A(9,8,10)               0.0115                  1.2                    !
 ! A17   A(9,8,11)              -0.0357                  3.6                    !
 ! A18   A(10,8,11)             -0.0357                  3.6                    !
 ! A20   A(8,11,13)             -0.012                   1.2                    !
 ! D1    D(2,1,5,6)              0.0132                  1.4                    !
 ! D2    D(2,1,5,7)             -0.0132                  1.4                    !
 ! D4    D(3,1,5,6)              0.0105                  1.1                    !
 ! D5    D(3,1,5,7)             -0.016                   1.6                    !
 ! D7    D(4,1,5,6)              0.016                   1.6                    !
 ! D8    D(4,1,5,7)             -0.0105                  1.1                    !
 ! D10   D(1,5,8,9)              0.0125                  1.3                    !
 ! D11   D(1,5,8,10)            -0.0125                  1.3                    !
 ! D14   D(6,5,8,10)            -0.0249                  2.5                    !
 ! D15   D(6,5,8,11)            -0.0125                  1.3                    !
 ! D16   D(7,5,8,9)              0.0249                  2.5                    !
 ! D18   D(7,5,8,11)             0.0125                  1.3                    !
 ! D22   D(9,8,11,12)           -0.0105                  1.1                    !
 ! D23   D(9,8,11,13)           -0.0132                  1.4                    !
 ! D24   D(9,8,11,14)           -0.016                   1.6                    !
 ! D25   D(10,8,11,12)           0.016                   1.6                    !
 ! D26   D(10,8,11,13)           0.0132                  1.4                    !
 ! D27   D(10,8,11,14)           0.0105                  1.1                    !
 --------------------------------------------------------------------------------
                           ----------------------------
                           ! Normal Mode     3        !
 --------------------------                            --------------------------
 ! Name  Definition              Value          Relative Weight (%)             !
 --------------------------------------------------------------------------------
 ! R1    R(1,2)                 -0.0152                  1.0                    !
 ! R2    R(1,3)                 -0.0154                  1.1                    !
 ! R3    R(1,4)                 -0.0154                  1.1                    !
 ! R4    R(1,5)                 -0.5058                 35.0                    !
 ! R5    R(5,6)                 -0.0164                  1.1                    !
 ! R6    R(5,7)                 -0.0164                  1.1                    !
 ! R8    R(8,9)                  0.0164                  1.1                    !
 ! R9    R(8,10)                 0.0164                  1.1                    !
 ! R10   R(8,11)                 0.5058                 35.0                    !
 ! R11   R(11,12)                0.0154                  1.1                    !
 ! R12   R(11,13)                0.0152                  1.0                    !
 ! R13   R(11,14)                0.0154                  1.1                    !
 ! A1    A(2,1,3)                0.0097                  0.7                    !
 ! A2    A(2,1,4)                0.0097                  0.7                    !
 ! A3    A(2,1,5)               -0.0117                  0.8                    !
 ! A4    A(3,1,4)                0.0094                  0.6                    !
 ! A7    A(1,5,6)               -0.0112                  0.8                    !
 ! A8    A(1,5,7)               -0.0112                  0.8                    !
 ! A9    A(1,5,8)                0.0118                  0.8                    !
 ! A15   A(5,8,11)              -0.0118                  0.8                    !
 ! A17   A(9,8,11)               0.0112                  0.8                    !
 ! A18   A(10,8,11)              0.0112                  0.8                    !
 ! A20   A(8,11,13)              0.0117                  0.8                    !
 ! A22   A(12,11,13)            -0.0097                  0.7                    !
 ! A23   A(12,11,14)            -0.0094                  0.6                    !
 ! A24   A(13,11,14)            -0.0097                  0.7                    !
 ! D14   D(6,5,8,10)            -0.0093                  0.6                    !
 ! D16   D(7,5,8,9)              0.0093                  0.6                    !
 --------------------------------------------------------------------------------
                           ----------------------------
                           ! Normal Mode     4        !
 --------------------------                            --------------------------
 ! Name  Definition              Value          Relative Weight (%)             !
 --------------------------------------------------------------------------------
 ! R1    R(1,2)                  0.0064                  0.4                    !
 ! R2    R(1,3)                 -0.0167                  1.0                    !
 ! R3    R(1,4)                 -0.0167                  1.0                    !
 ! R4    R(1,5)                 -0.3111                 19.3                    !
 ! R5    R(5,6)                  0.009                   0.6                    !
 ! R6    R(5,7)                  0.009                   0.6                    !
 ! R7    R(5,8)                  0.5513                 34.2                    !
 ! R8    R(8,9)                  0.009                   0.6                    !
 ! R9    R(8,10)                 0.009                   0.6                    !
 ! R10   R(8,11)                -0.3111                 19.3                    !
 ! R11   R(11,12)               -0.0167                  1.0                    !
 ! R12   R(11,13)                0.0064                  0.4                    !
 ! R13   R(11,14)               -0.0167                  1.0                    !
 ! A3    A(2,1,5)                0.0077                  0.5                    !
 ! A4    A(3,1,4)                0.0094                  0.6                    !
 ! A5    A(3,1,5)               -0.0119                  0.7                    !
 ! A6    A(4,1,5)               -0.0119                  0.7                    !
 ! A7    A(1,5,6)               -0.0059                  0.4                    !
 ! A8    A(1,5,7)               -0.0059                  0.4                    !
 ! A9    A(1,5,8)               -0.0118                  0.7                    !
 ! A11   A(6,5,8)                0.0138                  0.9                    !
 ! A12   A(7,5,8)                0.0138                  0.9                    !
 ! A13   A(5,8,9)                0.0138                  0.9                    !
 ! A14   A(5,8,10)               0.0138                  0.9                    !
 ! A15   A(5,8,11)              -0.0118                  0.7                    !
 ! A17   A(9,8,11)              -0.0059                  0.4                    !
 ! A18   A(10,8,11)             -0.0059                  0.4                    !
 ! A19   A(8,11,12)             -0.0119                  0.7                    !
 ! A20   A(8,11,13)              0.0077                  0.5                    !
 ! A21   A(8,11,14)             -0.0119                  0.7                    !
 ! A23   A(12,11,14)             0.0094                  0.6                    !
 ! D1    D(2,1,5,6)             -0.0054                  0.3                    !
 ! D2    D(2,1,5,7)              0.0054                  0.3                    !
 ! D4    D(3,1,5,6)             -0.0074                  0.5                    !
 ! D8    D(4,1,5,7)              0.0074                  0.5                    !
 ! D10   D(1,5,8,9)             -0.0055                  0.3                    !
 ! D11   D(1,5,8,10)             0.0055                  0.3                    !
 ! D13   D(6,5,8,9)             -0.0111                  0.7                    !
 ! D15   D(6,5,8,11)            -0.0055                  0.3                    !
 ! D17   D(7,5,8,10)             0.0111                  0.7                    !
 ! D18   D(7,5,8,11)             0.0055                  0.3                    !
 ! D22   D(9,8,11,12)           -0.0074                  0.5                    !
 ! D23   D(9,8,11,13)           -0.0054                  0.3                    !
 ! D26   D(10,8,11,13)           0.0054                  0.3                    !
 ! D27   D(10,8,11,14)           0.0074                  0.5                    !
 --------------------------------------------------------------------------------
                           ----------------------------
                           ! Normal Mode     5        !
 --------------------------                            --------------------------
 ! Name  Definition              Value          Relative Weight (%)             !
 --------------------------------------------------------------------------------
 ! R5    R(5,6)                 -0.0315                  1.4                    !
 ! R6    R(5,7)                  0.0315                  1.4                    !
 ! R8    R(8,9)                 -0.0315                  1.4                    !
 ! R9    R(8,10)                 0.0315                  1.4                    !
 ! A5    A(3,1,5)               -0.0351                  1.6                    !
 ! A6    A(4,1,5)                0.0351                  1.6                    !
 ! A7    A(1,5,6)               -0.079                   3.6                    !
 ! A8    A(1,5,7)                0.079                   3.6                    !
 ! A17   A(9,8,11)              -0.079                   3.6                    !
 ! A18   A(10,8,11)              0.079                   3.6                    !
 ! A19   A(8,11,12)             -0.0351                  1.6                    !
 ! A21   A(8,11,14)              0.0351                  1.6                    !
 ! D3    D(2,1,5,8)             -0.0632                  2.9                    !
 ! D4    D(3,1,5,6)              0.032                   1.5                    !
 ! D5    D(3,1,5,7)              0.032                   1.5                    !
 ! D6    D(3,1,5,8)             -0.0416                  1.9                    !
 ! D7    D(4,1,5,6)              0.032                   1.5                    !
 ! D8    D(4,1,5,7)              0.032                   1.5                    !
 ! D9    D(4,1,5,8)             -0.0416                  1.9                    !
 ! D10   D(1,5,8,9)              0.1398                  6.4                    !
 ! D11   D(1,5,8,10)             0.1398                  6.4                    !
 ! D12   D(1,5,8,11)             0.2504                 11.4                    !
 ! D13   D(6,5,8,9)              0.0293                  1.3                    !
 ! D14   D(6,5,8,10)             0.0293                  1.3                    !
 ! D15   D(6,5,8,11)             0.1398                  6.4                    !
 ! D16   D(7,5,8,9)              0.0293                  1.3                    !
 ! D17   D(7,5,8,10)             0.0293                  1.3                    !
 ! D18   D(7,5,8,11)             0.1398                  6.4                    !
 ! D19   D(5,8,11,12)           -0.0416                  1.9                    !
 ! D20   D(5,8,11,13)           -0.0632                  2.9                    !
 ! D21   D(5,8,11,14)           -0.0416                  1.9                    !
 ! D22   D(9,8,11,12)            0.032                   1.5                    !
 ! D24   D(9,8,11,14)            0.032                   1.5                    !
 ! D25   D(10,8,11,12)           0.032                   1.5                    !
 ! D27   D(10,8,11,14)           0.032                   1.5                    !
 --------------------------------------------------------------------------------
                           ----------------------------
                           ! Normal Mode     6        !
 --------------------------                            --------------------------
 ! Name  Definition              Value          Relative Weight (%)             !
 --------------------------------------------------------------------------------
 ! R4    R(1,5)                  0.2334                  8.1                    !
 ! R5    R(5,6)                  0.0823                  2.9                    !
 ! R6    R(5,7)                  0.0823                  2.9                    !
 ! R7    R(5,8)                  0.1862                  6.5                    !
 ! R8    R(8,9)                  0.0823                  2.9                    !
 ! R9    R(8,10)                 0.0823                  2.9                    !
 ! R10   R(8,11)                 0.2334                  8.1                    !
 ! A3    A(2,1,5)                0.0559                  1.9                    !
 ! A5    A(3,1,5)               -0.0208                  0.7                    !
 ! A6    A(4,1,5)               -0.0208                  0.7                    !
 ! A7    A(1,5,6)                0.0814                  2.8                    !
 ! A8    A(1,5,7)                0.0814                  2.8                    !
 ! A9    A(1,5,8)               -0.248                   8.6                    !
 ! A10   A(6,5,7)               -0.0394                  1.4                    !
 ! A11   A(6,5,8)                0.069                   2.4                    !
 ! A12   A(7,5,8)                0.069                   2.4                    !
 ! A13   A(5,8,9)                0.069                   2.4                    !
 ! A14   A(5,8,10)               0.069                   2.4                    !
 ! A15   A(5,8,11)              -0.248                   8.6                    !
 ! A16   A(9,8,10)              -0.0394                  1.4                    !
 ! A17   A(9,8,11)               0.0814                  2.8                    !
 ! A18   A(10,8,11)              0.0814                  2.8                    !
 ! A19   A(8,11,12)             -0.0208                  0.7                    !
 ! A20   A(8,11,13)              0.0559                  1.9                    !
 ! A21   A(8,11,14)             -0.0208                  0.7                    !
 ! D1    D(2,1,5,6)              0.0223                  0.8                    !
 ! D2    D(2,1,5,7)             -0.0223                  0.8                    !
 ! D5    D(3,1,5,7)             -0.0364                  1.3                    !
 ! D7    D(4,1,5,6)              0.0364                  1.3                    !
 ! D13   D(6,5,8,9)             -0.0287                  1.0                    !
 ! D17   D(7,5,8,10)             0.0287                  1.0                    !
 ! D23   D(9,8,11,13)            0.0223                  0.8                    !
 ! D24   D(9,8,11,14)            0.0364                  1.3                    !
 ! D25   D(10,8,11,12)          -0.0364                  1.3                    !
 ! D26   D(10,8,11,13)          -0.0223                  0.8                    !
 --------------------------------------------------------------------------------
                           ----------------------------
                           ! Normal Mode     7        !
 --------------------------                            --------------------------
 ! Name  Definition              Value          Relative Weight (%)             !
 --------------------------------------------------------------------------------
 ! R5    R(5,6)                  0.0798                  2.7                    !
 ! R6    R(5,7)                 -0.0798                  2.7                    !
 ! R8    R(8,9)                  0.0798                  2.7                    !
 ! R9    R(8,10)                -0.0798                  2.7                    !
 ! A7    A(1,5,6)               -0.0466                  1.6                    !
 ! A8    A(1,5,7)                0.0466                  1.6                    !
 ! A11   A(6,5,8)                0.1325                  4.5                    !
 ! A12   A(7,5,8)               -0.1325                  4.5                    !
 ! A13   A(5,8,9)                0.1325                  4.5                    !
 ! A14   A(5,8,10)              -0.1325                  4.5                    !
[...]
                                 (Linear)    (Quad)   (Total)
    R1        2.06182   0.00000   0.00000   0.00365   0.00365   2.06547
    R2        2.06398   0.00000   0.00000   0.00149   0.00149   2.06547
    R3        2.06398   0.00000   0.00000   0.00149   0.00149   2.06547
    R4        2.88640   0.00000   0.00000   0.00110   0.00110   2.88750
    R5        2.06847  -0.00000   0.00000  -0.00300  -0.00300   2.06547
    R6        2.06847  -0.00000   0.00000  -0.00300  -0.00300   2.06547
    R7        2.88954  -0.00000   0.00000  -0.00204  -0.00204   2.88750
    R8        2.06847  -0.00000   0.00000  -0.00300  -0.00300   2.06547
    R9        2.06847  -0.00000   0.00000  -0.00300  -0.00300   2.06547
   R10        2.88640   0.00000   0.00000   0.00110   0.00110   2.88750
   R11        2.06398   0.00000   0.00000   0.00149   0.00149   2.06547
   R12        2.06182   0.00000   0.00000   0.00365   0.00365   2.06547
   R13        2.06398   0.00000   0.00000   0.00149   0.00149   2.06547
    A1        1.87879   0.00011   0.00000   0.03241   0.03185   1.91064
    A2        1.87879   0.00011   0.00000   0.03241   0.03185   1.91064
    A3        1.94646  -0.00011   0.00000  -0.03536  -0.03592   1.91054
    A4        1.87608   0.00011   0.00000   0.03501   0.03465   1.91072
    A5        1.94028  -0.00009   0.00000  -0.02919  -0.02965   1.91063
    A6        1.94028  -0.00009   0.00000  -0.02919  -0.02965   1.91063
    A7        1.91120  -0.00002   0.00000  -0.01127  -0.01158   1.89962
    A8        1.91120  -0.00002   0.00000  -0.01127  -0.01158   1.89962
    A9        1.97867  -0.00005   0.00000  -0.02705  -0.02761   1.95105
   A10        1.84959   0.00013   0.00000   0.06451   0.06462   1.91421
   A11        1.90436  -0.00001   0.00000  -0.00427  -0.00476   1.89960
   A12        1.90436  -0.00001   0.00000  -0.00427  -0.00476   1.89960
   A13        1.90436  -0.00001   0.00000  -0.00427  -0.00476   1.89960
   A14        1.90436  -0.00001   0.00000  -0.00427  -0.00476   1.89960
   A15        1.97867  -0.00005   0.00000  -0.02705  -0.02761   1.95105
   A16        1.84959   0.00013   0.00000   0.06451   0.06462   1.91421
   A17        1.91120  -0.00002   0.00000  -0.01127  -0.01158   1.89962
   A18        1.91120  -0.00002   0.00000  -0.01127  -0.01158   1.89962
   A19        1.94028  -0.00009   0.00000  -0.02919  -0.02965   1.91063
   A20        1.94646  -0.00011   0.00000  -0.03536  -0.03592   1.91054
   A21        1.94028  -0.00009   0.00000  -0.02919  -0.02965   1.91063
   A22        1.87879   0.00011   0.00000   0.03241   0.03185   1.91064
   A23        1.87608   0.00011   0.00000   0.03501   0.03465   1.91072
   A24        1.87879   0.00011   0.00000   0.03241   0.03185   1.91064
    D1        1.01051   0.00006   0.00000   0.03240   0.03227   1.04278
    D2       -1.01051  -0.00006   0.00000  -0.03240  -0.03227  -1.04278
    D3        3.14159  -0.00000   0.00000  -0.00000   0.00000   3.14159
    D4       -1.08641   0.00007   0.00000   0.03504   0.03485  -1.05156
    D5       -3.10744  -0.00006   0.00000  -0.02976  -0.02968  -3.13712
    D6        1.04467   0.00001   0.00000   0.00264   0.00258   1.04725
    D7        3.10744   0.00006   0.00000   0.02976   0.02968   3.13712
    D8        1.08641  -0.00007   0.00000  -0.03504  -0.03485   1.05156
    D9       -1.04467  -0.00001   0.00000  -0.00264  -0.00258  -1.04725
   D10       -1.00671  -0.00007   0.00000  -0.03610  -0.03606  -1.04277
   D11        1.00671   0.00007   0.00000   0.03610   0.03606   1.04277
   D12        3.14159   0.00000   0.00000  -0.00000   0.00000   3.14159
   D13        1.12818  -0.00015   0.00000  -0.07220  -0.07212   1.05606
   D14        3.14159  -0.00000   0.00000  -0.00000   0.00000   3.14159
   D15       -1.00671  -0.00007   0.00000  -0.03610  -0.03606  -1.04277
   D16       -3.14159  -0.00000   0.00000  -0.00000  -0.00000   3.14159
   D17       -1.12818   0.00015   0.00000   0.07220   0.07212  -1.05606
   D18        1.00671   0.00007   0.00000   0.03610   0.03606   1.04277
   D19        1.04467   0.00001   0.00000   0.00264   0.00258   1.04725
   D20        3.14159  -0.00000   0.00000  -0.00000   0.00000   3.14159
   D21       -1.04467  -0.00001   0.00000  -0.00264  -0.00258  -1.04725
   D22       -1.08641   0.00007   0.00000   0.03504   0.03485  -1.05156
   D23        1.01051   0.00006   0.00000   0.03240   0.03227   1.04278
   D24        3.10744   0.00006   0.00000   0.02976   0.02968   3.13712
   D25       -3.10744  -0.00006   0.00000  -0.02976  -0.02968  -3.13712
   D26       -1.01051  -0.00006   0.00000  -0.03240  -0.03227  -1.04278
   D27        1.08641  -0.00007   0.00000  -0.03504  -0.03485   1.05156
         Item               Value     Threshold  Converged?
 Maximum Force            0.000147     0.000450     YES
 RMS     Force            0.000067     0.000300     YES
 Maximum Displacement     0.095233     0.001800     NO 
 RMS     Displacement     0.031352     0.001200     NO 
 Predicted change in Energy=-5.922677D-05
                           ----------------------------
                           ! Non-Optimized Parameters !
                           ! (Angstroms and Degrees)  !
 --------------------------                            --------------------------
 ! Name  Definition              Value          Derivative Info.                !
 --------------------------------------------------------------------------------
 ! R1    R(1,2)                  1.093          -DE/DX =    0.0                 !
 ! R2    R(1,3)                  1.093          -DE/DX =    0.0                 !
 ! R3    R(1,4)                  1.093          -DE/DX =    0.0                 !
 ! R4    R(1,5)                  1.528          -DE/DX =    0.0                 !
 ! R5    R(5,6)                  1.093          -DE/DX =    0.0                 !
 ! R6    R(5,7)                  1.093          -DE/DX =    0.0                 !
 ! R7    R(5,8)                  1.528          -DE/DX =    0.0                 !
 ! R8    R(8,9)                  1.093          -DE/DX =    0.0                 !
 ! R9    R(8,10)                 1.093          -DE/DX =    0.0                 !
 ! R10   R(8,11)                 1.528          -DE/DX =    0.0                 !
 ! R11   R(11,12)                1.093          -DE/DX =    0.0                 !
 ! R12   R(11,13)                1.093          -DE/DX =    0.0                 !
 ! R13   R(11,14)                1.093          -DE/DX =    0.0                 !
 ! A1    A(2,1,3)              109.4714         -DE/DX =    0.0001              !
 ! A2    A(2,1,4)              109.4714         -DE/DX =    0.0001              !
 ! A3    A(2,1,5)              109.466          -DE/DX =   -0.0001              !
 ! A4    A(3,1,4)              109.4764         -DE/DX =    0.0001              !
 ! A5    A(3,1,5)              109.4711         -DE/DX =   -0.0001              !
 ! A6    A(4,1,5)              109.4711         -DE/DX =   -0.0001              !
 ! A7    A(1,5,6)              108.8401         -DE/DX =    0.0                 !
 ! A8    A(1,5,7)              108.8401         -DE/DX =    0.0                 !
 ! A9    A(1,5,8)              111.7871         -DE/DX =   -0.0001              !
 ! A10   A(6,5,7)              109.6759         -DE/DX =    0.0001              !
 ! A11   A(6,5,8)              108.8391         -DE/DX =    0.0                 !
 ! A12   A(7,5,8)              108.8391         -DE/DX =    0.0                 !
 ! A13   A(5,8,9)              108.8391         -DE/DX =    0.0                 !
 ! A14   A(5,8,10)             108.8391         -DE/DX =    0.0                 !
 ! A15   A(5,8,11)             111.7871         -DE/DX =   -0.0001              !
 ! A16   A(9,8,10)             109.6759         -DE/DX =    0.0001              !
 ! A17   A(9,8,11)             108.8401         -DE/DX =    0.0                 !
 ! A18   A(10,8,11)            108.8401         -DE/DX =    0.0                 !
 ! A19   A(8,11,12)            109.4711         -DE/DX =   -0.0001              !
 ! A20   A(8,11,13)            109.466          -DE/DX =   -0.0001              !
 ! A21   A(8,11,14)            109.4711         -DE/DX =   -0.0001              !
 ! A22   A(12,11,13)           109.4714         -DE/DX =    0.0001              !
 ! A23   A(12,11,14)           109.4764         -DE/DX =    0.0001              !
 ! A24   A(13,11,14)           109.4714         -DE/DX =    0.0001              !
 ! D1    D(2,1,5,6)             59.7467         -DE/DX =    0.0001              !
 ! D2    D(2,1,5,7)            -59.7467         -DE/DX =   -0.0001              !
 ! D3    D(2,1,5,8)            180.0            -DE/DX =    0.0                 !
 ! D4    D(3,1,5,6)            -60.2502         -DE/DX =    0.0001              !
 ! D5    D(3,1,5,7)           -179.7436         -DE/DX =   -0.0001              !
 ! D6    D(3,1,5,8)             60.0031         -DE/DX =    0.0                 !
 ! D7    D(4,1,5,6)            179.7436         -DE/DX =    0.0001              !
 ! D8    D(4,1,5,7)             60.2502         -DE/DX =   -0.0001              !
 ! D9    D(4,1,5,8)            -60.0031         -DE/DX =    0.0                 !
 ! D10   D(1,5,8,9)            -59.7461         -DE/DX =   -0.0001              !
 ! D11   D(1,5,8,10)            59.7461         -DE/DX =    0.0001              !
 ! D12   D(1,5,8,11)           180.0            -DE/DX =    0.0                 !
 ! D13   D(6,5,8,9)             60.5078         -DE/DX =   -0.0001              !
 ! D14   D(6,5,8,10)           180.0            -DE/DX =    0.0                 !
 ! D15   D(6,5,8,11)           -59.7461         -DE/DX =   -0.0001              !
 ! D16   D(7,5,8,9)            180.0            -DE/DX =    0.0                 !
 ! D17   D(7,5,8,10)           -60.5078         -DE/DX =    0.0001              !
 ! D18   D(7,5,8,11)            59.7461         -DE/DX =    0.0001              !
 ! D19   D(5,8,11,12)           60.0031         -DE/DX =    0.0                 !
 ! D20   D(5,8,11,13)          180.0            -DE/DX =    0.0                 !
 ! D21   D(5,8,11,14)          -60.0031         -DE/DX =    0.0                 !
 ! D22   D(9,8,11,12)          -60.2502         -DE/DX =    0.0001              !
 ! D23   D(9,8,11,13)           59.7467         -DE/DX =    0.0001              !
 ! D24   D(9,8,11,14)          179.7436         -DE/DX =    0.0001              !
 ! D25   D(10,8,11,12)        -179.7436         -DE/DX =   -0.0001              !
 ! D26   D(10,8,11,13)         -59.7467         -DE/DX =   -0.0001              !
 ! D27   D(10,8,11,14)          60.2502         -DE/DX =   -0.0001              !
 --------------------------------------------------------------------------------
 GradGradGradGradGradGradGradGradGradGradGradGradGradGradGradGradGradGrad

 Leave Link  103 at Thu Jun 19 11:02:03 2025, MaxMem=   134217728 cpu:               0.0 elap:               0.0
 (Enter /home/emanuele/chem_software/gaussian//gdv/l9999.exe)
 Unable to Open any file for archive entry.
 1\1\GINC-EMANUELE-XPS-13-9343\Freq\AMBER\ZDO\C4H10\EMANUELE\19-Jun-202
 5\0\\#p Amber=(SoftOnly,Print) nosymm Freq=intmodes\\Title\\0,1\C,1.95
 6897,-0.120392,0.\H,2.742005,0.637259,0.\H,2.103753,-0.749379,-0.88076
 \H,2.103753,-0.749379,0.88076\C,0.566957,0.512915,0.\H,0.461751,1.1634
 03,-0.874026\H,0.461751,1.163403,0.874026\C,-0.566957,-0.512915,0.\H,-
 0.461751,-1.163403,-0.874026\H,-0.461751,-1.163403,0.874026\C,-1.95689
 7,0.120392,0.\H,-2.103753,0.749379,-0.88076\H,-2.742005,-0.637259,0.\H
 ,-2.103753,0.749379,0.88076\\Version=ES64L-GDVRevJ.14\HF=0.0000714\RMS
 D=0.000e+00\RMSF=1.662e-04\ZeroPoint=0.0152922\Thermal=0.0395119\ETot=
 0.0395834\HTot=0.0405275\GTot=-0.0321256\Dipole=0.,0.,0.\PG=C02H [SGH(
 C4H2),X(H8)]\NImag=0\\0.00590259,0.00096572,0.00763486,0.,0.,0.0088249
 8,-0.00129433,0.00020690,0.,0.00098254,0.00046927,-0.00116172,0.,-0.00
 014619,0.00109880,0.,0.,-0.00301883,0.,0.,0.00236533,-0.00175762,-0.00
 035555,0.00035877,0.00023299,-0.00024144,-0.00049490,0.00132146,-0.000
 48718,-0.00226133,0.00085354,0.00013885,-0.00014388,-0.00035689,0.0003
 8187,0.00179689,0.00014952,0.00093656,-0.00146435,-0.00006031,0.000062
 50,0.00017235,-0.00014704,-0.00060050,0.00131894,-0.00175762,-0.000355
 55,-0.00035877,0.00023299,-0.00024144,0.00049490,0.00005975,-0.0000996
 4,0.00008112,0.00132146,-0.00048718,-0.00226133,-0.00085354,0.00013885
 ,-0.00014388,0.00035689,-0.00009964,0.00046325,-0.00034744,0.00038187,
 0.00179689,-0.00014952,-0.00093656,-0.00146435,0.00006031,-0.00006250,
 0.00017235,-0.00008112,0.00034744,-0.00026165,0.00014704,0.00060050,0.
 00131894,-0.00125769,-0.00082290,0.,-0.00015420,0.00015978,0.,0.000143
 33,0.00006590,-0.00002317,0.00014333,0.00006590,0.00002317,0.00682286,
 -0.00069068,-0.00245539,0.,-0.00033842,0.00035068,0.,0.00031456,0.0001
 4464,-0.00005084,0.00031456,0.00014464,0.00005084,-0.00026225,0.008788
 25,0.,0.,-0.00385094,0.,0.,0.00044572,0.00041322,-0.00013620,0.0001661
 7,-0.00041322,0.00013620,0.00016617,0.,0.,0.01081072,0.00013548,0.0002
 9734,-0.00037678,0.,0.,-0.00014876,-0.00005311,-0.00011656,0.00007438,
 0.00005320,0.00011675,0.00007451,-0.00214114,0.00008647,0.00021218,0.0
 0170545,0.00005627,0.00012351,0.00024099,0.,0.,-0.00032649,-0.00011656
 ,-0.00025581,0.00016325,0.00011675,0.00025624,0.00016353,0.00008690,-0
 .00274662,-0.00130018,-0.00006063,0.00213981,0.00002557,0.00005613,0.0
 0022471,0.,0.,-0.00022508,-0.00008035,-0.00017636,0.00011255,0.0000804
 9,0.00017665,0.00011274,0.00024233,-0.00151219,-0.00197969,-0.00017033
 ,0.00105747,0.00179402,0.00013548,0.00029734,0.00037678,0.,0.,0.000148
 76,0.00005320,0.00011675,-0.00007451,-0.00005311,-0.00011656,-0.000074
 38,-0.00214114,0.00008647,-0.00021218,0.00006723,-0.00006594,-0.000057
 17,0.00170545,0.00005627,0.00012351,-0.00024099,0.,0.,0.00032649,0.000
 11675,0.00025624,-0.00016353,-0.00011656,-0.00025581,-0.00016325,0.000
 08690,-0.00274662,0.00130018,-0.00006594,0.00046429,0.00035349,-0.0000
 6063,0.00213981,-0.00002557,-0.00005613,0.00022471,0.,0.,-0.00022508,-
 0.00008049,-0.00017665,0.00011274,0.00008035,0.00017636,0.00011255,-0.
 00024233,0.00151219,-0.00197969,0.00005717,-0.00035349,-0.00026996,0.0
 0017033,-0.00105747,0.00179402,-0.00010630,-0.00023330,0.,0.,0.,0.,0.,
 0.,0.,0.,0.,0.,-0.00176697,0.00087796,0.,0.00022896,-0.00001245,-0.000
 03683,0.00022896,-0.00001245,0.00003683,0.00682286,0.00011750,0.000257
 88,0.,0.,0.,0.,0.,0.,0.,0.,0.,0.,0.00087796,-0.00176499,0.,-0.00025308
 ,0.00001376,0.00004071,-0.00025308,0.00001376,-0.00004071,-0.00026225,
 0.00878825,0.,0.,0.00062370,0.,0.,0.00031323,0.00011192,0.00024563,-0.
 00015675,-0.00011192,-0.00024563,-0.00015675,0.,0.,-0.00471998,0.00035
 364,0.00027090,0.00015905,-0.00035364,-0.00027090,0.00015905,0.,0.,0.0
 1081072,0.,0.,-0.00017318,0.,0.,0.,0.,0.,0.,0.,0.,0.,0.00022896,-0.000
 25308,-0.00035364,-0.00013016,0.00014387,0.00012274,0.00013409,-0.0001
 4822,0.00012645,-0.00214114,0.00008647,-0.00021218,0.00170545,0.,0.,0.
 00019143,0.,0.,0.,0.,0.,0.,0.,0.,0.,-0.00001245,0.00001376,-0.00027090
 ,0.00014387,-0.00015903,-0.00013567,-0.00014822,0.00016384,-0.00013978
 ,0.00008690,-0.00274662,0.00130018,-0.00006063,0.00213981,0.,0.,-0.000
 16331,0.,0.,0.,0.,0.,0.,0.,0.,0.,0.00003683,-0.00004071,0.00015905,-0.
 00012274,0.00013567,0.00011575,0.00012645,-0.00013978,0.00011925,-0.00
 024233,0.00151219,-0.00197969,0.00017033,-0.00105747,0.00179402,0.,0.,
 0.00017318,0.,0.,0.,0.,0.,0.,0.,0.,0.,0.00022896,-0.00025308,0.0003536
 4,0.00013409,-0.00014822,-0.00012645,-0.00013016,0.00014387,-0.0001227
 4,-0.00214114,0.00008647,0.00021218,0.00006723,-0.00006594,0.00005717,
 0.00170545,0.,0.,-0.00019143,0.,0.,0.,0.,0.,0.,0.,0.,0.,-0.00001245,0.
 00001376,0.00027090,-0.00014822,0.00016384,0.00013978,0.00014387,-0.00
 015903,0.00013567,0.00008690,-0.00274662,-0.00130018,-0.00006594,0.000
 46429,-0.00035349,-0.00006063,0.00213981,0.,0.,-0.00016331,0.,0.,0.,0.
 ,0.,0.,0.,0.,0.,-0.00003683,0.00004071,0.00015905,-0.00012645,0.000139
 78,0.00011925,0.00012274,-0.00013567,0.00011575,0.00024233,-0.00151219
 ,-0.00197969,-0.00005717,0.00035349,-0.00026996,-0.00017033,0.00105747
 ,0.00179402,0.,0.,0.,0.,0.,0.,0.,0.,0.,0.,0.,0.,-0.00010630,0.00011750
 ,0.,0.,0.,0.,0.,0.,0.,-0.00125769,-0.00069068,0.,0.00013548,0.00005627
 ,-0.00002557,0.00013548,0.00005627,0.00002557,0.00590259,0.,0.,0.,0.,0
 .,0.,0.,0.,0.,0.,0.,0.,-0.00023330,0.00025788,0.,0.,0.,0.,0.,0.,0.,-0.
 00082290,-0.00245539,0.,0.00029734,0.00012351,-0.00005613,0.00029734,0
 .00012351,0.00005613,0.00096572,0.00763486,0.,0.,0.00022699,0.,0.,0.,0
 .,0.,0.,0.,0.,0.,0.,0.,0.00062370,0.00017318,-0.00019143,-0.00016331,-
 0.00017318,0.00019143,-0.00016331,0.,0.,-0.00385094,0.00037678,-0.0002
 4099,0.00022471,-0.00037678,0.00024099,0.00022471,0.,0.,0.00882498,0.,
 0.,0.,0.,0.,0.,0.,0.,0.,0.,0.,0.,0.,0.,-0.00011192,0.,0.,0.,0.,0.,0.,0
 .00014333,0.00031456,-0.00041322,-0.00005311,-0.00011656,0.00008035,0.
 00005320,0.00011675,0.00008049,-0.00175762,-0.00035555,-0.00035877,0.0
 0132146,0.,0.,0.,0.,0.,0.,0.,0.,0.,0.,0.,0.,0.,0.,-0.00024563,0.,0.,0.
 ,0.,0.,0.,0.00006590,0.00014464,0.00013620,-0.00011656,-0.00025581,0.0
 0017636,0.00011675,0.00025624,0.00017665,-0.00048718,-0.00226133,-0.00
 085354,0.00038187,0.00179689,0.,0.,0.,0.,0.,0.,0.,0.,0.,0.,0.,0.,0.,0.
 ,-0.00015675,0.,0.,0.,0.,0.,0.,0.00002317,0.00005084,0.00016617,-0.000
 07438,-0.00016325,0.00011255,0.00007451,0.00016353,0.00011274,-0.00014
 952,-0.00093656,-0.00146435,0.00014704,0.00060050,0.00131894,0.,0.,0.,
 0.,0.,0.,0.,0.,0.,0.,0.,0.,0.,0.,0.,0.,0.,0.,0.,0.,0.,-0.00015420,-0.0
 0033842,0.,0.,0.,0.,0.,0.,0.,-0.00129433,0.00020690,0.,0.00023299,0.00
 013885,0.00006031,0.00098254,0.,0.,0.,0.,0.,0.,0.,0.,0.,0.,0.,0.,0.,0.
 ,0.,0.,0.,0.,0.,0.,0.,0.00015978,0.00035068,0.,0.,0.,0.,0.,0.,0.,0.000
 46927,-0.00116172,0.,-0.00024144,-0.00014388,-0.00006250,-0.00014619,0
 .00109880,0.,0.,0.,0.,0.,0.,0.,0.,0.,0.,0.,0.,0.,0.,0.00031323,0.,0.,0
 .,0.,0.,0.,0.,0.,0.00044572,0.00014876,0.00032649,-0.00022508,-0.00014
 876,-0.00032649,-0.00022508,0.,0.,-0.00301883,0.00049490,0.00035689,0.
 00017235,0.,0.,0.00236533,0.,0.,0.,0.,0.,0.,0.,0.,0.,0.,0.,0.,0.,0.,0.
 00011192,0.,0.,0.,0.,0.,0.,0.00014333,0.00031456,0.00041322,0.00005320
 ,0.00011675,-0.00008049,-0.00005311,-0.00011656,-0.00008035,-0.0017576
 2,-0.00035555,0.00035877,0.00005975,-0.00009964,-0.00008112,0.00023299
 ,-0.00024144,-0.00049490,0.00132146,0.,0.,0.,0.,0.,0.,0.,0.,0.,0.,0.,0
 .,0.,0.,0.00024563,0.,0.,0.,0.,0.,0.,0.00006590,0.00014464,-0.00013620
 ,0.00011675,0.00025624,-0.00017665,-0.00011656,-0.00025581,-0.00017636
 ,-0.00048718,-0.00226133,0.00085354,-0.00009964,0.00046325,0.00034744,
 0.00013885,-0.00014388,-0.00035689,0.00038187,0.00179689,0.,0.,0.,0.,0
 .,0.,0.,0.,0.,0.,0.,0.,0.,0.,-0.00015675,0.,0.,0.,0.,0.,0.,-0.00002317
 ,-0.00005084,0.00016617,-0.00007451,-0.00016353,0.00011274,0.00007438,
 0.00016325,0.00011255,0.00014952,0.00093656,-0.00146435,0.00008112,-0.
 00034744,-0.00026165,-0.00006031,0.00006250,0.00017235,-0.00014704,-0.
 00060050,0.00131894\\-0.00022957,0.00019454,0.,0.00007338,-0.00008073,
 0.,0.00008994,-0.00002972,0.00003787,0.00008994,-0.00002972,-0.0000378
 7,0.00014963,-0.00054855,0.,-0.00004544,0.00020288,0.00015311,-0.00004
 544,0.00020288,-0.00015311,-0.00014963,0.00054855,0.,0.00004544,-0.000
 20288,0.00015311,0.00004544,-0.00020288,-0.00015311,0.00022957,-0.0001
 9454,0.,-0.00008994,0.00002972,0.00003787,-0.00007338,0.00008073,0.,-0
 .00008994,0.00002972,-0.00003787\\\@
 The archive entry for this job was punched.


 SEE YOU NOW,
 YOUR BAIT OF FALSEHOOD TAKES THIS CARP OF TRUTH.
 AND THUS DO WE OF WISDOM AND OF REACH...
 BY INDIRECTIONS FIND DIRECTIONS OUT.    -- HAMLET, II, 1
 Job cpu time:       0 days  0 hours  0 minutes  0.6 seconds.
 Elapsed time:       0 days  0 hours  0 minutes  0.5 seconds.
 File lengths (MBytes):  RWF=      6 Int=      0 D2E=      0 Chk=      1 Scr=      1
 Normal termination of Gaussian DV at Thu Jun 19 11:02:03 2025.
