 Entering Gaussian System, Link 0=/home/emanuele/chem_software/gaussian/g09/g09
 Input=GauNonBon.gjf
 Output=GauNonBon.log
 Initial command:
 /home/emanuele/chem_software/gaussian//gdv/l1.exe "/home/emanuele/chem_software/gaussian/scratch/Gau-9401.inp" -scrdir="/home/emanuele/chem_software/gaussian/scratch/"
 Entering Link 1 = /home/emanuele/chem_software/gaussian//gdv/l1.exe PID=      9403.
  
 Copyright (c) 1988-2020, Gaussian, Inc.  All Rights Reserved.
  
 This is the private, development version of
 the Gaussian(R) DV system of programs. It is based on
 the Gaussian(R) 16 system (copyright 2016, Gaussian, Inc.),
 the Gaussian(R) 09 system (copyright 2009, Gaussian, Inc.),
 the Gaussian(R) 03 system (copyright 2003, Gaussian, Inc.),
 the Gaussian(R) 98 system (copyright 1998, Gaussian, Inc.),
 the Gaussian(R) 94 system (copyright 1995, Gaussian, Inc.),
 the Gaussian 92(TM) system (copyright 1992, Gaussian, Inc.),
 the Gaussian 90(TM) system (copyright 1990, Gaussian, Inc.),
 the Gaussian 88(TM) system (copyright 1988, Gaussian, Inc.),
 the Gaussian 86(TM) system (copyright 1986, Carnegie Mellon
 University), and the Gaussian 82(TM) system (copyright 1983,
 Carnegie Mellon University). Gaussian is a federally registered
 trademark of Gaussian, Inc.
  
 This software contains proprietary and confidential information,
 including trade secrets, belonging to Gaussian, Inc.
  
 This software is provided under written license and may be
 used, copied, transmitted, or stored only in accord with that
 written license.
  
 The following legend is applicable only to US Government
 contracts under FAR:
  
                    RESTRICTED RIGHTS LEGEND
  
 Use, reproduction and disclosure by the US Government is
 subject to restrictions as set forth in subparagraphs (a)
 and (c) of the Commercial Computer Software - Restricted
 Rights clause in FAR 52.227-19.
  
 Gaussian, Inc.
 340 Quinnipiac St., Bldg. 40, Wallingford CT 06492
  
  
 ---------------------------------------------------------------
 Warning -- This program may not be used in any manner that
 competes with the business of Gaussian, Inc. or will provide
 assistance to any competitor of Gaussian, Inc.  The licensee
 of this program is prohibited from giving any competitor of
 Gaussian, Inc. access to this program.  By using this program,
 the user acknowledges that Gaussian, Inc. is engaged in the
 business of creating and licensing software in the field of
 computational chemistry and represents and warrants to the
 licensee that it is not a competitor of Gaussian, Inc. and that
 it will not use this program in any manner prohibited above.
 ---------------------------------------------------------------
  

 Cite this work as:
 Gaussian Development Version, Revision J.14,
 M. J. Frisch, G. W. Trucks, H. B. Schlegel, G. E. Scuseria, 
 M. A. Robb, J. R. Cheeseman, G. Scalmani, V. Barone, 
 G. A. Petersson, H. Nakatsuji, X. Li, A. V. Marenich, M. Caricato, 
 J. Bloino, B. G. Janesko, J. Zheng, R. Gomperts, B. Mennucci, 
 H. P. Hratchian, J. V. Ortiz, A. F. Izmaylov, J. L. Sonnenberg, 
 D. Williams-Young, F. Ding, F. Lipparini, F. Egidi, J. Goings, 
 B. Peng, A. Petrone, T. Henderson, D. Ranasinghe, V. G. Zakrzewski, 
 J. Gao, N. Rega, G. Zheng, W. Liang, M. Hada, M. Ehara, K. Toyota, 
 R. Fukuda, J. Hasegawa, M. Ishida, T. Nakajima, Y. Honda, O. Kitao, 
 H. Nakai, T. Vreven, K. Throssell, J. A. Montgomery, Jr., 
 J. E. Peralta, F. Ogliaro, M. J. Bearpark, J. J. Heyd, 
 E. N. Brothers, K. N. Kudin, V. N. Staroverov, T. A. Keith, 
 R. Kobayashi, J. Normand, K. Raghavachari, A. P. Rendell, 
 J. C. Burant, S. S. Iyengar, J. Tomasi, M. Cossi, J. M. Millam, 
 M. Klene, C. Adamo, R. Cammi, J. W. Ochterski, R. L. Martin, 
 K. Morokuma, O. Farkas, J. B. Foresman, and D. J. Fox, 
 Gaussian, Inc., Wallingford CT, 2020.
 
 ******************************************
 Gaussian DV:  ES64L-GDVRevJ.14 29-Dec-2020
                29-Mar-2024 
 ******************************************
 %mem=1GB
 %nprocshared=1
 Will use up to    1 processors via shared memory.
 %chk=GauNonBon.chk
 ----------------------------------------------
 #p Amber=(SoftOnly,Print) nosymm Freq=intmodes
 ----------------------------------------------
 1/10=4,18=20,30=1,37=210000000,38=1,56=2,64=303/1,3;
 2/9=110,12=2,15=1,40=1/2;
 3/5=30,11=9,25=1,30=1,41=10030000,43=2,71=2,140=1/1;
 4/20=11,22=2,24=3,119=11/2;
 7/8=21,25=1,30=1,44=-1/16;
 1/10=4,18=20,30=1,64=303/3;
 99//99;
 Leave Link    1 at Fri Mar 29 17:06:04 2024, MaxMem=   134217728 cpu:               0.0 elap:               0.0
 (Enter /home/emanuele/chem_software/gaussian//gdv/l101.exe)
 -----
 Title
 -----
 Symbolic Z-matrix:
 Charge =  0 Multiplicity = 1
 C-C0--0.267532        1.9569   -0.12039   0. 
 H-H1-+0.083821        2.74201   0.63726   0. 
 H-H2-+0.077363        2.10375  -0.74938  -0.88076 
 H-H3-+0.077360        2.10375  -0.74938   0.88076 
 C-C4--0.092257        0.56696   0.51292   0. 
 H-H5-+0.060623        0.46175   1.1634   -0.87403 
 H-H6-+0.060622        0.46175   1.1634    0.87403 
 C-C7--0.092258       -0.56696  -0.51292   0. 
 H-H8-+0.060627       -0.46175  -1.1634   -0.87403 
 H-H9-+0.060618       -0.46175  -1.1634    0.87403 
 C-C10--0.267532      -1.9569    0.12039   0. 
 H-H11-+0.077330      -2.10375   0.74938  -0.88076 
 H-H12-+0.083821      -2.74201  -0.63726   0. 
 H-H13-+0.077394      -2.10375   0.74938   0.88076 
 
 ITRead=  0  0  0  0  0  0  0  0  0  0  0  0  0  0
 MicOpt= -1 -1 -1 -1 -1 -1 -1 -1 -1 -1 -1 -1 -1 -1
 DXMax1 from symmetrization= 1.89D-06
 NAtoms=     14 NQM=       14 NQMF=       0 NMMI=      0 NMMIF=      0
                NMic=       0 NMicF=      0.
                    Isotopes and Nuclear Properties:
 (Nuclear quadrupole moments (NQMom) in fm**2, nuclear magnetic moments (NMagM)
  in nuclear magnetons)

  Atom         1           2           3           4           5           6           7           8           9          10
 IAtWgt=          12           1           1           1          12           1           1          12           1           1
 AtmWgt=  12.0000000   1.0078250   1.0078250   1.0078250  12.0000000   1.0078250   1.0078250  12.0000000   1.0078250   1.0078250
 NucSpn=           0           1           1           1           0           1           1           0           1           1
 AtZEff=  -0.0000000  -0.0000000  -0.0000000  -0.0000000  -0.0000000  -0.0000000  -0.0000000  -0.0000000  -0.0000000  -0.0000000
 NQMom=    0.0000000   0.0000000   0.0000000   0.0000000   0.0000000   0.0000000   0.0000000   0.0000000   0.0000000   0.0000000
 NMagM=    0.0000000   2.7928460   2.7928460   2.7928460   0.0000000   2.7928460   2.7928460   0.0000000   2.7928460   2.7928460
 AtZNuc=   6.0000000   1.0000000   1.0000000   1.0000000   6.0000000   1.0000000   1.0000000   6.0000000   1.0000000   1.0000000

  Atom        11          12          13          14
 IAtWgt=          12           1           1           1
 AtmWgt=  12.0000000   1.0078250   1.0078250   1.0078250
 NucSpn=           0           1           1           1
 AtZEff=  -0.0000000  -0.0000000  -0.0000000  -0.0000000
 NQMom=    0.0000000   0.0000000   0.0000000   0.0000000
 NMagM=    0.0000000   2.7928460   2.7928460   2.7928460
 AtZNuc=   6.0000000   1.0000000   1.0000000   1.0000000
 Generating MM parameters.
 Read MM parameter file:
 Define C0         1
 Define C4         2
 Define H6         3
 Define C7         4
 Define H8         5
 Define H9         6
 Define C10        7
 Define H11        8
 Define H12        9
 Define H13       10
 Include all MM classes

 MM sanity checks:
 All charges sum to:                0.00000000
 Charges of atoms sum to:           0.00000000
 WARNING -- The following centers have non-zero partial charges, but zero Vanderwaals
 parameters.  These centers can collapse onto other centers with non-zero charge.
   Center  Layer   Charge
      1 C    R   -0.267532
      5 C    R   -0.092257
      7 H    R    0.060622
      8 C    R   -0.092258
      9 H    R    0.060627
     10 H    R    0.060618
     11 C    R   -0.267532
     12 H    R    0.077330
     13 H    R    0.083821
     14 H    R    0.077394
 MMInit generated parameter data with length LenPar=        3725.
 MM Charge=              0.0000 electrons
 MM Dipole moment (Debye):
    X=             -0.0000    Y=              0.0000    Z=              0.0002  Tot=              0.0002
 MM Quadrupole moment (Debye-Ang):
   XX=              2.7540   YY=              2.4677   ZZ=              2.0428
   XY=              0.0372   XZ=             -0.0006   YZ=              0.0003
 MM Traceless Quadrupole moment (Debye-Ang):
   XX=              0.3325   YY=              0.0462   ZZ=             -0.3787
   XY=              0.0372   XZ=             -0.0006   YZ=              0.0003
 MM Octapole moment (Debye-Ang**2):
  XXX=             -0.0000  YYY=              0.0000  ZZZ=              0.0002  XYY=             -0.0000
  XXY=              0.0000  XXZ=              0.0011  XZZ=             -0.0000  YZZ=              0.0000
  YYZ=              0.0001  XYZ=             -0.0004
 MM Hexadecapole moment (Debye-Ang**3):
 XXXX=             36.9049 YYYY=              2.6734 ZZZZ=              1.5741 XXXY=              2.5774
 XXXZ=             -0.0026 YYYX=              0.0434 YYYZ=              0.0002 ZZZX=             -0.0005
 ZZZY=              0.0002 XXYY=              6.2712 XXZZ=              5.2927 YYZZ=              1.8518
 XXYZ=              0.0009 YYXZ=             -0.0003 ZZXY=             -1.3397
 Leave Link  101 at Fri Mar 29 17:06:04 2024, MaxMem=   134217728 cpu:               0.3 elap:               0.3
 (Enter /home/emanuele/chem_software/gaussian//gdv/l103.exe)

 GradGradGradGradGradGradGradGradGradGradGradGradGradGradGradGradGradGrad
 Berny optimization.
 Initialization pass.
                           ----------------------------
                           !    Initial Parameters    !
                           ! (Angstroms and Degrees)  !
 --------------------------                            --------------------------
 ! Name  Definition              Value          Derivative Info.                !
 --------------------------------------------------------------------------------
 ! R1    R(1,2)                  1.0911         calculate D2E/DX2 analytically  !
 ! R2    R(1,3)                  1.0922         calculate D2E/DX2 analytically  !
 ! R3    R(1,4)                  1.0922         calculate D2E/DX2 analytically  !
 ! R4    R(1,5)                  1.5274         calculate D2E/DX2 analytically  !
 ! R5    R(5,6)                  1.0946         calculate D2E/DX2 analytically  !
 ! R6    R(5,7)                  1.0946         calculate D2E/DX2 analytically  !
 ! R7    R(5,8)                  1.5291         calculate D2E/DX2 analytically  !
 ! R8    R(8,9)                  1.0946         calculate D2E/DX2 analytically  !
 ! R9    R(8,10)                 1.0946         calculate D2E/DX2 analytically  !
 ! R10   R(8,11)                 1.5274         calculate D2E/DX2 analytically  !
 ! R11   R(11,12)                1.0922         calculate D2E/DX2 analytically  !
 ! R12   R(11,13)                1.0911         calculate D2E/DX2 analytically  !
 ! R13   R(11,14)                1.0922         calculate D2E/DX2 analytically  !
 ! A1    A(2,1,3)              107.6468         calculate D2E/DX2 analytically  !
 ! A2    A(2,1,4)              107.6468         calculate D2E/DX2 analytically  !
 ! A3    A(2,1,5)              111.5239         calculate D2E/DX2 analytically  !
 ! A4    A(3,1,4)              107.4912         calculate D2E/DX2 analytically  !
 ! A5    A(3,1,5)              111.1697         calculate D2E/DX2 analytically  !
 ! A6    A(4,1,5)              111.1697         calculate D2E/DX2 analytically  !
 ! A7    A(1,5,6)              109.5036         calculate D2E/DX2 analytically  !
 ! A8    A(1,5,7)              109.5036         calculate D2E/DX2 analytically  !
 ! A9    A(1,5,8)              113.3692         calculate D2E/DX2 analytically  !
 ! A10   A(6,5,7)              105.9737         calculate D2E/DX2 analytically  !
 ! A11   A(6,5,8)              109.1118         calculate D2E/DX2 analytically  !
 ! A12   A(7,5,8)              109.1118         calculate D2E/DX2 analytically  !
 ! A13   A(5,8,9)              109.1118         calculate D2E/DX2 analytically  !
 ! A14   A(5,8,10)             109.1118         calculate D2E/DX2 analytically  !
 ! A15   A(5,8,11)             113.3692         calculate D2E/DX2 analytically  !
 ! A16   A(9,8,10)             105.9737         calculate D2E/DX2 analytically  !
 ! A17   A(9,8,11)             109.5036         calculate D2E/DX2 analytically  !
 ! A18   A(10,8,11)            109.5036         calculate D2E/DX2 analytically  !
 ! A19   A(8,11,12)            111.1697         calculate D2E/DX2 analytically  !
 ! A20   A(8,11,13)            111.5239         calculate D2E/DX2 analytically  !
 ! A21   A(8,11,14)            111.1697         calculate D2E/DX2 analytically  !
 ! A22   A(12,11,13)           107.6468         calculate D2E/DX2 analytically  !
 ! A23   A(12,11,14)           107.4912         calculate D2E/DX2 analytically  !
 ! A24   A(13,11,14)           107.6468         calculate D2E/DX2 analytically  !
 ! D1    D(2,1,5,6)             57.898          calculate D2E/DX2 analytically  !
 ! D2    D(2,1,5,7)            -57.898          calculate D2E/DX2 analytically  !
 ! D3    D(2,1,5,8)            180.0            calculate D2E/DX2 analytically  !
 ! D4    D(3,1,5,6)            -62.247          calculate D2E/DX2 analytically  !
 ! D5    D(3,1,5,7)           -178.043          calculate D2E/DX2 analytically  !
 ! D6    D(3,1,5,8)             59.855          calculate D2E/DX2 analytically  !
 ! D7    D(4,1,5,6)            178.043          calculate D2E/DX2 analytically  !
 ! D8    D(4,1,5,7)             62.247          calculate D2E/DX2 analytically  !
 ! D9    D(4,1,5,8)            -59.855          calculate D2E/DX2 analytically  !
 ! D10   D(1,5,8,9)            -57.6801         calculate D2E/DX2 analytically  !
 ! D11   D(1,5,8,10)            57.6801         calculate D2E/DX2 analytically  !
 ! D12   D(1,5,8,11)           180.0            calculate D2E/DX2 analytically  !
 ! D13   D(6,5,8,9)             64.6397         calculate D2E/DX2 analytically  !
 ! D14   D(6,5,8,10)           180.0            calculate D2E/DX2 analytically  !
 ! D15   D(6,5,8,11)           -57.6801         calculate D2E/DX2 analytically  !
 ! D16   D(7,5,8,9)           -180.0            calculate D2E/DX2 analytically  !
 ! D17   D(7,5,8,10)           -64.6397         calculate D2E/DX2 analytically  !
 ! D18   D(7,5,8,11)            57.6801         calculate D2E/DX2 analytically  !
 ! D19   D(5,8,11,12)           59.855          calculate D2E/DX2 analytically  !
 ! D20   D(5,8,11,13)          180.0            calculate D2E/DX2 analytically  !
 ! D21   D(5,8,11,14)          -59.855          calculate D2E/DX2 analytically  !
 ! D22   D(9,8,11,12)          -62.247          calculate D2E/DX2 analytically  !
 ! D23   D(9,8,11,13)           57.898          calculate D2E/DX2 analytically  !
 ! D24   D(9,8,11,14)          178.043          calculate D2E/DX2 analytically  !
 ! D25   D(10,8,11,12)        -178.043          calculate D2E/DX2 analytically  !
 ! D26   D(10,8,11,13)         -57.898          calculate D2E/DX2 analytically  !
 ! D27   D(10,8,11,14)          62.247          calculate D2E/DX2 analytically  !
 --------------------------------------------------------------------------------
 Trust Radius=3.00D-01 FncErr=1.00D-07 GrdErr=1.00D-07 EigMax=2.50D+02 EigMin=1.00D-04
 Number of steps in this run=      2 maximum allowed number of steps=      2.
 GradGradGradGradGradGradGradGradGradGradGradGradGradGradGradGradGradGrad

 Leave Link  103 at Fri Mar 29 17:06:04 2024, MaxMem=   134217728 cpu:               0.0 elap:               0.0
 (Enter /home/emanuele/chem_software/gaussian//gdv/l202.exe)
                          Input orientation:                          
 ---------------------------------------------------------------------
 Center     Atomic      Atomic             Coordinates (Angstroms)
 Number     Number       Type             X           Y           Z
 ---------------------------------------------------------------------
      1          6    90000001        1.956897   -0.120392    0.000000
      2          1    20001035        2.742005    0.637259    0.000000
      3          1    20001036        2.103753   -0.749379   -0.880760
      4          1    20001037        2.103753   -0.749379    0.880760
      5          6    90000002        0.566957    0.512915    0.000000
      6          1    20001040        0.461751    1.163403   -0.874026
      7          1    90000003        0.461751    1.163403    0.874026
      8          6    90000004       -0.566957   -0.512915    0.000000
      9          1    90000005       -0.461751   -1.163403   -0.874026
     10          1    90000006       -0.461751   -1.163403    0.874026
     11          6    90000007       -1.956897    0.120392    0.000000
     12          1    90000008       -2.103753    0.749379   -0.880760
     13          1    90000009       -2.742005   -0.637259    0.000000
     14          1    90000010       -2.103753    0.749379    0.880760
 ---------------------------------------------------------------------
                    Distance matrix (angstroms):
                    1          2          3          4          5
     1  C    0.000000
     2  H    1.091068   0.000000
     3  H    1.092213   1.762348   0.000000
     4  H    1.092213   1.762348   1.761520   0.000000
     5  C    1.527420   2.178599   2.175055   2.175055   0.000000
     6  H    2.155809   2.498061   2.520903   3.071511   1.094589
     7  H    2.155809   2.498061   3.071511   2.520903   1.094589
     8  C    2.554195   3.503160   2.822117   2.822117   1.529081
     9  H    2.775185   3.777613   2.598706   3.135682   2.152255
    10  H    2.775185   3.777613   3.135682   2.598706   2.152255
    11  C    3.921194   4.727244   4.245129   4.245129   2.554195
    12  H    4.245129   4.926427   4.466473   4.801285   2.822117
    13  H    4.727244   5.630165   4.926427   4.926427   3.503160
    14  H    4.245129   4.926427   4.801285   4.466473   2.822117
                    6          7          8          9         10
     6  H    0.000000
     7  H    1.748052   0.000000
     8  C    2.152255   2.152255   0.000000
     9  H    2.503374   3.053288   1.094589   0.000000
    10  H    3.053288   2.503374   1.094589   1.748052   0.000000
    11  C    2.775185   2.775185   1.527420   2.155809   2.155809
    12  H    2.598706   3.135682   2.175055   2.520903   3.071511
    13  H    3.777613   3.777613   2.178599   2.498061   2.498061
    14  H    3.135682   2.598706   2.175055   3.071511   2.520903
                   11         12         13         14
    11  C    0.000000
    12  H    1.092213   0.000000
    13  H    1.091068   1.762348   0.000000
    14  H    1.092213   1.761520   1.762348   0.000000
 Symmetry turned off by external request.
 Stoichiometry    C4H10
 Framework group  C2H[SGH(C4H2),X(H8)]
 Deg. of freedom    11
 Full point group                 C2H     NOp   4
 Rotational constants (GHZ):          23.6116490           3.6179190           3.3991535
 Leave Link  202 at Fri Mar 29 17:06:04 2024, MaxMem=   134217728 cpu:               0.0 elap:               0.0
 (Enter /home/emanuele/chem_software/gaussian//gdv/l301.exe)
 Standard basis: Dummy (5D, 7F)
    14 basis functions,    14 primitive gaussians,    14 cartesian basis functions
     9 alpha electrons        9 beta electrons
       nuclear repulsion energy        36.5440176861 Hartrees.
 IExCor=       0 DFT=F Ex=HF Corr=None N6=None ScaHFX=  1.000000
 ScaDFX=  1.000000  1.000000  1.000000  1.000000  1.000000  0.000000
 ScaDFX=  0.000000  0.000000  0.000000  0.000000  0.000000  0.000000
 IRadAn=      5 IRanWt=     -1 IRanGd=            0 ICorTp=0 IEmpDi=  4
 NAtoms=   14 NActive=   14 NUniq=   14 SFac= 1.00D+00 NAtFMM=   60 NAOKFM=F Big=F
 Integral buffers will be    131072 words long.
 Raffenetti 1 integral format.
 Two-electron integral symmetry is turned off.
 Leave Link  301 at Fri Mar 29 17:06:04 2024, MaxMem=   134217728 cpu:               0.1 elap:               0.0
 (Enter /home/emanuele/chem_software/gaussian//gdv/l402.exe)
 AMBER calculation of energy, first and second derivatives.
 ****************************
 MOLECULAR MECHANICS FUNCTION
 ****************************
 Atomic parameters:
 Center  VDW
      1 0.0000 0.0000000
      2 1.3870 0.0157000
      3 1.2870 0.0157000
      4 1.1870 0.0157000
      5 0.0000 0.0000000
      6 1.3590 0.0150000
      7 0.0000 0.0000000
      8 0.0000 0.0000000
      9 0.0000 0.0000000
     10 0.0000 0.0000000
     11 0.0000 0.0000000
     12 0.0000 0.0000000
     13 0.0000 0.0000000
     14 0.0000 0.0000000
 Molecular mechanics terms:
 NBDir 3 1      0      0
 HrmStr1  1- 2    0.00 1.0910
 HrmStr1  1- 3    0.00 1.0920
 HrmStr1  1- 4    0.00 1.0920
 HrmStr1  1- 5    0.00 1.5270
 HrmStr1  5- 6    0.00 1.0950
 HrmStr1  5- 7    0.00 1.0950
 HrmStr1  5- 8    0.00 1.5290
 HrmStr1  8- 9    0.00 1.0950
 HrmStr1  8-10    0.00 1.0950
 HrmStr1  8-11    0.00 1.5270
 HrmStr1 11-12    0.00 1.0920
 HrmStr1 11-13    0.00 1.0910
 HrmStr1 11-14    0.00 1.0920
 HrmBnd1  1- 5- 6   0.00   1.00
 HrmBnd1  1- 5- 7   0.00   1.00
 HrmBnd1  1- 5- 8   0.00   1.00
 HrmBnd1  2- 1- 3   0.00   1.00
 HrmBnd1  2- 1- 4   0.00   1.00
 HrmBnd1  2- 1- 5   0.00   1.00
 HrmBnd1  3- 1- 4   0.00   1.00
 HrmBnd1  3- 1- 5   0.00   1.00
 HrmBnd1  4- 1- 5   0.00   1.00
 HrmBnd1  5- 8- 9   0.00   1.00
 HrmBnd1  5- 8-10   0.00   1.00
 HrmBnd1  5- 8-11   0.00   1.00
 HrmBnd1  6- 5- 7   0.00   1.00
 HrmBnd1  6- 5- 8   0.00   1.00
 HrmBnd1  7- 5- 8   0.00   1.00
 HrmBnd1  8-11-12   0.00   1.00
 HrmBnd1  8-11-13   0.00   1.00
 HrmBnd1  8-11-14   0.00   1.00
 HrmBnd1  9- 8-10   0.00   1.00
 HrmBnd1  9- 8-11   0.00   1.00
 HrmBnd1 10- 8-11   0.00   1.00
 HrmBnd1 12-11-13   0.00   1.00
 HrmBnd1 12-11-14   0.00   1.00
 HrmBnd1 13-11-14   0.00   1.00
 AmbTrs  2- 1- 5- 6   0   0   0   0  0.0000  0.0000  0.0000  0.0000  9.0
 AmbTrs  2- 1- 5- 7   0   0   0   0  0.0000  0.0000  0.0000  0.0000  9.0
 AmbTrs  2- 1- 5- 8   0   0   0   0  0.0000  0.0000  0.0000  0.0000  9.0
 AmbTrs  3- 1- 5- 6   0   0   0   0  0.0000  0.0000  0.0000  0.0000  9.0
 AmbTrs  3- 1- 5- 7   0   0   0   0  0.0000  0.0000  0.0000  0.0000  9.0
 AmbTrs  3- 1- 5- 8   0   0   0   0  0.0000  0.0000  0.0000  0.0000  9.0
 AmbTrs  4- 1- 5- 6   0   0   0   0  0.0000  0.0000  0.0000  0.0000  9.0
 AmbTrs  4- 1- 5- 7   0   0   0   0  0.0000  0.0000  0.0000  0.0000  9.0
 AmbTrs  4- 1- 5- 8   0   0   0   0  0.0000  0.0000  0.0000  0.0000  9.0
 AmbTrs  1- 5- 8- 9   0   0   0   0  0.0000  0.0000  0.0000  0.0000  9.0
 AmbTrs  1- 5- 8-10   0   0   0   0  0.0000  0.0000  0.0000  0.0000  9.0
 AmbTrs  1- 5- 8-11   0   0   0   0  0.0000  0.0000  0.0000  0.0000  9.0
 AmbTrs  6- 5- 8- 9   0   0   0   0  0.0000  0.0000  0.0000  0.0000  9.0
 AmbTrs  6- 5- 8-10   0   0   0   0  0.0000  0.0000  0.0000  0.0000  9.0
 AmbTrs  6- 5- 8-11   0   0   0   0  0.0000  0.0000  0.0000  0.0000  9.0
 AmbTrs  7- 5- 8- 9   0   0   0   0  0.0000  0.0000  0.0000  0.0000  9.0
 AmbTrs  7- 5- 8-10   0   0   0   0  0.0000  0.0000  0.0000  0.0000  9.0
 AmbTrs  7- 5- 8-11   0   0   0   0  0.0000  0.0000  0.0000  0.0000  9.0
 AmbTrs  5- 8-11-12   0   0   0   0  0.0000  0.0000  0.0000  0.0000  9.0
 AmbTrs  5- 8-11-13   0   0   0   0  0.0000  0.0000  0.0000  0.0000  9.0
 AmbTrs  5- 8-11-14   0   0   0   0  0.0000  0.0000  0.0000  0.0000  9.0
 AmbTrs  9- 8-11-12   0   0   0   0  0.0000  0.0000  0.0000  0.0000  9.0
 AmbTrs  9- 8-11-13   0   0   0   0  0.0000  0.0000  0.0000  0.0000  9.0
 AmbTrs  9- 8-11-14   0   0   0   0  0.0000  0.0000  0.0000  0.0000  9.0
 AmbTrs 10- 8-11-12   0   0   0   0  0.0000  0.0000  0.0000  0.0000  9.0
 AmbTrs 10- 8-11-13   0   0   0   0  0.0000  0.0000  0.0000  0.0000  9.0
 AmbTrs 10- 8-11-14   0   0   0   0  0.0000  0.0000  0.0000  0.0000  9.0
 NBPair  2- 1 3 1      0      0 -1.000 -1.000
 NBPair  3- 2 3 1      0      0 -1.000 -1.000
 NBPair  4- 2 3 1      0      0 -1.000 -1.000
 NBPair  5- 2 3 1      0      0 -1.000 -1.000
 NBPair  3- 1 3 1      0      0 -1.000 -1.000
 NBPair  4- 3 3 1      0      0 -1.000 -1.000
 NBPair  5- 3 3 1      0      0 -1.000 -1.000
 NBPair  4- 1 3 1      0      0 -1.000 -1.000
 NBPair  5- 4 3 1      0      0 -1.000 -1.000
 NBPair  5- 1 3 1      0      0 -1.000 -1.000
 NBPair  6- 2 3 1      0      0 -0.500 -0.167
 NBPair  7- 2 3 1      0      0 -0.500 -0.167
 NBPair  8- 2 3 1      0      0 -0.500 -0.167
 NBPair  6- 3 3 1      0      0 -0.500 -0.167
 NBPair  7- 3 3 1      0      0 -0.500 -0.167
 NBPair  8- 3 3 1      0      0 -0.500 -0.167
 NBPair  6- 4 3 1      0      0 -0.500 -0.167
 NBPair  7- 4 3 1      0      0 -0.500 -0.167
 NBPair  8- 4 3 1      0      0 -0.500 -0.167
 NBPair  6- 1 3 1      0      0 -1.000 -1.000
 NBPair  7- 1 3 1      0      0 -1.000 -1.000
 NBPair  8- 1 3 1      0      0 -1.000 -1.000
 NBPair  6- 5 3 1      0      0 -1.000 -1.000
 NBPair  7- 6 3 1      0      0 -1.000 -1.000
 NBPair  8- 6 3 1      0      0 -1.000 -1.000
 NBPair  7- 5 3 1      0      0 -1.000 -1.000
 NBPair  8- 7 3 1      0      0 -1.000 -1.000
 NBPair  8- 5 3 1      0      0 -1.000 -1.000
 NBPair  9- 1 3 1      0      0 -0.500 -0.167
 NBPair 10- 1 3 1      0      0 -0.500 -0.167
 NBPair 11- 1 3 1      0      0 -0.500 -0.167
 NBPair  9- 6 3 1      0      0 -0.500 -0.167
 NBPair 10- 6 3 1      0      0 -0.500 -0.167
 NBPair 11- 6 3 1      0      0 -0.500 -0.167
 NBPair  9- 7 3 1      0      0 -0.500 -0.167
 NBPair 10- 7 3 1      0      0 -0.500 -0.167
 NBPair 11- 7 3 1      0      0 -0.500 -0.167
 NBPair  9- 5 3 1      0      0 -1.000 -1.000
 NBPair 10- 5 3 1      0      0 -1.000 -1.000
 NBPair 11- 5 3 1      0      0 -1.000 -1.000
 NBPair  9- 8 3 1      0      0 -1.000 -1.000
 NBPair 10- 9 3 1      0      0 -1.000 -1.000
 NBPair 11- 9 3 1      0      0 -1.000 -1.000
 NBPair 10- 8 3 1      0      0 -1.000 -1.000
 NBPair 11-10 3 1      0      0 -1.000 -1.000
 NBPair 11- 8 3 1      0      0 -1.000 -1.000
 NBPair 12- 5 3 1      0      0 -0.500 -0.167
 NBPair 13- 5 3 1      0      0 -0.500 -0.167
 NBPair 14- 5 3 1      0      0 -0.500 -0.167
 NBPair 12- 9 3 1      0      0 -0.500 -0.167
 NBPair 13- 9 3 1      0      0 -0.500 -0.167
 NBPair 14- 9 3 1      0      0 -0.500 -0.167
 NBPair 12-10 3 1      0      0 -0.500 -0.167
 NBPair 13-10 3 1      0      0 -0.500 -0.167
 NBPair 14-10 3 1      0      0 -0.500 -0.167
 NBPair 12- 8 3 1      0      0 -1.000 -1.000
 NBPair 13- 8 3 1      0      0 -1.000 -1.000
 NBPair 14- 8 3 1      0      0 -1.000 -1.000
 NBPair 12-11 3 1      0      0 -1.000 -1.000
 NBPair 13-12 3 1      0      0 -1.000 -1.000
 NBPair 14-12 3 1      0      0 -1.000 -1.000
 NBPair 13-11 3 1      0      0 -1.000 -1.000
 NBPair 14-13 3 1      0      0 -1.000 -1.000
 NBPair 14-11 3 1      0      0 -1.000 -1.000
 Energy per function type:
 Direct Coulomb + vdW (small)                           0.011551463
 Direct Coulomb (large)                                -0.061862719
 Direct vdW (large)                                     0.000000000
 Non-direct Coulomb + vdW (small)                      -0.007645263
 Non-direct Coulomb (large)                             0.061862719
 Non-direct vdW (large)                                 0.000000000
 Energy per function class:
        Coulomb               0.003928767
    Vanderwaals              -0.000022567
 Energy=    3.906200086E-03 NIter=   0.
 Dipole moment=      -0.000003       0.000002       0.000085
 Leave Link  402 at Fri Mar 29 17:06:05 2024, MaxMem=   134217728 cpu:               0.0 elap:               0.0
 (Enter /home/emanuele/chem_software/gaussian//gdv/l716.exe)
 Dipole        =-2.90412355D-06 2.38538995D-06 8.50114084D-05
 Full mass-weighted force constant matrix:
 Low frequencies ---  -79.4140  -77.0220  -69.6654  -67.8502  -59.1818  -56.9991
 Low frequencies ---  -53.7864  -50.7601  -48.7758
 ******   20 imaginary frequencies (negative Signs) ****** 
 Diagonal vibrational polarizability:
      859.8629969     889.3843350    4012.3871096
 Harmonic frequencies (cm**-1), IR intensities (KM/Mole), Raman scattering
 activities (A**4/AMU), depolarization ratios for plane and unpolarized
 incident light, reduced masses (AMU), force constants (mDyne/A),
 and normal coordinates:
                      1                      2                      3
                      A                      A                      A
 Frequencies --    -79.3874               -75.9334               -68.7034
 Red. masses --      1.1550                 1.1633                 1.0175
 Frc consts  --      0.0043                 0.0040                 0.0028
 IR Inten    --     31.2010                 0.4557                 0.2063
  Atom  AN      X      Y      Z        X      Y      Z        X      Y      Z
     1   6    -0.07  -0.01  -0.00    -0.05  -0.07   0.00    -0.00   0.00   0.01
     2   1     0.13  -0.06   0.04    -0.00   0.17  -0.05     0.04  -0.01  -0.35
     3   1     0.12  -0.05  -0.06     0.20   0.14  -0.16    -0.05   0.07  -0.17
     4   1     0.14  -0.06   0.07     0.22   0.11   0.14     0.03  -0.10  -0.15
     5   6    -0.01   0.00   0.00     0.02  -0.01  -0.00    -0.00   0.00  -0.01
     6   1     0.36   0.21  -0.31    -0.26  -0.10   0.26    -0.25  -0.06   0.40
     7   1     0.33   0.20   0.25    -0.26  -0.06  -0.19     0.34   0.09   0.40
     8   6    -0.01  -0.00  -0.00    -0.02   0.01  -0.00     0.00  -0.00  -0.01
     9   1     0.28   0.19   0.21     0.34   0.09   0.29     0.13  -0.02   0.28
    10   1     0.29   0.19  -0.23     0.34   0.10  -0.27    -0.15   0.03   0.30
    11   6    -0.08  -0.03   0.00     0.03   0.06  -0.00    -0.01  -0.01  -0.02
    12   1     0.17  -0.04   0.10    -0.17  -0.12  -0.13     0.03  -0.06  -0.12
    13   1     0.13  -0.02   0.01     0.01  -0.14  -0.01     0.01   0.01  -0.19
    14   1     0.17  -0.04  -0.09    -0.18  -0.12   0.11     0.03   0.08  -0.15
                      4                      5                      6
                      A                      A                      A
 Frequencies --    -65.5369               -59.1323               -52.2222
 Red. masses --      1.1097                 1.0199                 1.0725
 Frc consts  --      0.0028                 0.0021                 0.0017
 IR Inten    --      0.0375                 1.5227                 0.3285
  Atom  AN      X      Y      Z        X      Y      Z        X      Y      Z
     1   6     0.00  -0.00  -0.07     0.01  -0.01  -0.00     0.01   0.05  -0.00
     2   1     0.00  -0.02   0.24     0.01   0.45   0.00     0.13  -0.24   0.01
     3   1     0.07   0.02   0.02     0.18   0.05  -0.01    -0.06  -0.04  -0.27
     4   1    -0.08   0.01   0.01     0.10   0.07   0.03    -0.04  -0.02   0.29
     5   6     0.00  -0.00  -0.00    -0.02   0.01   0.00    -0.02   0.02  -0.01
     6   1     0.22   0.18  -0.11    -0.08  -0.33  -0.28     0.13   0.11   0.31
     7   1    -0.26  -0.18  -0.09    -0.02  -0.29   0.27     0.07   0.05  -0.30
     8   6     0.00   0.00  -0.00    -0.02   0.01   0.00     0.00  -0.02   0.00
     9   1     0.38   0.19   0.30    -0.03  -0.25   0.19    -0.11  -0.17   0.29
    10   1    -0.38  -0.19   0.29    -0.07  -0.28  -0.20    -0.09  -0.17  -0.33
    11   6     0.00   0.00   0.07     0.00  -0.01  -0.00    -0.01  -0.05   0.00
    12   1     0.07  -0.06  -0.11     0.11   0.10   0.09     0.14   0.05  -0.24
    13   1    -0.00  -0.01  -0.36     0.01   0.33  -0.01    -0.06   0.35   0.01
    14   1    -0.10   0.05  -0.10     0.14   0.11  -0.07     0.11   0.05   0.20
                      7                      8                      9
                      A                      A                      A
 Frequencies --    -50.7609               -50.0126               -48.6431
 Red. masses --      1.0727                 1.1656                 1.0614
 Frc consts  --      0.0016                 0.0017                 0.0015
 IR Inten    --     17.0944                 0.7645                 1.0765
  Atom  AN      X      Y      Z        X      Y      Z        X      Y      Z
     1   6     0.02  -0.01   0.02     0.00  -0.00  -0.06     0.00   0.02  -0.01
     2   1    -0.33  -0.29   0.00    -0.03  -0.08  -0.08     0.04   0.12  -0.13
     3   1    -0.20   0.11   0.04     0.13   0.07   0.43     0.15  -0.07   0.07
     4   1    -0.12   0.12  -0.21    -0.23   0.01   0.35    -0.21  -0.19   0.17
     5   6     0.04   0.00   0.01     0.01  -0.00  -0.06     0.02   0.01   0.04
     6   1    -0.11   0.10  -0.34    -0.07  -0.00   0.19    -0.13  -0.26  -0.14
     7   1    -0.08   0.08   0.28     0.03   0.04   0.35     0.25   0.15  -0.24
     8   6     0.05   0.00  -0.01     0.01   0.00   0.07    -0.01  -0.01  -0.00
     9   1    -0.10  -0.05   0.43     0.10   0.13  -0.29     0.16   0.29   0.05
    10   1    -0.04   0.01  -0.28    -0.12  -0.11  -0.42    -0.24  -0.04  -0.07
    11   6     0.02  -0.00  -0.01     0.00  -0.00   0.04    -0.01  -0.02  -0.04
    12   1    -0.18   0.03  -0.10    -0.01  -0.03  -0.25    -0.26   0.07   0.20
    13   1    -0.24  -0.08   0.00    -0.05  -0.05   0.03    -0.14  -0.19  -0.13
    14   1    -0.15   0.03   0.18    -0.07   0.04  -0.21     0.20   0.16   0.38
                     10                     11                     12
                      A                      A                      A
 Frequencies --    -47.9640               -36.8217               -31.3215
 Red. masses --      1.0756                 1.1135                 1.2879
 Frc consts  --      0.0015                 0.0009                 0.0007
 IR Inten    --      0.7631                 2.9074                 0.0510
  Atom  AN      X      Y      Z        X      Y      Z        X      Y      Z
     1   6    -0.01  -0.03  -0.00    -0.04  -0.02  -0.00     0.01   0.07  -0.01
     2   1    -0.19  -0.29  -0.09     0.13   0.45   0.01    -0.09  -0.39   0.00
     3   1     0.13   0.28   0.11    -0.19  -0.13   0.30     0.27  -0.05   0.08
     4   1    -0.06   0.21   0.02    -0.16  -0.12  -0.27     0.26  -0.14  -0.01
     5   6    -0.05  -0.01   0.02     0.04  -0.02   0.00     0.09   0.01  -0.00
     6   1    -0.16   0.08  -0.08     0.03   0.10   0.03    -0.04  -0.22  -0.06
     7   1     0.04   0.27  -0.10     0.03   0.14  -0.02    -0.03  -0.14   0.05
     8   6     0.02   0.01   0.00     0.06  -0.01  -0.00    -0.08  -0.01  -0.00
     9   1     0.19  -0.14  -0.10     0.02   0.05  -0.00     0.04   0.15  -0.08
    10   1    -0.01  -0.31   0.09     0.02   0.07   0.01     0.07   0.24   0.08
    11   6     0.01   0.03  -0.02    -0.04  -0.00   0.00    -0.02  -0.07   0.01
    12   1    -0.07  -0.28   0.27    -0.10  -0.16  -0.30    -0.28   0.09   0.03
    13   1     0.26   0.35  -0.06     0.13   0.43  -0.03     0.13   0.49  -0.08
    14   1     0.18  -0.22   0.04    -0.13  -0.19   0.30    -0.33   0.05   0.01
                     13                     14                     15
                      A                      A                      A
 Frequencies --    -30.1889               -28.9476               -28.4409
 Red. masses --      1.0260                 1.0554                 1.0469
 Frc consts  --      0.0006                 0.0005                 0.0005
 IR Inten    --      0.2025                 1.0670                 9.5786
  Atom  AN      X      Y      Z        X      Y      Z        X      Y      Z
     1   6     0.00   0.00  -0.01     0.00  -0.00  -0.04     0.01  -0.01  -0.01
     2   1    -0.07   0.03   0.38    -0.09  -0.04   0.42    -0.03   0.19   0.13
     3   1     0.19   0.13  -0.33     0.32   0.14  -0.01    -0.22  -0.08  -0.35
     4   1    -0.23  -0.16  -0.21    -0.14  -0.11  -0.18    -0.32  -0.07   0.34
     5   6     0.02  -0.01   0.02    -0.02   0.00  -0.02     0.02  -0.01  -0.01
     6   1    -0.02  -0.06   0.01    -0.08  -0.29   0.04    -0.04  -0.02  -0.01
     7   1     0.05   0.07   0.00     0.10   0.30  -0.01     0.04   0.16   0.04
     8   6    -0.00   0.00   0.02    -0.01   0.01   0.02     0.04  -0.01   0.01
     9   1     0.08   0.13  -0.02    -0.10  -0.30  -0.02    -0.04  -0.05   0.03
    10   1    -0.07  -0.09   0.03     0.08   0.23   0.00     0.04   0.14  -0.05
    11   6    -0.01  -0.00  -0.02    -0.00   0.01   0.04     0.02   0.00   0.01
    12   1    -0.24  -0.17  -0.23     0.27   0.12  -0.13    -0.18  -0.00   0.40
    13   1     0.02   0.06   0.53    -0.01  -0.11  -0.34    -0.01   0.17  -0.20
    14   1     0.14   0.12  -0.24    -0.01  -0.11   0.15    -0.32  -0.12  -0.32
                     16                     17                     18
                      A                      A                      A
 Frequencies --    -25.9955               -21.0828               -16.2425
 Red. masses --      2.5632                 1.4205                 4.1774
 Frc consts  --      0.0010                 0.0004                 0.0006
 IR Inten    --      0.0348                 0.1421                 1.6110
  Atom  AN      X      Y      Z        X      Y      Z        X      Y      Z
     1   6     0.19  -0.01   0.00     0.02   0.00  -0.07     0.24   0.05   0.01
     2   1     0.03   0.23  -0.02    -0.08   0.02   0.21     0.05   0.15  -0.04
     3   1    -0.01   0.21  -0.25    -0.26  -0.19   0.19    -0.09  -0.10   0.10
     4   1     0.04   0.29   0.28     0.28   0.13   0.22    -0.11  -0.25  -0.13
     5   6     0.18  -0.07  -0.01    -0.02  -0.00   0.12    -0.26  -0.07  -0.03
     6   1     0.08   0.21  -0.13    -0.08  -0.11  -0.02     0.13   0.22  -0.16
     7   1     0.10   0.17   0.15     0.10   0.15  -0.01     0.11   0.18   0.19
     8   6    -0.18   0.07   0.00    -0.02  -0.00  -0.11    -0.27  -0.07   0.02
     9   1    -0.11  -0.19  -0.13    -0.09  -0.13   0.01     0.17   0.30   0.16
    10   1    -0.09  -0.18   0.11     0.10   0.14   0.00     0.09   0.20  -0.15
    11   6    -0.17   0.02   0.00     0.02   0.01   0.07     0.27   0.04  -0.02
    12   1    -0.03  -0.26  -0.17    -0.35  -0.21  -0.29    -0.03  -0.13  -0.09
    13   1    -0.04  -0.21  -0.07     0.00   0.00  -0.19     0.06   0.19   0.08
    14   1    -0.06  -0.28   0.24     0.37   0.18  -0.25    -0.16  -0.21   0.20
                     19                     20                     21
                      A                      A                      A
 Frequencies --    -14.9276                -9.7386                 9.3573
 Red. masses --      1.3686                 1.0478                 3.9813
 Frc consts  --      0.0002                 0.0001                 0.0002
 IR Inten    --      0.2417                10.3671                 0.0020
  Atom  AN      X      Y      Z        X      Y      Z        X      Y      Z
     1   6    -0.02   0.00   0.04     0.01  -0.00   0.04    -0.09  -0.04  -0.01
     2   1    -0.07   0.00   0.34     0.08   0.03  -0.31     0.08   0.09   0.07
     3   1    -0.20  -0.10  -0.19     0.19   0.35  -0.00    -0.14   0.00   0.26
     4   1     0.22   0.08  -0.17    -0.22  -0.34  -0.06    -0.12   0.11  -0.33
     5   6    -0.00   0.00  -0.12     0.00   0.00   0.02     0.21   0.29   0.01
     6   1    -0.01   0.11   0.13     0.10   0.26  -0.12     0.02   0.16   0.15
     7   1     0.01  -0.17   0.15    -0.10  -0.22  -0.13     0.03   0.26  -0.12
     8   6     0.00   0.01   0.13    -0.00  -0.01   0.00    -0.22  -0.28   0.01
     9   1    -0.03   0.12  -0.20    -0.11  -0.25  -0.06    -0.01  -0.19   0.12
    10   1     0.05  -0.08  -0.14     0.09   0.23  -0.11    -0.01  -0.24  -0.13
    11   6     0.01  -0.00  -0.03    -0.01   0.01   0.04     0.09   0.03  -0.01
    12   1    -0.29  -0.20   0.10    -0.13  -0.29  -0.02     0.10  -0.04   0.28
    13   1     0.03   0.01  -0.43    -0.03  -0.00  -0.22    -0.11  -0.07  -0.02
    14   1     0.32   0.22   0.21     0.11   0.28  -0.10     0.16  -0.08  -0.29
                     22                     23                     24
                      A                      A                      A
 Frequencies --     14.9502                17.0930                17.3885
 Red. masses --      2.0879                 3.7445                 3.1790
 Frc consts  --      0.0003                 0.0006                 0.0006
 IR Inten    --      0.0796                 0.5292                 0.3687
  Atom  AN      X      Y      Z        X      Y      Z        X      Y      Z
     1   6     0.19  -0.08  -0.01    -0.04  -0.09  -0.04     0.07  -0.23   0.05
     2   1     0.20  -0.00   0.09     0.20   0.01  -0.04    -0.14  -0.04   0.01
     3   1     0.18  -0.04   0.28    -0.10  -0.11   0.26    -0.06  -0.03  -0.23
     4   1     0.29  -0.00  -0.35    -0.15   0.01  -0.41    -0.11  -0.14   0.37
     5   6    -0.10   0.08   0.00     0.04   0.01   0.06    -0.08   0.32  -0.06
     6   1     0.08  -0.01   0.24     0.11   0.06   0.21    -0.04  -0.08  -0.19
     7   1     0.06   0.09  -0.20     0.06   0.07  -0.25     0.01  -0.12   0.20
     8   6     0.08  -0.03   0.03    -0.11   0.37   0.05     0.02   0.05  -0.07
     9   1    -0.01   0.01   0.19    -0.02  -0.12   0.16     0.10   0.05  -0.22
    10   1    -0.03  -0.08  -0.21     0.03  -0.09  -0.21     0.06   0.06   0.27
    11   6    -0.17   0.03  -0.02     0.12  -0.25  -0.03    -0.00  -0.11   0.05
    12   1    -0.30   0.04   0.27    -0.05  -0.06   0.22    -0.04  -0.11  -0.29
    13   1    -0.22   0.01  -0.02    -0.13  -0.04  -0.08     0.22   0.00   0.07
    14   1    -0.21  -0.00  -0.27    -0.02  -0.11  -0.33    -0.09  -0.02   0.40
                     25                     26                     27
                      A                      A                      A
 Frequencies --     18.2808                28.5561                34.8807
 Red. masses --      4.0215                 1.1193                 1.0660
 Frc consts  --      0.0008                 0.0005                 0.0008
 IR Inten    --      0.8824                21.6613                 3.0040
  Atom  AN      X      Y      Z        X      Y      Z        X      Y      Z
     1   6     0.01  -0.04  -0.22     0.00  -0.00   0.07     0.00  -0.01  -0.00
     2   1    -0.03  -0.03  -0.30     0.12  -0.04  -0.27     0.16  -0.03  -0.06
     3   1    -0.09  -0.06  -0.36     0.17  -0.14  -0.19     0.17  -0.22  -0.14
     4   1     0.03   0.08   0.02    -0.23   0.29  -0.17    -0.25   0.54  -0.18
     5   6    -0.03   0.07   0.29    -0.01  -0.00  -0.01    -0.01  -0.01   0.05
     6   1     0.04   0.06  -0.25     0.10  -0.09  -0.11     0.11  -0.10   0.10
     7   1    -0.10  -0.19   0.04    -0.08   0.05  -0.05    -0.04   0.08   0.11
     8   6     0.03  -0.05   0.29    -0.00  -0.01   0.01    -0.00  -0.02  -0.04
     9   1    -0.04  -0.04  -0.21    -0.07   0.16  -0.06     0.05   0.02  -0.14
    10   1     0.10   0.15   0.06     0.09  -0.09  -0.02    -0.02   0.08  -0.11
    11   6    -0.01   0.01  -0.22     0.00  -0.00   0.07     0.00  -0.01   0.01
    12   1     0.10   0.14  -0.40    -0.30   0.38  -0.27     0.12  -0.26   0.10
    13   1     0.12   0.01  -0.22     0.04   0.01  -0.22     0.07   0.02  -0.02
    14   1    -0.10  -0.12  -0.01     0.24  -0.32  -0.20    -0.24   0.46   0.15
                     28                     29                     30
                      A                      A                      A
 Frequencies --     43.3754                52.6203                59.7886
 Red. masses --      1.1164                 1.1011                 1.1093
 Frc consts  --      0.0012                 0.0018                 0.0023
 IR Inten    --     35.2685                15.1816                20.7481
  Atom  AN      X      Y      Z        X      Y      Z        X      Y      Z
     1   6     0.02  -0.05  -0.01     0.03   0.05   0.01     0.04  -0.02   0.05
     2   1    -0.03   0.15   0.09    -0.12  -0.09  -0.06    -0.36   0.12  -0.14
     3   1    -0.14   0.41   0.11    -0.16  -0.35   0.01    -0.13  -0.05  -0.15
     4   1    -0.03   0.19   0.05    -0.15  -0.30  -0.11     0.16  -0.10  -0.13
     5   6    -0.00  -0.04  -0.01     0.01   0.01   0.01     0.01  -0.01   0.02
     6   1    -0.06   0.23   0.06    -0.09  -0.09  -0.00    -0.27   0.02  -0.12
     7   1     0.04   0.12  -0.08    -0.13   0.01  -0.02    -0.10   0.25  -0.22
     8   6    -0.02  -0.03   0.01    -0.02   0.02   0.00    -0.00  -0.00   0.01
     9   1     0.04   0.01   0.05     0.16  -0.19   0.08     0.19   0.26  -0.22
    10   1     0.06   0.07   0.07     0.13  -0.27  -0.17     0.03  -0.03  -0.15
    11   6    -0.00  -0.06  -0.01    -0.05   0.03   0.01    -0.03  -0.04   0.05
    12   1    -0.10   0.56  -0.01     0.02   0.03  -0.00     0.43  -0.00  -0.08
    13   1     0.35   0.02   0.03     0.63  -0.25  -0.03    -0.24   0.17  -0.10
    14   1    -0.02   0.41   0.02    -0.06   0.11  -0.03     0.03   0.18  -0.18
                     31                     32                     33
                      A                      A                      A
 Frequencies --     64.2671                71.9291                79.9379
 Red. masses --      1.1222                 1.0155                 1.0263
 Frc consts  --      0.0027                 0.0031                 0.0039
 IR Inten    --     10.8754                 0.8439                 1.0981
  Atom  AN      X      Y      Z        X      Y      Z        X      Y      Z
     1   6     0.06   0.01  -0.04     0.01   0.00   0.02     0.02   0.02   0.00
     2   1    -0.10  -0.03   0.03    -0.07  -0.00   0.01    -0.09  -0.06   0.13
     3   1     0.03  -0.17   0.12    -0.08  -0.12  -0.05    -0.10   0.02   0.11
     4   1    -0.35   0.01   0.07     0.02   0.12  -0.09    -0.29   0.19  -0.03
     5   6     0.01  -0.00  -0.01     0.00   0.00  -0.00    -0.00   0.00   0.00
     6   1    -0.07   0.05   0.21    -0.06   0.10   0.00    -0.21   0.01  -0.05
     7   1    -0.42  -0.08   0.18     0.12  -0.19  -0.06     0.54  -0.51  -0.23
     8   6    -0.01   0.00  -0.01    -0.00  -0.00  -0.00    -0.01  -0.00  -0.00
     9   1     0.15   0.01   0.13     0.49  -0.39  -0.17     0.06   0.10   0.04
    10   1     0.33   0.20   0.18    -0.41   0.41  -0.18     0.34  -0.08   0.05
    11   6    -0.05  -0.02  -0.04    -0.01   0.00   0.01    -0.02   0.02   0.01
    12   1     0.09   0.08   0.17    -0.07   0.15   0.03     0.11  -0.05  -0.07
    13   1    -0.20   0.15   0.08    -0.01   0.01   0.13    -0.07   0.02  -0.05
    14   1     0.45  -0.01   0.08     0.10  -0.17   0.02    -0.09  -0.04  -0.06
                     34                     35                     36
                      A                      A                      A
 Frequencies --     80.8258                89.8761               129.7391
 Red. masses --      1.0191                 1.0275                 1.0094
 Frc consts  --      0.0039                 0.0049                 0.0100
 IR Inten    --      1.2094                 0.4123                 0.1265
  Atom  AN      X      Y      Z        X      Y      Z        X      Y      Z
     1   6     0.01   0.02   0.01     0.03  -0.02   0.00     0.00   0.00  -0.00
     2   1     0.50  -0.20   0.04     0.05  -0.04   0.03    -0.53   0.11  -0.15
     3   1    -0.47   0.36  -0.01    -0.12   0.17   0.02    -0.15   0.19   0.02
     4   1    -0.05  -0.05  -0.06    -0.05   0.11  -0.03    -0.03   0.04  -0.03
     5   6    -0.00   0.00  -0.00     0.01   0.01  -0.00    -0.00   0.00   0.00
     6   1     0.04  -0.42  -0.12    -0.14  -0.17   0.02     0.64  -0.36   0.24
     7   1    -0.14   0.04   0.04    -0.10  -0.14  -0.07     0.08  -0.05  -0.05
     8   6    -0.01   0.00   0.01    -0.00  -0.00   0.00    -0.00  -0.00   0.00
     9   1     0.30  -0.02  -0.11    -0.30   0.37   0.18     0.06   0.02   0.01
    10   1     0.12  -0.05  -0.01    -0.31   0.36  -0.19     0.03   0.03  -0.02
    11   6    -0.02   0.01   0.01    -0.02  -0.01   0.00    -0.00   0.01  -0.00
    12   1     0.02  -0.02  -0.04     0.22  -0.19   0.08    -0.04  -0.03   0.02
    13   1    -0.13   0.03  -0.00     0.39  -0.01  -0.00     0.01  -0.01   0.01
    14   1     0.00   0.02   0.01     0.20  -0.18  -0.10     0.01  -0.02   0.02

 -------------------
 - Thermochemistry -
 -------------------
 Temperature   298.150 Kelvin.  Pressure      1.00000 Atm.
 Atom     1 has atomic number  6 and mass  12.00000
 Atom     2 has atomic number  1 and mass   1.00783
 Atom     3 has atomic number  1 and mass   1.00783
 Atom     4 has atomic number  1 and mass   1.00783
 Atom     5 has atomic number  6 and mass  12.00000
 Atom     6 has atomic number  1 and mass   1.00783
 Atom     7 has atomic number  1 and mass   1.00783
 Atom     8 has atomic number  6 and mass  12.00000
 Atom     9 has atomic number  1 and mass   1.00783
 Atom    10 has atomic number  1 and mass   1.00783
 Atom    11 has atomic number  6 and mass  12.00000
 Atom    12 has atomic number  1 and mass   1.00783
 Atom    13 has atomic number  1 and mass   1.00783
 Atom    14 has atomic number  1 and mass   1.00783
 Molecular mass:    58.07825 amu.
 Principal axes and moments of inertia in atomic units:
                                 1                 2                 3
     Eigenvalues --           76.434357        498.834054        530.938426
           X                   0.999985         -0.005557          0.000000
           Y                   0.005557          0.999985          0.000000
           Z                   0.000000         -0.000000          1.000000
 This molecule is an asymmetric top.
 Rotational symmetry number  2.
 Rotational temperatures (Kelvin)      1.13318     0.17363     0.16313
 Rotational constants (GHZ):          23.61165     3.61792     3.39915
   20 imaginary frequencies ignored.
 Zero-point vibrational energy       4862.0 (Joules/Mol)
                                    1.16205 (Kcal/Mol)
 Warning -- explicit consideration of  16 degrees of freedom as
           vibrations may cause significant error
 Vibrational temperatures:     13.46    21.51    24.59    25.02    26.30
          (Kelvin)             41.09    50.19    62.41    75.71    86.02
                               92.47   103.49   115.01   116.29   129.31
                              186.67
 
 Zero-point correction=                           0.001852 (Hartree/Particle)
 Thermal correction to Energy=                    0.018047
 Thermal correction to Enthalpy=                  0.018991
 Thermal correction to Gibbs Free Energy=        -0.050283
 Sum of electronic and zero-point Energies=              0.005758
 Sum of electronic and thermal Energies=                 0.021953
 Sum of electronic and thermal Enthalpies=               0.022897
 Sum of electronic and thermal Free Energies=           -0.046377
 
                     E (Thermal)             CV                S
                      KCal/Mol        Cal/Mol-Kelvin    Cal/Mol-Kelvin
 Total                   11.324             37.533            145.800
 Electronic               0.000              0.000              0.000
 Translational            0.889              2.981             38.098
 Rotational               0.889              2.981             23.141
 Vibrational              9.547             31.571             84.560
 Vibration     1          0.593              1.987              8.143
 Vibration     2          0.593              1.986              7.212
 Vibration     3          0.593              1.986              6.946
 Vibration     4          0.593              1.986              6.912
 Vibration     5          0.593              1.986              6.813
 Vibration     6          0.593              1.984              5.927
 Vibration     7          0.594              1.983              5.530
 Vibration     8          0.595              1.980              5.099
 Vibration     9          0.596              1.977              4.716
 Vibration    10          0.597              1.973              4.464
 Vibration    11          0.597              1.971              4.322
 Vibration    12          0.598              1.967              4.100
 Vibration    13          0.600              1.963              3.892
 Vibration    14          0.600              1.962              3.871
 Vibration    15          0.602              1.956              3.663
 Vibration    16          0.612              1.924              2.950
                       Q            Log10(Q)             Ln(Q)
 Total Bot       0.134507D+24         23.128744         53.255900
 Total V=0       0.956164D+24         23.980532         55.217216
 Vib (Bot)       0.303605D+12         11.482309         26.438994
 Vib (Bot)    1  0.221440D+02          1.345255          3.097565
 Vib (Bot)    2  0.138580D+02          1.141699          2.628859
 Vib (Bot)    3  0.121199D+02          1.083500          2.494851
 Vib (Bot)    4  0.119138D+02          1.076051          2.477698
 Vib (Bot)    5  0.113319D+02          1.054304          2.427625
 Vib (Bot)    6  0.725102D+01          0.860399          1.981143
 Vib (Bot)    7  0.593395D+01          0.773344          1.780691
 Vib (Bot)    8  0.476875D+01          0.678405          1.562085
 Vib (Bot)    9  0.392755D+01          0.594122          1.368016
 Vib (Bot)   10  0.345396D+01          0.538318          1.239522
 Vib (Bot)   11  0.321154D+01          0.506713          1.166751
 Vib (Bot)   12  0.286654D+01          0.457359          1.053107
 Vib (Bot)   13  0.257632D+01          0.410999          0.946361
 Vib (Bot)   14  0.254766D+01          0.406142          0.935177
 Vib (Bot)   15  0.228770D+01          0.359399          0.827546
 Vib (Bot)   16  0.157145D+01          0.196301          0.451999
 Vib (V=0)       0.215823D+13         12.334098         28.400311
 Vib (V=0)    1  0.226496D+02          1.355061          3.120142
 Vib (V=0)    2  0.143670D+02          1.157365          2.664932
 Vib (V=0)    3  0.126302D+02          1.101411          2.536093
 Vib (V=0)    4  0.124243D+02          1.094272          2.519654
 Vib (V=0)    5  0.118430D+02          1.073461          2.471734
 Vib (V=0)    6  0.776824D+01          0.890323          2.050044
 Vib (V=0)    7  0.645498D+01          0.809895          1.864852
 Vib (V=0)    8  0.529489D+01          0.723857          1.666743
 Vib (V=0)    9  0.445925D+01          0.649262          1.494980
 Vib (V=0)   10  0.398997D+01          0.600969          1.383783
 Vib (V=0)   11  0.375023D+01          0.574058          1.321817
 Vib (V=0)   12  0.340982D+01          0.532732          1.226660
 Vib (V=0)   13  0.312439D+01          0.494765          1.139238
 Vib (V=0)   14  0.309626D+01          0.490838          1.130196
 Vib (V=0)   15  0.284170D+01          0.453578          1.044403
 Vib (V=0)   16  0.214908D+01          0.332252          0.765038
 Electronic      0.100000D+01          0.000000          0.000000
 Translational   0.173970D+08          7.240474         16.671808
 Rotational      0.254660D+05          4.405960         10.145098
                           ----------------------------
                           ! Normal Mode     1        !
 --------------------------                            --------------------------
 ! Name  Definition              Value          Relative Weight (%)             !
 --------------------------------------------------------------------------------
 ! R1    R(1,2)                  0.1126                  1.8                    !
 ! R2    R(1,3)                  0.0971                  1.6                    !
 ! R3    R(1,4)                  0.1135                  1.8                    !
 ! R4    R(1,5)                 -0.0491                  0.8                    !
 ! R5    R(5,6)                  0.3401                  5.4                    !
 ! R6    R(5,7)                  0.2851                  4.6                    !
 ! R8    R(8,9)                 -0.2576                  4.1                    !
 ! R9    R(8,10)                -0.2658                  4.2                    !
 ! R10   R(8,11)                 0.0562                  0.9                    !
 ! R11   R(11,12)               -0.1202                  1.9                    !
 ! R12   R(11,13)               -0.1536                  2.5                    !
 ! R13   R(11,14)               -0.1143                  1.8                    !
 ! A1    A(2,1,3)               -0.1026                  1.6                    !
 ! A2    A(2,1,4)               -0.1413                  2.3                    !
 ! A3    A(2,1,5)                0.0724                  1.2                    !
 ! A5    A(3,1,5)                0.0906                  1.4                    !
 ! A6    A(4,1,5)                0.0937                  1.5                    !
 ! A7    A(1,5,6)               -0.1812                  2.9                    !
 ! A8    A(1,5,7)               -0.1591                  2.5                    !
 ! A10   A(6,5,7)                0.0493                  0.8                    !
 ! A11   A(6,5,8)                0.1594                  2.5                    !
 ! A12   A(7,5,8)                0.1529                  2.4                    !
 ! A13   A(5,8,9)               -0.1329                  2.1                    !
 ! A14   A(5,8,10)              -0.1334                  2.1                    !
 ! A17   A(9,8,11)               0.131                   2.1                    !
 ! A18   A(10,8,11)              0.1352                  2.2                    !
 ! A19   A(8,11,12)             -0.1086                  1.7                    !
 ! A20   A(8,11,13)             -0.0494                  0.8                    !
 ! A21   A(8,11,14)             -0.1105                  1.8                    !
 ! A22   A(12,11,13)             0.1445                  2.3                    !
 ! A24   A(13,11,14)             0.14                    2.2                    !
 ! D1    D(2,1,5,6)             -0.0421                  0.7                    !
 ! D2    D(2,1,5,7)              0.0908                  1.4                    !
 ! D5    D(3,1,5,7)              0.1104                  1.8                    !
 ! D6    D(3,1,5,8)              0.0401                  0.6                    !
 ! D7    D(4,1,5,6)             -0.1089                  1.7                    !
 ! D9    D(4,1,5,8)             -0.0464                  0.7                    !
 ! D10   D(1,5,8,9)              0.0827                  1.3                    !
 ! D11   D(1,5,8,10)            -0.0875                  1.4                    !
 ! D13   D(6,5,8,9)             -0.044                   0.7                    !
 ! D14   D(6,5,8,10)            -0.2142                  3.4                    !
 ! D15   D(6,5,8,11)            -0.1266                  2.0                    !
 ! D16   D(7,5,8,9)              0.1858                  3.0                    !
 ! D18   D(7,5,8,11)             0.1032                  1.6                    !
 ! D19   D(5,8,11,12)           -0.0742                  1.2                    !
 ! D21   D(5,8,11,14)            0.0712                  1.1                    !
 ! D23   D(9,8,11,13)            0.0661                  1.1                    !
 ! D24   D(9,8,11,14)            0.1353                  2.2                    !
 ! D25   D(10,8,11,12)          -0.1359                  2.2                    !
 ! D26   D(10,8,11,13)          -0.0596                  1.0                    !
 --------------------------------------------------------------------------------
                           ----------------------------
                           ! Normal Mode     2        !
 --------------------------                            --------------------------
 ! Name  Definition              Value          Relative Weight (%)             !
 --------------------------------------------------------------------------------
 ! R1    R(1,2)                  0.2033                  2.7                    !
 ! R5    R(5,6)                 -0.2338                  3.1                    !
 ! R6    R(5,7)                 -0.1502                  2.0                    !
 ! R8    R(8,9)                 -0.2411                  3.2                    !
 ! R9    R(8,10)                -0.2285                  3.0                    !
 ! R12   R(11,13)                0.1567                  2.1                    !
 ! A1    A(2,1,3)               -0.1584                  2.1                    !
 ! A2    A(2,1,4)               -0.1129                  1.5                    !
 ! A3    A(2,1,5)               -0.095                   1.3                    !
 ! A4    A(3,1,4)                0.1883                  2.5                    !
 ! A6    A(4,1,5)                0.096                   1.3                    !
 ! A7    A(1,5,6)                0.1663                  2.2                    !
 ! A8    A(1,5,7)                0.1591                  2.1                    !
 ! A10   A(6,5,7)               -0.1135                  1.5                    !
 ! A11   A(6,5,8)               -0.1042                  1.4                    !
 ! A12   A(7,5,8)               -0.1062                  1.4                    !
 ! A13   A(5,8,9)               -0.1327                  1.7                    !
 ! A14   A(5,8,10)              -0.1395                  1.8                    !
 ! A16   A(9,8,10)              -0.1451                  1.9                    !
 ! A17   A(9,8,11)               0.2078                  2.7                    !
 ! A18   A(10,8,11)              0.2038                  2.7                    !
 ! A22   A(12,11,13)            -0.1096                  1.4                    !
 ! A23   A(12,11,14)             0.1725                  2.3                    !
 ! A24   A(13,11,14)            -0.1068                  1.4                    !
 ! D4    D(3,1,5,6)              0.2054                  2.7                    !
 ! D5    D(3,1,5,7)              0.1581                  2.1                    !
 ! D6    D(3,1,5,8)              0.1856                  2.4                    !
 ! D7    D(4,1,5,6)             -0.1489                  2.0                    !
 ! D8    D(4,1,5,7)             -0.1962                  2.6                    !
 ! D9    D(4,1,5,8)             -0.1686                  2.2                    !
 ! D10   D(1,5,8,9)              0.1653                  2.2                    !
 ! D11   D(1,5,8,10)            -0.1566                  2.1                    !
 ! D13   D(6,5,8,9)              0.296                   3.9                    !
 ! D15   D(6,5,8,11)             0.1299                  1.7                    !
 ! D17   D(7,5,8,10)            -0.2766                  3.6                    !
 ! D18   D(7,5,8,11)            -0.1207                  1.6                    !
 ! D19   D(5,8,11,12)            0.1544                  2.0                    !
 ! D21   D(5,8,11,14)           -0.1513                  2.0                    !
 ! D22   D(9,8,11,12)            0.1775                  2.3                    !
 ! D24   D(9,8,11,14)           -0.1282                  1.7                    !
 ! D25   D(10,8,11,12)           0.1195                  1.6                    !
 ! D27   D(10,8,11,14)          -0.1862                  2.5                    !
 --------------------------------------------------------------------------------
                           ----------------------------
                           ! Normal Mode     3        !
 --------------------------                            --------------------------
 ! Name  Definition              Value          Relative Weight (%)             !
 --------------------------------------------------------------------------------
 ! R2    R(1,3)                  0.098                   1.6                    !
 ! R3    R(1,4)                 -0.067                   1.1                    !
 ! R5    R(5,6)                 -0.3394                  5.4                    !
 ! R6    R(5,7)                  0.3439                  5.5                    !
 ! R8    R(8,9)                 -0.2082                  3.3                    !
 ! R9    R(8,10)                 0.2148                  3.4                    !
 ! R11   R(11,12)                0.0442                  0.7                    !
 ! R13   R(11,14)               -0.0569                  0.9                    !
 ! A1    A(2,1,3)               -0.1845                  2.9                    !
 ! A2    A(2,1,4)                0.1758                  2.8                    !
 ! A5    A(3,1,5)               -0.0606                  1.0                    !
 ! A6    A(4,1,5)                0.054                   0.9                    !
 ! A7    A(1,5,6)                0.1671                  2.7                    !
 ! A8    A(1,5,7)               -0.2067                  3.3                    !
 ! A11   A(6,5,8)               -0.0565                  0.9                    !
 ! A12   A(7,5,8)                0.1013                  1.6                    !
 ! A17   A(9,8,11)               0.095                   1.5                    !
 ! A18   A(10,8,11)             -0.108                   1.7                    !
 ! A22   A(12,11,13)            -0.0824                  1.3                    !
 ! A24   A(13,11,14)             0.1213                  1.9                    !
 ! D1    D(2,1,5,6)             -0.2401                  3.8                    !
 ! D2    D(2,1,5,7)             -0.2117                  3.4                    !
 ! D3    D(2,1,5,8)             -0.1907                  3.0                    !
 ! D5    D(3,1,5,7)              0.0501                  0.8                    !
 ! D6    D(3,1,5,8)              0.0711                  1.1                    !
 ! D8    D(4,1,5,7)              0.0623                  1.0                    !
 ! D9    D(4,1,5,8)              0.0833                  1.3                    !
 ! D10   D(1,5,8,9)              0.1147                  1.8                    !
 ! D11   D(1,5,8,10)             0.1276                  2.0                    !
 ! D13   D(6,5,8,9)              0.2883                  4.6                    !
 ! D14   D(6,5,8,10)             0.3011                  4.8                    !
 ! D15   D(6,5,8,11)             0.1712                  2.7                    !
 ! D16   D(7,5,8,9)              0.3067                  4.9                    !
 ! D17   D(7,5,8,10)             0.3195                  5.1                    !
 ! D18   D(7,5,8,11)             0.1897                  3.0                    !
 ! D20   D(5,8,11,13)           -0.0882                  1.4                    !
 ! D21   D(5,8,11,14)            0.0721                  1.1                    !
 ! D23   D(9,8,11,13)           -0.1479                  2.3                    !
 ! D26   D(10,8,11,13)          -0.152                   2.4                    !
 --------------------------------------------------------------------------------
                           ----------------------------
                           ! Normal Mode     4        !
 --------------------------                            --------------------------
 ! Name  Definition              Value          Relative Weight (%)             !
 --------------------------------------------------------------------------------
 ! R5    R(5,6)                  0.1696                  2.7                    !
 ! R6    R(5,7)                 -0.1496                  2.4                    !
 ! R8    R(8,9)                 -0.3192                  5.2                    !
 ! R9    R(8,10)                 0.3134                  5.1                    !
 ! R11   R(11,12)                0.101                   1.6                    !
 ! R13   R(11,14)               -0.0984                  1.6                    !
 ! A1    A(2,1,3)                0.1036                  1.7                    !
 ! A2    A(2,1,4)               -0.113                   1.8                    !
 ! A7    A(1,5,6)               -0.1135                  1.8                    !
 ! A8    A(1,5,7)                0.1309                  2.1                    !
 ! A11   A(6,5,8)                0.1185                  1.9                    !
 ! A12   A(7,5,8)               -0.1377                  2.2                    !
 ! A13   A(5,8,9)               -0.1584                  2.6                    !
 ! A14   A(5,8,10)               0.158                   2.6                    !
 ! A17   A(9,8,11)               0.2129                  3.5                    !
 ! A18   A(10,8,11)             -0.2084                  3.4                    !
 ! A19   A(8,11,12)             -0.0847                  1.4                    !
 ! A21   A(8,11,14)              0.0977                  1.6                    !
 ! A22   A(12,11,13)            -0.1856                  3.0                    !
 ! A24   A(13,11,14)             0.1688                  2.7                    !
 ! D1    D(2,1,5,6)              0.0916                  1.5                    !
 ! D2    D(2,1,5,7)              0.0794                  1.3                    !
 ! D3    D(2,1,5,8)              0.1611                  2.6                    !
 ! D4    D(3,1,5,6)             -0.0869                  1.4                    !
 ! D5    D(3,1,5,7)             -0.099                   1.6                    !
 ! D7    D(4,1,5,6)             -0.0952                  1.5                    !
 ! D8    D(4,1,5,7)             -0.1074                  1.7                    !
 ! D10   D(1,5,8,9)              0.1573                  2.5                    !
 ! D11   D(1,5,8,10)             0.1526                  2.5                    !
 ! D13   D(6,5,8,9)              0.0978                  1.6                    !
 ! D14   D(6,5,8,10)             0.0931                  1.5                    !
 ! D16   D(7,5,8,9)              0.0896                  1.5                    !
 ! D17   D(7,5,8,10)             0.0849                  1.4                    !
 ! D20   D(5,8,11,13)           -0.2234                  3.6                    !
 ! D22   D(9,8,11,12)            0.1202                  1.9                    !
 ! D23   D(9,8,11,13)           -0.1747                  2.8                    !
 ! D24   D(9,8,11,14)            0.1048                  1.7                    !
 ! D25   D(10,8,11,12)           0.1221                  2.0                    !
 ! D26   D(10,8,11,13)          -0.1728                  2.8                    !
 ! D27   D(10,8,11,14)           0.1067                  1.7                    !
 --------------------------------------------------------------------------------
                           ----------------------------
                           ! Normal Mode     5        !
 --------------------------                            --------------------------
 ! Name  Definition              Value          Relative Weight (%)             !
 --------------------------------------------------------------------------------
 ! R1    R(1,2)                  0.3211                  4.9                    !
 ! R12   R(11,13)               -0.2409                  3.7                    !
 ! A3    A(2,1,5)               -0.1587                  2.4                    !
 ! A5    A(3,1,5)                0.0723                  1.1                    !
 ! A7    A(1,5,6)               -0.0499                  0.8                    !
 ! A8    A(1,5,7)               -0.0667                  1.0                    !
 ! A10   A(6,5,7)                0.4002                  6.1                    !
 ! A11   A(6,5,8)               -0.1437                  2.2                    !
 ! A12   A(7,5,8)               -0.1115                  1.7                    !
 ! A13   A(5,8,9)                0.0902                  1.4                    !
 ! A14   A(5,8,10)               0.1152                  1.7                    !
 ! A16   A(9,8,10)              -0.3167                  4.8                    !
 ! A17   A(9,8,11)               0.05                    0.8                    !
 ! A20   A(8,11,13)              0.115                   1.7                    !
 ! A23   A(12,11,14)            -0.1095                  1.7                    !
 ! D1    D(2,1,5,6)              0.2247                  3.4                    !
 ! D2    D(2,1,5,7)             -0.1904                  2.9                    !
 ! D4    D(3,1,5,6)              0.2783                  4.2                    !
 ! D5    D(3,1,5,7)             -0.1368                  2.1                    !
 ! D6    D(3,1,5,8)              0.0562                  0.9                    !
 ! D7    D(4,1,5,6)              0.1629                  2.5                    !
 ! D8    D(4,1,5,7)             -0.2522                  3.8                    !
 ! D9    D(4,1,5,8)             -0.0592                  0.9                    !
 ! D10   D(1,5,8,9)              0.1344                  2.0                    !
 ! D11   D(1,5,8,10)            -0.1305                  2.0                    !
 ! D14   D(6,5,8,10)            -0.2999                  4.6                    !
 ! D15   D(6,5,8,11)            -0.167                   2.5                    !
 ! D16   D(7,5,8,9)              0.302                   4.6                    !
 ! D18   D(7,5,8,11)             0.1701                  2.6                    !
 ! D19   D(5,8,11,12)           -0.0886                  1.3                    !
 ! D21   D(5,8,11,14)            0.0902                  1.4                    !
 ! D22   D(9,8,11,12)           -0.2432                  3.7                    !
 ! D23   D(9,8,11,13)           -0.16                    2.4                    !
 ! D24   D(9,8,11,14)           -0.0644                  1.0                    !
 ! D25   D(10,8,11,12)           0.0885                  1.3                    !
 ! D26   D(10,8,11,13)           0.1717                  2.6                    !
 ! D27   D(10,8,11,14)           0.2673                  4.1                    !
 --------------------------------------------------------------------------------
                           ----------------------------
                           ! Normal Mode     6        !
 --------------------------                            --------------------------
 ! Name  Definition              Value          Relative Weight (%)             !
 --------------------------------------------------------------------------------
 ! R1    R(1,2)                 -0.1159                  1.7                    !
 ! R2    R(1,3)                  0.26                    3.9                    !
 ! R3    R(1,4)                  0.2651                  3.9                    !
 ! R5    R(5,6)                 -0.2133                  3.2                    !
 ! R6    R(5,7)                 -0.2286                  3.4                    !
 ! R8    R(8,9)                 -0.1479                  2.2                    !
 ! R9    R(8,10)                -0.1836                  2.7                    !
 ! R11   R(11,12)                0.2385                  3.5                    !
 ! R12   R(11,13)               -0.2454                  3.6                    !
 ! R13   R(11,14)                0.2                     3.0                    !
 ! A1    A(2,1,3)               -0.0513                  0.8                    !
 ! A2    A(2,1,4)               -0.0781                  1.2                    !
 ! A3    A(2,1,5)                0.1529                  2.3                    !
 ! A4    A(3,1,4)                0.1113                  1.7                    !
 ! A5    A(3,1,5)               -0.0698                  1.0                    !
 ! A6    A(4,1,5)               -0.0662                  1.0                    !
 ! A10   A(6,5,7)               -0.2089                  3.1                    !
 ! A11   A(6,5,8)                0.1315                  2.0                    !
 ! A12   A(7,5,8)                0.0869                  1.3                    !
 ! A13   A(5,8,9)                0.1242                  1.8                    !
 ! A14   A(5,8,10)               0.1284                  1.9                    !
 ! A16   A(9,8,10)              -0.2814                  4.2                    !
 ! A19   A(8,11,12)             -0.1008                  1.5                    !
 ! A20   A(8,11,13)              0.1656                  2.5                    !
 ! A21   A(8,11,14)             -0.0778                  1.2                    !
 ! A23   A(12,11,14)             0.0738                  1.1                    !
 ! D1    D(2,1,5,6)             -0.1455                  2.2                    !
 ! D2    D(2,1,5,7)              0.118                   1.8                    !
 ! D4    D(3,1,5,6)             -0.1364                  2.0                    !
 ! D5    D(3,1,5,7)              0.1272                  1.9                    !
 ! D7    D(4,1,5,6)             -0.1863                  2.8                    !
 ! D8    D(4,1,5,7)              0.0773                  1.1                    !
 ! D10   D(1,5,8,9)              0.0862                  1.3                    !
 ! D11   D(1,5,8,10)            -0.1107                  1.6                    !
 ! D13   D(6,5,8,9)              0.16                    2.4                    !
 ! D15   D(6,5,8,11)             0.072                   1.1                    !
 ! D17   D(7,5,8,10)            -0.1663                  2.5                    !
 ! D18   D(7,5,8,11)            -0.0573                  0.9                    !
 ! D22   D(9,8,11,12)           -0.1706                  2.5                    !
 ! D23   D(9,8,11,13)           -0.1558                  2.3                    !
 ! D24   D(9,8,11,14)           -0.1446                  2.1                    !
 ! D25   D(10,8,11,12)           0.1606                  2.4                    !
 ! D26   D(10,8,11,13)           0.1754                  2.6                    !
 ! D27   D(10,8,11,14)           0.1866                  2.8                    !
 --------------------------------------------------------------------------------
                           ----------------------------
                           ! Normal Mode     7        !
 --------------------------                            --------------------------
 ! Name  Definition              Value          Relative Weight (%)             !
 --------------------------------------------------------------------------------
 ! R1    R(1,2)                 -0.4485                  7.4                    !
 ! R2    R(1,3)                 -0.112                   1.8                    !
 ! R3    R(1,4)                 -0.2778                  4.6                    !
 ! R5    R(5,6)                  0.354                   5.8                    !
 ! R6    R(5,7)                  0.2713                  4.5                    !
 ! R8    R(8,9)                 -0.3333                  5.5                    !
 ! R9    R(8,10)                -0.2274                  3.8                    !
 ! R11   R(11,12)                0.1178                  1.9                    !
 ! R12   R(11,13)                0.2397                  4.0                    !
 ! R13   R(11,14)                0.1972                  3.3                    !
 ! A1    A(2,1,3)                0.0605                  1.0                    !
 ! A2    A(2,1,4)                0.066                   1.1                    !
 ! A4    A(3,1,4)                0.0496                  0.8                    !
 ! A5    A(3,1,5)               -0.1043                  1.7                    !
 ! A10   A(6,5,7)                0.102                   1.7                    !
 ! A11   A(6,5,8)               -0.0903                  1.5                    !
 ! A12   A(7,5,8)               -0.0581                  1.0                    !
[...]
   R11        2.06398   0.00014   0.00000   0.01849   0.01849   2.08247
   R12        2.06182   0.00018   0.00000   0.02442   0.02442   2.08624
   R13        2.06398   0.00014   0.00000   0.01849   0.01849   2.08247
    A1        1.87879  -0.00024   0.00000  -0.02752  -0.02782   1.85097
    A2        1.87879  -0.00024   0.00000  -0.02739  -0.02769   1.85110
    A3        1.94646   0.00033   0.00000   0.03165   0.03131   1.97777
    A4        1.87608  -0.00019   0.00000  -0.02356  -0.02373   1.85235
    A5        1.94028   0.00017   0.00000   0.02103   0.02076   1.96104
    A6        1.94028   0.00014   0.00000   0.02101   0.02075   1.96103
    A7        1.91120   0.00054   0.00000   0.06242   0.06142   1.97262
    A8        1.91120   0.00050   0.00000   0.06307   0.06207   1.97327
    A9        1.97867  -0.00109   0.00000  -0.13300  -0.13144   1.84723
   A10        1.84959  -0.00030   0.00000  -0.03739  -0.03978   1.80981
   A11        1.90436   0.00018   0.00000   0.02556   0.02733   1.93169
   A12        1.90436   0.00021   0.00000   0.02526   0.02706   1.93142
   A13        1.90436   0.00020   0.00000   0.02499   0.02679   1.93115
   A14        1.90436   0.00020   0.00000   0.02497   0.02676   1.93112
   A15        1.97867  -0.00107   0.00000  -0.13233  -0.13077   1.84789
   A16        1.84959  -0.00029   0.00000  -0.03743  -0.03981   1.80978
   A17        1.91120   0.00050   0.00000   0.06282   0.06181   1.97301
   A18        1.91120   0.00050   0.00000   0.06285   0.06183   1.97303
   A19        1.94028   0.00016   0.00000   0.02125   0.02098   1.96126
   A20        1.94646   0.00028   0.00000   0.03177   0.03142   1.97788
   A21        1.94028   0.00016   0.00000   0.02128   0.02102   1.96129
   A22        1.87879  -0.00022   0.00000  -0.02756  -0.02788   1.85092
   A23        1.87608  -0.00019   0.00000  -0.02397  -0.02413   1.85194
   A24        1.87879  -0.00022   0.00000  -0.02759  -0.02790   1.85089
    D1        1.01051   0.00013   0.00000   0.01292   0.01411   1.02462
    D2       -1.01051  -0.00011   0.00000  -0.01300  -0.01420  -1.02471
    D3        3.14159   0.00001   0.00000  -0.00008  -0.00007   3.14153
    D4       -1.08641   0.00010   0.00000   0.01214   0.01329  -1.07312
    D5       -3.10744  -0.00013   0.00000  -0.01378  -0.01501  -3.12245
    D6        1.04467  -0.00002   0.00000  -0.00086  -0.00088   1.04379
    D7        3.10744   0.00013   0.00000   0.01386   0.01508   3.12252
    D8        1.08641  -0.00010   0.00000  -0.01206  -0.01322   1.07319
    D9       -1.04467   0.00001   0.00000   0.00086   0.00091  -1.04376
   D10       -1.00671   0.00005   0.00000   0.00882   0.00903  -0.99768
   D11        1.00671  -0.00008   0.00000  -0.00842  -0.00862   0.99809
   D12        3.14159  -0.00001   0.00000   0.00020   0.00021  -3.14138
   D13        1.12818   0.00014   0.00000   0.01687   0.01727   1.14545
   D14        3.14159   0.00001   0.00000  -0.00037  -0.00038   3.14121
   D15       -1.00671   0.00008   0.00000   0.00826   0.00845  -0.99825
   D16       -3.14159  -0.00000   0.00000   0.00015   0.00016  -3.14144
   D17       -1.12818  -0.00013   0.00000  -0.01709  -0.01750  -1.14567
   D18        1.00671  -0.00007   0.00000  -0.00846  -0.00866   0.99804
   D19        1.04467  -0.00001   0.00000  -0.00095  -0.00099   1.04368
   D20        3.14159  -0.00000   0.00000   0.00000   0.00000  -3.14159
   D21       -1.04467   0.00001   0.00000   0.00095   0.00099  -1.04368
   D22       -1.08641   0.00010   0.00000   0.01203   0.01319  -1.07323
   D23        1.01051   0.00011   0.00000   0.01298   0.01418   1.02469
   D24        3.10744   0.00012   0.00000   0.01393   0.01517   3.12260
   D25       -3.10744  -0.00012   0.00000  -0.01395  -0.01518  -3.12261
   D26       -1.01051  -0.00011   0.00000  -0.01299  -0.01419  -1.02470
   D27        1.08641  -0.00010   0.00000  -0.01204  -0.01320   1.07322
         Item               Value     Threshold  Converged?
 Maximum Force            0.001086     0.000450     NO 
 RMS     Force            0.000305     0.000300     NO 
 Maximum Displacement     0.237255     0.001800     NO 
 RMS     Displacement     0.085986     0.001200     NO 
 Predicted change in Energy=-7.230546D-04
                           ----------------------------
                           ! Non-Optimized Parameters !
                           ! (Angstroms and Degrees)  !
 --------------------------                            --------------------------
 ! Name  Definition              Value          Derivative Info.                !
 --------------------------------------------------------------------------------
 ! R1    R(1,2)                  1.1041         -DE/DX =    0.0002              !
 ! R2    R(1,3)                  1.1019         -DE/DX =    0.0001              !
 ! R3    R(1,4)                  1.1017         -DE/DX =    0.0001              !
 ! R4    R(1,5)                  1.5447         -DE/DX =    0.0003              !
 ! R5    R(5,6)                  1.1176         -DE/DX =    0.0004              !
 ! R6    R(5,7)                  1.118          -DE/DX =    0.0003              !
 ! R7    R(5,8)                  1.4749         -DE/DX =   -0.0008              !
 ! R8    R(8,9)                  1.1179         -DE/DX =    0.0003              !
 ! R9    R(8,10)                 1.1179         -DE/DX =    0.0003              !
 ! R10   R(8,11)                 1.5452         -DE/DX =    0.0003              !
 ! R11   R(11,12)                1.102          -DE/DX =    0.0001              !
 ! R12   R(11,13)                1.104          -DE/DX =    0.0002              !
 ! R13   R(11,14)                1.102          -DE/DX =    0.0001              !
 ! A1    A(2,1,3)              106.0526         -DE/DX =   -0.0002              !
 ! A2    A(2,1,4)              106.06           -DE/DX =   -0.0002              !
 ! A3    A(2,1,5)              113.3176         -DE/DX =    0.0003              !
 ! A4    A(3,1,4)              106.1318         -DE/DX =   -0.0002              !
 ! A5    A(3,1,5)              112.3594         -DE/DX =    0.0002              !
 ! A6    A(4,1,5)              112.3587         -DE/DX =    0.0001              !
 ! A7    A(1,5,6)              113.0226         -DE/DX =    0.0005              !
 ! A8    A(1,5,7)              113.0598         -DE/DX =    0.0005              !
 ! A9    A(1,5,8)              105.8383         -DE/DX =   -0.0011              !
 ! A10   A(6,5,7)              103.6946         -DE/DX =   -0.0003              !
 ! A11   A(6,5,8)              110.6779         -DE/DX =    0.0002              !
 ! A12   A(7,5,8)              110.6623         -DE/DX =    0.0002              !
 ! A13   A(5,8,9)              110.6465         -DE/DX =    0.0002              !
 ! A14   A(5,8,10)             110.6453         -DE/DX =    0.0002              !
 ! A15   A(5,8,11)             105.8765         -DE/DX =   -0.0011              !
 ! A16   A(9,8,10)             103.6926         -DE/DX =   -0.0003              !
 ! A17   A(9,8,11)             113.0449         -DE/DX =    0.0005              !
 ! A18   A(10,8,11)            113.0462         -DE/DX =    0.0005              !
 ! A19   A(8,11,12)            112.3718         -DE/DX =    0.0002              !
 ! A20   A(8,11,13)            113.3244         -DE/DX =    0.0003              !
 ! A21   A(8,11,14)            112.3737         -DE/DX =    0.0002              !
 ! A22   A(12,11,13)           106.0496         -DE/DX =   -0.0002              !
 ! A23   A(12,11,14)           106.1084         -DE/DX =   -0.0002              !
 ! A24   A(13,11,14)           106.0483         -DE/DX =   -0.0002              !
 ! D1    D(2,1,5,6)             58.7064         -DE/DX =    0.0001              !
 ! D2    D(2,1,5,7)            -58.7114         -DE/DX =   -0.0001              !
 ! D3    D(2,1,5,8)            179.9962         -DE/DX =    0.0                 !
 ! D4    D(3,1,5,6)            -61.4853         -DE/DX =    0.0001              !
 ! D5    D(3,1,5,7)           -178.903          -DE/DX =   -0.0001              !
 ! D6    D(3,1,5,8)             59.8045         -DE/DX =    0.0                 !
 ! D7    D(4,1,5,6)            178.9073         -DE/DX =    0.0001              !
 ! D8    D(4,1,5,7)             61.4895         -DE/DX =   -0.0001              !
 ! D9    D(4,1,5,8)            -59.8029         -DE/DX =    0.0                 !
 ! D10   D(1,5,8,9)            -57.1627         -DE/DX =    0.0001              !
 ! D11   D(1,5,8,10)            57.1861         -DE/DX =   -0.0001              !
 ! D12   D(1,5,8,11)          -179.9879         -DE/DX =    0.0                 !
 ! D13   D(6,5,8,9)             65.6295         -DE/DX =    0.0001              !
 ! D14   D(6,5,8,10)           179.9782         -DE/DX =    0.0                 !
 ! D15   D(6,5,8,11)           -57.1957         -DE/DX =    0.0001              !
 ! D16   D(7,5,8,9)           -179.991          -DE/DX =    0.0                 !
 ! D17   D(7,5,8,10)           -65.6423         -DE/DX =   -0.0001              !
 ! D18   D(7,5,8,11)            57.1837         -DE/DX =   -0.0001              !
 ! D19   D(5,8,11,12)           59.7984         -DE/DX =    0.0                 !
 ! D20   D(5,8,11,13)         -179.9998         -DE/DX =    0.0                 !
 ! D21   D(5,8,11,14)          -59.7983         -DE/DX =    0.0                 !
 ! D22   D(9,8,11,12)          -61.4914         -DE/DX =    0.0001              !
 ! D23   D(9,8,11,13)           58.7104         -DE/DX =    0.0001              !
 ! D24   D(9,8,11,14)          178.912          -DE/DX =    0.0001              !
 ! D25   D(10,8,11,12)        -178.9126         -DE/DX =   -0.0001              !
 ! D26   D(10,8,11,13)         -58.7108         -DE/DX =   -0.0001              !
 ! D27   D(10,8,11,14)          61.4907         -DE/DX =   -0.0001              !
 --------------------------------------------------------------------------------
 GradGradGradGradGradGradGradGradGradGradGradGradGradGradGradGradGradGrad

 Leave Link  103 at Fri Mar 29 17:06:05 2024, MaxMem=   134217728 cpu:               0.0 elap:               0.0
 (Enter /home/emanuele/chem_software/gaussian//gdv/l9999.exe)
 Unable to Open any file for archive entry.
 1\1\GINC-EMANUELE-XPS-13-9343\Freq\AMBER\ZDO\C4H10\EMANUELE\29-Mar-202
 4\0\\#p Amber=(SoftOnly,Print) nosymm Freq=intmodes\\Title\\0,1\C,1.95
 6897,-0.120392,0.\H,2.742005,0.637259,0.\H,2.103753,-0.749379,-0.88076
 \H,2.103753,-0.749379,0.88076\C,0.566957,0.512915,0.\H,0.461751,1.1634
 03,-0.874026\H,0.461751,1.163403,0.874026\C,-0.566957,-0.512915,0.\H,-
 0.461751,-1.163403,-0.874026\H,-0.461751,-1.163403,0.874026\C,-1.95689
 7,0.120392,0.\H,-2.103753,0.749379,-0.88076\H,-2.742005,-0.637259,0.\H
 ,-2.103753,0.749379,0.88076\\Version=ES64L-GDVRevJ.14\HF=0.0039062\RMS
 D=0.000e+00\RMSF=2.722e-04\ZeroPoint=0.0018518\Thermal=0.0180466\ETot=
 0.0219528\HTot=0.022897\GTot=-0.0463772\Dipole=-0.0000029,0.0000024,0.
 000085\DipoleDeriv=-0.267532,0.,0.,0.,-0.267532,0.,0.,0.,-0.267532,0.0
 83821,0.,0.,0.,0.083821,0.,0.,0.,0.083821,0.077363,0.,0.,0.,0.077363,0
 .,0.,0.,0.077363,0.07736,0.,0.,0.,0.07736,0.,0.,0.,0.07736,-0.092257,0
 .,0.,0.,-0.092257,0.,0.,0.,-0.092257,0.060623,0.,0.,0.,0.060623,0.,0.,
 0.,0.060623,0.060622,0.,0.,0.,0.060622,0.,0.,0.,0.060622,-0.092258,0.,
 0.,0.,-0.092258,0.,0.,0.,-0.092258,0.060627,0.,0.,0.,0.060627,0.,0.,0.
 ,0.060627,0.060618,0.,0.,0.,0.060618,0.,0.,0.,0.060618,-0.267532,0.,0.
 ,0.,-0.267532,0.,0.,0.,-0.267532,0.07733,0.,0.,0.,0.07733,0.,0.,0.,0.0
 7733,0.083821,0.,0.,0.,0.083821,0.,0.,0.,0.083821,0.077394,0.,0.,0.,0.
 077394,0.,0.,0.,0.077394\PG=C02H [SGH(C4H2),X(H8)]\NImag=20\\-0.000149
 79,-0.00017422,0.00006347,0.,0.,0.00008633,0.,0.,0.,0.00024818,0.,0.,0
 .,-0.00007800,-0.00005459,0.,0.,0.,0.00006196,-0.00001430,-0.00002622,
 0.,0.,0.,0.,0.,0.,0.00004852,0.,0.,0.,0.,0.,0.,-0.00007704,0.00007520,
 0.,0.,0.,0.,0.,0.,-0.00000328,0.00001136,-0.00003977,0.,0.,0.,0.,0.,0.
 ,0.,0.,0.,0.00001166,0.,0.,0.,0.,0.,0.,0.,0.,0.,-0.00002960,0.00002381
 ,0.,0.,0.,0.,0.,0.,0.,0.,0.,0.00000163,-0.00000943,-0.00003750,0.,0.,0
 .,0.,0.,0.,0.,0.,0.,0.,0.,0.,-0.00016952,0.,0.,0.,0.,0.,0.,0.,0.,0.,0.
 ,0.,0.,-0.00000201,0.00009180,0.,0.,0.,0.,0.,0.,0.,0.,0.,0.,0.,0.,0.00
 000003,0.,0.00007772,0.,0.,0.,-0.00021315,0.00006052,-0.00010053,-0.00
 004627,0.00009941,0.00000035,0.00000329,0.00001833,-0.00001682,0.,0.,0
 .,0.00022269,0.,0.,0.,0.00006052,0.00003517,0.00002320,0.00009941,-0.0
 0007674,-0.00000041,0.00001833,-0.00000233,0.00001959,0.,0.,0.,-0.0001
 8664,0.00009339,0.,0.,0.,-0.00010053,0.00002320,0.00001060,0.00000035,
 -0.00000041,0.00003907,-0.00001682,0.00001959,0.00000106,0.,0.,0.,0.00
 014699,-0.00003955,-0.00006677,0.,0.,0.,-0.00006037,0.00002322,0.00003
 857,0.00000285,0.00001996,0.00001831,-0.00000986,0.00005360,-0.0000001
 9,0.,0.,0.,0.,0.,0.,0.00003398,0.,0.,0.,0.00002322,0.00003490,-0.00000
 890,0.00001996,-0.00000327,-0.00002133,0.00005360,-0.00002629,0.000000
 22,0.,0.,0.,0.,0.,0.,-0.00010514,0.00004413,0.,0.,0.,0.00003857,-0.000
 00890,0.00002547,0.00001831,-0.00002133,0.00000042,-0.00000019,0.00000
 022,0.00003615,0.,0.,0.,0.,0.,0.,-0.00008670,0.00002717,-0.00007811,0.
 ,0.,0.,0.00003724,0.00002067,0.,0.00006614,-0.00000933,-0.00003474,0.0
 0006614,-0.00000933,0.00003474,0.,0.,0.,0.,0.,0.,0.,0.,0.,-0.00016952,
 0.,0.,0.,0.00002067,-0.00001503,0.,-0.00000933,-0.00003839,0.00000308,
 -0.00000933,-0.00003839,-0.00000308,0.,0.,0.,0.,0.,0.,0.,0.,0.,-0.0000
 0201,0.00009180,0.,0.,0.,0.,0.,-0.00002221,-0.00003474,0.00000308,-0.0
 0002776,0.00003474,-0.00000308,-0.00002775,0.,0.,0.,0.,0.,0.,0.,0.,0.,
 0.,0.,0.00007772,0.00011983,0.00009208,0.00007717,-0.00001617,-0.00001
 694,-0.00000822,-0.00007619,-0.00001869,0.00000030,-0.00002273,-0.0000
 0731,-0.00003096,0.,0.,0.,0.00001712,-0.00002976,0.,0.00001157,-0.0000
 1103,-0.00000828,0.,0.,0.,0.00003395,0.00009208,-0.00005400,0.00003328
 ,-0.00001694,0.00000445,-0.00000462,-0.00001869,0.00003659,0.00000005,
 -0.00000731,0.00002136,-0.00000500,0.,0.,0.,-0.00002976,-0.00004605,0.
 ,-0.00001103,-0.00001183,-0.00002087,0.,0.,0.,-0.00010514,0.00004413,0
 .00007717,0.00003328,-0.00006583,-0.00000822,-0.00000462,0.00001173,0.
 00000030,0.00000005,0.00003960,-0.00003096,-0.00000500,0.00000136,0.,0
 .,0.,0.,0.,0.00002893,-0.00000828,-0.00002087,0.00000027,0.,0.,0.,-0.0
 0008670,0.00002719,-0.00007809,0.00011981,0.00009207,-0.00007715,-0.00
 001617,-0.00001694,0.00000822,-0.00002272,-0.00000730,0.00003096,-0.00
 007618,-0.00001868,-0.00000030,0.,0.,0.,0.00001157,-0.00001102,0.00000
 828,0.00001712,-0.00002975,0.,0.,0.,0.,0.,0.,0.,0.00003396,0.00009207,
 -0.00005399,-0.00003327,-0.00001694,0.00000445,0.00000462,-0.00000730,
 0.00002136,0.00000500,-0.00001868,0.00003658,-0.00000005,0.,0.,0.,-0.0
 0001102,-0.00001183,0.00002087,-0.00002975,-0.00004604,0.,0.,0.,0.,0.,
 0.,0.,-0.00010515,0.00004415,-0.00007715,-0.00003327,-0.00006582,0.000
 00822,0.00000462,0.00001172,0.00003096,0.00000500,0.00000136,-0.000000
 30,-0.00000005,0.00003960,0.,0.,0.,0.00000828,0.00002087,0.00000027,0.
 ,0.,0.00002893,0.,0.,0.,0.,0.,0.,0.00008667,-0.00002716,-0.00007810,-0
 .00029153,0.00002695,0.,0.00006178,0.00001026,0.,0.00006995,-0.0000235
 7,-0.00002387,0.00006995,-0.00002357,0.00002387,0.,0.,0.,0.00011982,0.
 00009208,-0.00007716,0.00011982,0.00009208,0.00007716,0.,0.,0.,0.,0.,0
 .,0.,0.,0.,-0.00014979,0.00002695,0.00014494,0.,0.00001026,-0.00003033
 ,0.,-0.00002357,-0.00003504,0.00000511,-0.00002357,-0.00003504,-0.0000
 0511,0.,0.,0.,0.00009208,-0.00005400,-0.00003327,0.00009208,-0.0000540
 0,0.00003327,0.,0.,0.,0.,0.,0.,0.,0.,0.,-0.00017422,0.00006347,0.,0.,0
 .00014659,0.,0.,-0.00003146,-0.00002387,0.00000511,-0.00003491,0.00002
 387,-0.00000511,-0.00003491,0.,0.,0.,-0.00007716,-0.00003327,-0.000065
 82,0.00007716,0.00003327,-0.00006582,0.,0.,0.,0.,0.,0.,0.,0.,0.,0.,0.,
 0.00008633,0.00006992,-0.00002356,0.00002386,-0.00001528,0.00000054,-0
 .00000424,-0.00001654,0.00000943,0.,-0.00001044,0.00000657,-0.00000773
 ,0.00006611,-0.00000932,0.00003473,-0.00007615,-0.00001868,-0.00000030
 ,-0.00002272,-0.00000730,-0.00003095,0.,0.,0.,-0.00000986,0.00005358,-
 0.00000019,0.00000285,0.00001995,-0.00001830,0.,0.,0.,0.00001210,-0.00
 002356,-0.00003503,-0.00000511,0.00000054,0.00000802,0.00000010,0.0000
 0943,0.00000659,0.,0.00000657,0.00000567,0.00000275,-0.00000932,-0.000
 03837,-0.00000307,-0.00001868,0.00003657,-0.00000005,-0.00000730,0.000
 02135,-0.00000499,0.,0.,0.,0.00005358,-0.00002628,0.00000022,0.0000199
 5,-0.00000327,0.00002132,0.,0.,0.,-0.00003122,0.00002474,0.00002386,-0
 .00000511,-0.00003490,-0.00000424,0.00000010,0.00000726,0.,0.,0.000009
 95,-0.00000773,0.00000275,0.00000478,0.00003473,-0.00000307,-0.0000277
 4,-0.00000030,-0.00000005,0.00003958,-0.00003095,-0.00000499,0.0000013
 6,0.,0.,0.,-0.00000019,0.00000022,0.00003614,-0.00001830,0.00002132,0.
 00000042,0.,0.,0.,0.00000312,-0.00001116,-0.00003685,0.00006178,0.0000
 1026,0.,-0.00001077,-0.00000386,0.,-0.00001529,0.00000054,0.00000424,-
 0.00001529,0.00000054,-0.00000424,0.00003724,0.00002067,0.,-0.00001617
 ,-0.00001694,0.00000822,-0.00001617,-0.00001694,-0.00000822,0.,0.,0.,-
 0.00006037,0.00002322,0.00003857,-0.00006036,0.00002322,-0.00003856,0.
 ,0.,0.,0.,0.,0.,0.00009540,0.00001026,-0.00003033,0.,-0.00000386,0.000
 00494,0.,0.00000054,0.00000802,-0.00000010,0.00000054,0.00000802,0.000
 00010,0.00002067,-0.00001503,0.,-0.00001694,0.00000445,0.00000462,-0.0
 0001694,0.00000445,-0.00000462,0.,0.,0.,0.00002322,0.00003490,-0.00000
 890,0.00002322,0.00003489,0.00000890,0.,0.,0.,0.,0.,0.,-0.00004070,-0.
 00005431,0.,0.,-0.00003146,0.,0.,0.00000583,0.00000424,-0.00000010,0.0
 0000727,-0.00000424,0.00000010,0.00000727,0.,0.,-0.00002221,0.00000822
 ,0.00000462,0.00001172,-0.00000822,-0.00000462,0.00001172,0.,0.,0.,0.0
 0003857,-0.00000890,0.00002547,-0.00003856,0.00000890,0.00002547,0.,0.
 ,0.,0.,0.,0.,0.,0.,-0.00004109,0.00006998,-0.00002358,-0.00002388,-0.0
 0001530,0.00000054,0.00000424,-0.00001045,0.00000658,0.00000773,-0.000
 01655,0.00000944,0.,0.00006617,-0.00000933,-0.00003476,-0.00002273,-0.
 00000731,0.00003097,-0.00007621,-0.00001869,0.00000030,0.,0.,0.,0.0000
 0285,0.00001997,0.00001832,-0.00000986,0.00005362,0.00000019,0.,0.,0.,
 0.,0.,0.,0.,0.,0.,0.00001211,-0.00002358,-0.00003506,0.00000511,0.0000
 0054,0.00000803,-0.00000010,0.00000658,0.00000567,-0.00000275,0.000009
 44,0.00000659,0.,-0.00000933,-0.00003840,0.00000308,-0.00000731,0.0000
 2137,0.00000500,-0.00001869,0.00003660,0.00000005,0.,0.,0.,0.00001997,
 -0.00000327,-0.00002134,0.00005362,-0.00002630,-0.00000022,0.,0.,0.,0.
 ,0.,0.,0.,0.,0.,-0.00003124,0.00002476,-0.00002388,0.00000511,-0.00003
 493,0.00000424,-0.00000010,0.00000727,0.00000773,-0.00000275,0.0000047
 8,0.,0.,0.00000996,-0.00003476,0.00000308,-0.00002777,0.00003097,0.000
 00500,0.00000136,0.00000030,0.00000005,0.00003962,0.,0.,0.,0.00001832,
 -0.00002134,0.00000042,0.00000019,-0.00000022,0.00003616,0.,0.,0.,0.,0
 .,0.,0.,0.,0.,-0.00000313,0.00001117,-0.00003687\\0.00066692,0.0003350
 2,-0.00000003,-0.00034373,0.00006217,-0.00001466,-0.00019541,0.0001340
 0,0.00005009,-0.00018340,0.00012002,-0.00004687,0.00053470,0.00001323,
 -0.00000005,0.00035617,-0.00036761,0.00013900,0.00031175,-0.00035169,-
 0.00012749,-0.00053470,-0.00001323,0.,-0.00031179,0.00035170,0.0001275
 5,-0.00031178,0.00035169,-0.00012748,-0.00066692,-0.00033502,0.,0.0001
 8629,-0.00012342,0.00005002,0.00030547,-0.00005334,-0.00000001,0.00018
 644,-0.00012351,-0.00005007\\\@
 The archive entry for this job was punched.


 SCIENCE AT ITS BEST PROVIDES US WITH BETTER QUESTIONS, 
 NOT ABSOLUTE ANSWERS

                                    -- NORMAN COUSINS, 1976
 Job cpu time:       0 days  0 hours  0 minutes  0.6 seconds.
 Elapsed time:       0 days  0 hours  0 minutes  0.5 seconds.
 File lengths (MBytes):  RWF=      6 Int=      0 D2E=      0 Chk=      1 Scr=      1
 Normal termination of Gaussian DV at Fri Mar 29 17:06:05 2024.
