Title Card Required                                                     
Freq      RB3LYP                                                      def2TZVPP           
Number of atoms                            I                4
Info1-9                                    I   N=           9
          17          17        1000           0           0         100
           6          18        -502
Full Title                                 C   N=           2
Title Card Required     
Route                                      C   N=           8
#p opt=(calcall,tight,maxstep=7,maxcycles=100) freq b3lyp ge
om=connectivity def2tzvpp           
Charge                                     I                0
Multiplicity                               I                1
Number of electrons                        I               18
Number of alpha electrons                  I                9
Number of beta electrons                   I                9
Number of basis functions                  I               90
Number of independent functions            I               90
Number of point charges in /Mol/           I                0
Number of translation vectors              I                0
Atomic numbers                             I   N=           4
           8           1           8           1
Nuclear charges                            R   N=           4
  8.00000000E+00  1.00000000E+00  8.00000000E+00  1.00000000E+00
Current cartesian coordinates              R   N=          12
  6.90253292E-31  1.37763400E+00 -1.95003569E-01  9.86076132E-32  1.85958843E+00
  1.56002855E+00 -1.68711507E-16 -1.37763400E+00 -1.95003569E-01 -2.27733902E-16
 -1.85958843E+00  1.56002855E+00
Number of symbols in /Mol/                 I                0
Int Atom Types                             I   N=           4
    20001021    20001030    20001021    20001030
Force Field                                I                2
Atom Types                                 C   N=           4
AMB-OW      AMB-HW      AMB-OW      AMB-HW      
MM charges                                 R   N=           4
  0.00000000E+00  0.00000000E+00  0.00000000E+00  0.00000000E+00
Integer atomic weights                     I   N=           4
          16           1          16           1
Real atomic weights                        R   N=           4
  1.59949146E+01  1.00782504E+00  1.59949146E+01  1.00782504E+00
Atom fragment info                         I   N=           4
           0           0           0           0
Atom residue num                           I   N=           4
           0           0           0           0
Nuclear spins                              I   N=           4
           0           1           0           1
Nuclear ZEff                               R   N=           4
 -5.60000000E+00 -1.00000000E+00 -5.60000000E+00 -1.00000000E+00
Nuclear ZNuc                               R   N=           4
  8.00000000E+00  1.00000000E+00  8.00000000E+00  1.00000000E+00
Nuclear QMom                               R   N=           4
  0.00000000E+00  0.00000000E+00  0.00000000E+00  0.00000000E+00
Nuclear GFac                               R   N=           4
  0.00000000E+00  2.79284600E+00  0.00000000E+00  2.79284600E+00
MicOpt                                     I   N=           4
          -1          -1          -1          -1
Number of residues                         I                0
Number of secondary structures             I                0
Redundant internal dimensions              I   N=           4
           6           3           2           1
Redundant internal coordinate indices      I   N=          24
           1           2           0           0           1           3
           0           0           3           4           0           0
           2           1           3           0           1           3
           4           0           2           1           3           4
Redundant internal coordinates             R   N=           6
  1.82000489E+00  2.75526800E+00  1.82000489E+00  1.83880260E+00  1.83880260E+00
 -0.00000000E+00
ZRed-IntVec                                I   N=           6
           0           0           0           0           0           0
ZRed-FPVec                                 R   N=           6
  0.00000000E+00  0.00000000E+00  0.00000000E+00  0.00000000E+00  0.00000000E+00
  0.00000000E+00
ZRed-Constraint1                           R   N=           6
  1.81413708E+00  2.49443850E+00  1.81413708E+00  1.91063323E+00  1.91063323E+00
  0.00000000E+00
ZRed-Constraint2                           R   N=           6
  0.00000000E+00  0.00000000E+00  0.00000000E+00  0.00000000E+00  0.00000000E+00
  0.00000000E+00
SymInf integers                            I   N=          26
           2           4           1           1           1          -1
          -1           1          -1           1           1           1
          -1           1           0           0           0           0
           0           0           0           0           0           0
           0           0
RotTr to input orientation                 R   N=          12
  3.06167855E-16 -6.12015566E-17 -1.00000000E+00 -9.99999995E-01 -1.00545218E-04
 -3.06161700E-16 -1.00545218E-04  9.99999995E-01 -6.12323400E-17  1.09017058E+01
  4.53984881E+00  8.73230095E-15
Number of contracted shells                I               34
Number of primitive shells                 I               56
Pure/Cartesian d shells                    I                0
Pure/Cartesian f shells                    I                0
Highest angular momentum                   I                3
Largest degree of contraction              I                6
Shell types                                I   N=          34
           0           0           0           0           0           1
           1           1          -2          -2          -3           0
           0           0           1           1          -2           0
           0           0           0           0           1           1
           1          -2          -2          -3           0           0
           0           1           1          -2
Number of primitives per shell             I   N=          34
           6           2           1           1           1           4
           1           1           1           1           1           3
           1           1           1           1           1           6
           2           1           1           1           4           1
           1           1           1           1           3           1
           1           1           1           1
Shell to atom map                          I   N=          34
           1           1           1           1           1           1
           1           1           1           1           1           2
           2           2           2           2           2           3
           3           3           3           3           3           3
           3           3           3           3           4           4
           4           4           4           4
Primitive exponents                        R   N=          56
  2.70323826E+04  4.05238714E+03  9.22327227E+02  2.61240710E+02  8.53546414E+01
  3.10350352E+01  1.22608607E+01  4.99870760E+00  1.17031082E+00  4.64747410E-01
  1.85045364E-01  6.32749548E+01  1.46270494E+01  4.45012235E+00  1.52757996E+00
  5.29351179E-01  1.74784213E-01  2.31400000E+00  6.45000000E-01  1.42800000E+00
  3.40613410E+01  5.12357460E+00  1.16466260E+00  3.27230410E-01  1.03072410E-01
  1.40700000E+00  3.88000000E-01  1.05700000E+00  2.70323826E+04  4.05238714E+03
  9.22327227E+02  2.61240710E+02  8.53546414E+01  3.10350352E+01  1.22608607E+01
  4.99870760E+00  1.17031082E+00  4.64747410E-01  1.85045364E-01  6.32749548E+01
  1.46270494E+01  4.45012235E+00  1.52757996E+00  5.29351179E-01  1.74784213E-01
  2.31400000E+00  6.45000000E-01  1.42800000E+00  3.40613410E+01  5.12357460E+00
  1.16466260E+00  3.27230410E-01  1.03072410E-01  1.40700000E+00  3.88000000E-01
  1.05700000E+00
Contraction coefficients                   R   N=          56
  5.72273352E-04  4.43532335E-03  2.30201077E-02  9.28224907E-02  2.93785000E-01
  6.74016045E-01  6.38399370E-01  3.95345871E-01  1.00000000E+00  1.00000000E+00
  1.00000000E+00  1.20183322E-02  8.30054218E-02  3.19917439E-01  7.07155429E-01
  1.00000000E+00  1.00000000E+00  1.00000000E+00  1.00000000E+00  1.00000000E+00
  2.54393072E-02  1.90085949E-01  8.52441130E-01  1.00000000E+00  1.00000000E+00
  1.00000000E+00  1.00000000E+00  1.00000000E+00  5.72273352E-04  4.43532335E-03
  2.30201077E-02  9.28224907E-02  2.93785000E-01  6.74016045E-01  6.38399370E-01
  3.95345871E-01  1.00000000E+00  1.00000000E+00  1.00000000E+00  1.20183322E-02
  8.30054218E-02  3.19917439E-01  7.07155429E-01  1.00000000E+00  1.00000000E+00
  1.00000000E+00  1.00000000E+00  1.00000000E+00  2.54393072E-02  1.90085949E-01
  8.52441130E-01  1.00000000E+00  1.00000000E+00  1.00000000E+00  1.00000000E+00
  1.00000000E+00
Coordinates of each shell                  R   N=         102
  5.91645679E-31  1.37763400E+00 -1.95003569E-01  5.91645679E-31  1.37763400E+00
 -1.95003569E-01  5.91645679E-31  1.37763400E+00 -1.95003569E-01  5.91645679E-31
  1.37763400E+00 -1.95003569E-01  5.91645679E-31  1.37763400E+00 -1.95003569E-01
  5.91645679E-31  1.37763400E+00 -1.95003569E-01  5.91645679E-31  1.37763400E+00
 -1.95003569E-01  5.91645679E-31  1.37763400E+00 -1.95003569E-01  5.91645679E-31
  1.37763400E+00 -1.95003569E-01  5.91645679E-31  1.37763400E+00 -1.95003569E-01
  5.91645679E-31  1.37763400E+00 -1.95003569E-01 -9.86076132E-32  1.85958843E+00
  1.56002855E+00 -9.86076132E-32  1.85958843E+00  1.56002855E+00 -9.86076132E-32
  1.85958843E+00  1.56002855E+00 -9.86076132E-32  1.85958843E+00  1.56002855E+00
 -9.86076132E-32  1.85958843E+00  1.56002855E+00 -9.86076132E-32  1.85958843E+00
  1.56002855E+00 -1.68711507E-16 -1.37763400E+00 -1.95003569E-01 -1.68711507E-16
 -1.37763400E+00 -1.95003569E-01 -1.68711507E-16 -1.37763400E+00 -1.95003569E-01
 -1.68711507E-16 -1.37763400E+00 -1.95003569E-01 -1.68711507E-16 -1.37763400E+00
 -1.95003569E-01 -1.68711507E-16 -1.37763400E+00 -1.95003569E-01 -1.68711507E-16
 -1.37763400E+00 -1.95003569E-01 -1.68711507E-16 -1.37763400E+00 -1.95003569E-01
 -1.68711507E-16 -1.37763400E+00 -1.95003569E-01 -1.68711507E-16 -1.37763400E+00
 -1.95003569E-01 -1.68711507E-16 -1.37763400E+00 -1.95003569E-01 -2.27733902E-16
 -1.85958843E+00  1.56002855E+00 -2.27733902E-16 -1.85958843E+00  1.56002855E+00
 -2.27733902E-16 -1.85958843E+00  1.56002855E+00 -2.27733902E-16 -1.85958843E+00
  1.56002855E+00 -2.27733902E-16 -1.85958843E+00  1.56002855E+00 -2.27733902E-16
 -1.85958843E+00  1.56002855E+00
Num ILSW                                   I              100
ILSW                                       I   N=         100
           0           0           0           1           2           0
           0           0           0           0         402          -1
           5           0           0           0           0           0
           0           0           0           0           1           0
           0           0           1           0           0           0
           0           0      100000           0          -1           0
           0           0           0           0           0           0
           0           0           0           1           0           0
           0 -2000000000           1           0           0           0
           0           0           4          52           0           0
           0           0           5           0           0           0
           0           0           0           4           0           1
           0           0           0           0           0           0
           0           0           0           0           0           0
           0           0           0           0           0           0
           0           0           0           0           0           0
           0           0           0           0
Num RLSW                                   I               52
RLSW                                       R   N=          52
  8.00000000E-01  7.20000000E-01  1.00000000E+00  8.10000000E-01  2.00000000E-01
  0.00000000E+00  0.00000000E+00  1.00000000E+00  0.00000000E+00  0.00000000E+00
  0.00000000E+00  0.00000000E+00  1.00000000E+00  0.00000000E+00  0.00000000E+00
  0.00000000E+00  0.00000000E+00  1.00000000E+00  0.00000000E+00  0.00000000E+00
  0.00000000E+00  0.00000000E+00  1.00000000E+00  0.00000000E+00  0.00000000E+00
  0.00000000E+00  0.00000000E+00  1.00000000E+00  0.00000000E+00  0.00000000E+00
  0.00000000E+00  0.00000000E+00  1.00000000E+00  0.00000000E+00  0.00000000E+00
  0.00000000E+00  0.00000000E+00  0.00000000E+00  1.00000000E+00  1.00000000E+00
  0.00000000E+00  1.00000000E+00  0.00000000E+00  0.00000000E+00  0.00000000E+00
  0.00000000E+00  0.00000000E+00  0.00000000E+00  0.00000000E+00  0.00000000E+00
  0.00000000E+00  0.00000000E+00
ECP-MxAtEC                                 I           250000
ECP-MaxLECP                                I               10
ECP-MaxAtL                                 I          2250000
ECP-MxTECP                                 I         11250000
ECP-LenNCZ                                 I                0
ECP-KFirst                                 I   N=          40
           0           0           0           0           0           0
           0           0           0           0           0           0
           0           0           0           0           0           0
           0           0           0           0           0           0
           0           0           0           0           0           0
           0           0           0           0           0           0
           0           0           0           0
ECP-KLast                                  I   N=          40
           0           0           0           0           0           0
           0           0           0           0           0           0
           0           0           0           0           0           0
           0           0           0           0           0           0
           0           0           0           0           0           0
           0           0           0           0           0           0
           0           0           0           0
ECP-LMax                                   I   N=           4
           0           0           0           0
ECP-LPSkip                                 I   N=           4
           1           1           1           1
ECP-RNFroz                                 R   N=           4
  0.00000000E+00  0.00000000E+00  0.00000000E+00  0.00000000E+00
ECP-NLP                                    I                0
ECP-CLP1                                   R      0.000000000000000E+00
ECP-CLP2                                   R      0.000000000000000E+00
ECP-ZLP                                    R      0.000000000000000E+00
MxBond                                     I                2
NBond                                      I   N=           4
           2           1           2           1
IBond                                      I   N=           8
           2           3           1           0           1           4
           3           0
RBond                                      R   N=           8
  1.00000000E+00  1.00000000E+00  1.00000000E+00  0.00000000E+00  1.00000000E+00
  1.00000000E+00  1.00000000E+00  0.00000000E+00
Virial Ratio                               R      2.003789019068755E+00
SCF Energy                                 R     -1.516096078870017E+02
Total Energy                               R     -1.516096078870017E+02
RMS Force                                  R      1.399105449073720E-03
RMS Density                                R      6.205281497409267E-09
NImag                                      I                1
Job Status                                 I                3
Nuclear derivative order                   I                2
Thermal Energy                             R     -1.515809023474427E+02
Thermal Enthalpy                           R     -1.515799581626291E+02
Thermal Free Energy                        R     -1.516052817666633E+02
External E-field                           R   N=          35
  0.00000000E+00  0.00000000E+00  0.00000000E+00  0.00000000E+00  0.00000000E+00
  0.00000000E+00  0.00000000E+00  0.00000000E+00  0.00000000E+00  0.00000000E+00
  0.00000000E+00  0.00000000E+00  0.00000000E+00  0.00000000E+00  0.00000000E+00
  0.00000000E+00  0.00000000E+00  0.00000000E+00  0.00000000E+00  0.00000000E+00
  0.00000000E+00  0.00000000E+00  0.00000000E+00  0.00000000E+00  0.00000000E+00
  0.00000000E+00  0.00000000E+00  0.00000000E+00  0.00000000E+00  0.00000000E+00
  0.00000000E+00  0.00000000E+00  0.00000000E+00  0.00000000E+00  0.00000000E+00
IOpCl                                      I                0
IROHF                                      I                0
Alpha Orbital Energies                     R   N=          90
 -1.91922196E+01 -1.91921879E+01 -1.12484027E+00 -9.12987392E-01 -5.84310587E-01
 -4.40327799E-01 -4.12269249E-01 -3.97517909E-01 -2.69256748E-01 -1.25996939E-02
 -7.28468001E-03  9.70595682E-02  3.45576114E-01  3.78734269E-01  3.90971498E-01
  4.03471509E-01  4.53886255E-01  4.61033428E-01  4.86265050E-01  5.21981256E-01
  5.81092214E-01  6.21451635E-01  6.38038609E-01  7.41840727E-01  7.77868172E-01
  1.00468437E+00  1.13921982E+00  1.24214224E+00  1.24522476E+00  1.48582303E+00
  1.64272075E+00  1.64995753E+00  1.78530489E+00  1.87090397E+00  1.91045618E+00
  1.96664532E+00  2.01108880E+00  2.14129033E+00  2.16437431E+00  2.42692978E+00
  2.45788572E+00  2.51553424E+00  2.63578901E+00  2.64080445E+00  2.84946570E+00
  3.11334650E+00  3.12698657E+00  3.17160304E+00  3.24635688E+00  3.30079836E+00
  3.30556885E+00  3.45128004E+00  3.53001065E+00  3.60863612E+00  3.88524141E+00
  3.88821092E+00  3.90228519E+00  4.01735915E+00  4.04805203E+00  4.05154702E+00
  4.39282983E+00  4.57981467E+00  4.73556502E+00  4.74664868E+00  4.84943454E+00
  4.87142046E+00  5.14828745E+00  5.15504554E+00  5.52489968E+00  5.77566780E+00
  5.84070557E+00  6.20297921E+00  6.22106303E+00  6.25887517E+00  6.29602919E+00
  6.41078382E+00  6.44090356E+00  6.56208588E+00  6.65721468E+00  6.67566974E+00
  6.77442290E+00  6.87098046E+00  6.89014948E+00  7.08949198E+00  7.21743887E+00
  7.23921662E+00  7.48927061E+00  8.08888246E+00  4.31481809E+01  4.37746410E+01
Alpha MO coefficients                      R   N=        8100
  3.07643595E-01  4.52439785E-01  2.31081250E-02 -1.22395560E-02  4.52829175E-03
  0.00000000E+00 -6.53274706E-04  1.24881358E-03  0.00000000E+00  1.03561138E-04
 -9.33206499E-04  0.00000000E+00 -2.25994486E-04  6.38066269E-04  1.48900416E-04
  0.00000000E+00  1.31315571E-04 -1.36904635E-04  0.00000000E+00 -1.61535038E-04
  0.00000000E+00 -1.94219282E-04 -3.45482489E-05  0.00000000E+00  4.47511547E-05
  0.00000000E+00 -3.55680309E-05  3.06371543E-06  0.00000000E+00  0.00000000E+00
 -3.14374763E-05  3.41248651E-04  1.72496194E-04 -1.04165514E-03  0.00000000E+00
  8.51586068E-05  2.27997488E-04  0.00000000E+00  1.05099248E-04 -2.96594974E-04
 -5.02704948E-04  0.00000000E+00 -2.92653298E-04  3.25336273E-05  0.00000000E+00
  3.07643595E-01  4.52439785E-01  2.31081250E-02 -1.22395560E-02  4.52829175E-03
  0.00000000E+00  6.53274706E-04  1.24881358E-03  0.00000000E+00 -1.03561138E-04
 -9.33206499E-04  0.00000000E+00  2.25994486E-04  6.38066269E-04  1.48900416E-04
  0.00000000E+00 -1.31315571E-04 -1.36904635E-04  0.00000000E+00 -1.61535038E-04
  0.00000000E+00  1.94219282E-04 -3.45482489E-05  0.00000000E+00  4.47511547E-05
  0.00000000E+00  3.55680309E-05  3.06371543E-06  0.00000000E+00  0.00000000E+00
  3.14374763E-05  3.41248651E-04  1.72496194E-04 -1.04165514E-03  0.00000000E+00
 -8.51586068E-05  2.27997488E-04  0.00000000E+00 -1.05099248E-04 -2.96594974E-04
 -5.02704948E-04  0.00000000E+00  2.92653298E-04  3.25336273E-05  0.00000000E+00
  3.07671880E-01  4.52247625E-01  2.54663778E-02 -1.74508447E-02  7.20587152E-03
  0.00000000E+00 -1.23738113E-03  1.29535204E-03  0.00000000E+00  3.55384136E-03
 -1.48523215E-03  0.00000000E+00 -1.52212786E-03  5.10604490E-04  1.04140701E-04
  0.00000000E+00  5.67784118E-05 -2.41173598E-04  0.00000000E+00  5.42822372E-04
  0.00000000E+00  1.89553159E-04  1.64523084E-03  0.00000000E+00 -1.65378037E-05
  0.00000000E+00 -1.94460275E-04  2.57810154E-05  0.00000000E+00  0.00000000E+00
 -4.17047374E-04  2.34643428E-04  9.71936754E-04 -7.75458678E-04  0.00000000E+00
 -7.06608611E-05  1.77659359E-04  0.00000000E+00 -5.26766736E-04 -7.26443923E-04
 -5.54620347E-04  0.00000000E+00 -7.22082809E-05 -2.12473835E-04  0.00000000E+00
 -3.07671880E-01 -4.52247625E-01 -2.54663778E-02  1.74508447E-02 -7.20587152E-03
  0.00000000E+00 -1.23738113E-03 -1.29535204E-03  0.00000000E+00  3.55384136E-03
  1.48523215E-03  0.00000000E+00 -1.52212786E-03 -5.10604490E-04 -1.04140701E-04
  0.00000000E+00  5.67784118E-05  2.41173598E-04  0.00000000E+00 -5.42822372E-04
  0.00000000E+00  1.89553159E-04 -1.64523084E-03  0.00000000E+00  1.65378037E-05
  0.00000000E+00 -1.94460275E-04 -2.57810154E-05  0.00000000E+00  0.00000000E+00
 -4.17047374E-04 -2.34643428E-04 -9.71936754E-04  7.75458678E-04  0.00000000E+00
 -7.06608611E-05 -1.77659359E-04  0.00000000E+00 -5.26766736E-04  7.26443923E-04
  5.54620347E-04  0.00000000E+00 -7.22082809E-05  2.12473835E-04  0.00000000E+00
 -6.95241035E-02 -1.63186998E-01  2.39419445E-01  3.05017741E-01  8.72718513E-02
  0.00000000E+00 -6.02353287E-02  4.74846949E-02  0.00000000E+00 -5.51517682E-02
  3.28196516E-02  0.00000000E+00 -5.35664617E-03  2.85275222E-03  4.56717974E-04
  0.00000000E+00  9.12362808E-05 -4.12360251E-03  0.00000000E+00 -2.69752078E-03
  0.00000000E+00 -2.91661300E-03 -1.21490722E-02  0.00000000E+00 -9.75298457E-05
  0.00000000E+00  1.58393448E-03 -6.78775430E-04  0.00000000E+00  0.00000000E+00
  2.68747174E-03  6.19337896E-02  5.78791081E-02  3.91795873E-03  0.00000000E+00
 -4.19033353E-03 -1.00641765E-02  0.00000000E+00 -7.09676342E-03 -1.01908135E-02
  2.49817478E-03  0.00000000E+00  2.10117802E-03 -6.92523094E-04  0.00000000E+00
 -6.95241035E-02 -1.63186998E-01  2.39419445E-01  3.05017741E-01  8.72718513E-02
  0.00000000E+00  6.02353287E-02  4.74846949E-02  0.00000000E+00  5.51517682E-02
  3.28196516E-02  0.00000000E+00  5.35664617E-03  2.85275222E-03  4.56717974E-04
  0.00000000E+00 -9.12362808E-05 -4.12360251E-03  0.00000000E+00 -2.69752078E-03
  0.00000000E+00  2.91661300E-03 -1.21490722E-02  0.00000000E+00 -9.75298457E-05
  0.00000000E+00 -1.58393448E-03 -6.78775430E-04  0.00000000E+00  0.00000000E+00
 -2.68747174E-03  6.19337896E-02  5.78791081E-02  3.91795873E-03  0.00000000E+00
  4.19033353E-03 -1.00641765E-02  0.00000000E+00  7.09676342E-03 -1.01908135E-02
  2.49817478E-03  0.00000000E+00 -2.10117802E-03 -6.92523094E-04  0.00000000E+00
 -7.10820836E-02 -1.67779254E-01  2.55258585E-01  3.16221588E-01  1.35487772E-01
  0.00000000E+00  5.54187793E-02  7.35697462E-02  0.00000000E+00  3.50115858E-02
  4.86499272E-02  0.00000000E+00  8.05126791E-03  7.01882715E-03  4.39692487E-03
  0.00000000E+00  1.94964010E-03  8.88606424E-04  0.00000000E+00  5.72690552E-03
  0.00000000E+00  2.54556348E-03  2.89159667E-04  0.00000000E+00  2.87093575E-04
  0.00000000E+00 -1.60004630E-04 -2.72060701E-04  0.00000000E+00  0.00000000E+00
 -6.51716113E-04  9.24968196E-02  9.53452525E-02  1.09438873E-02  0.00000000E+00
 -3.01253278E-03 -1.44997529E-02  0.00000000E+00 -3.27158021E-03 -1.52904721E-02
  4.80173845E-03  0.00000000E+00  1.94970035E-03 -2.88040333E-04  0.00000000E+00
  7.10820836E-02  1.67779254E-01 -2.55258585E-01 -3.16221588E-01 -1.35487772E-01
  0.00000000E+00  5.54187793E-02 -7.35697462E-02  0.00000000E+00  3.50115858E-02
 -4.86499272E-02  0.00000000E+00  8.05126791E-03 -7.01882715E-03 -4.39692487E-03
  0.00000000E+00  1.94964010E-03 -8.88606424E-04  0.00000000E+00 -5.72690552E-03
  0.00000000E+00  2.54556348E-03 -2.89159667E-04  0.00000000E+00 -2.87093575E-04
  0.00000000E+00 -1.60004630E-04  2.72060701E-04  0.00000000E+00  0.00000000E+00
 -6.51716113E-04 -9.24968196E-02 -9.53452525E-02 -1.09438873E-02  0.00000000E+00
 -3.01253278E-03  1.44997529E-02  0.00000000E+00 -3.27158021E-03  1.52904721E-02
 -4.80173845E-03  0.00000000E+00  1.94970035E-03  2.88040333E-04  0.00000000E+00
  8.49464892E-03  2.00651854E-02 -2.40804689E-02 -7.90531604E-02 -5.42044196E-02
  0.00000000E+00  1.91169622E-01  2.21898636E-01  0.00000000E+00  1.52006267E-01
  1.54518948E-01  0.00000000E+00  5.12492923E-02  6.05814931E-02  7.74356765E-03
  0.00000000E+00  8.85959145E-04  3.70699412E-03  0.00000000E+00  1.25778941E-02
  0.00000000E+00 -5.48937440E-03  1.09698178E-02  0.00000000E+00 -8.25107745E-04
  0.00000000E+00 -1.91330686E-03 -2.39307799E-03  0.00000000E+00  0.00000000E+00
 -3.21273454E-03  1.16701672E-01  1.79127729E-01  4.33138647E-02  0.00000000E+00
 -1.48739553E-03 -1.41599605E-02  0.00000000E+00 -6.13712554E-03 -2.01321953E-02
  5.97978109E-03  0.00000000E+00  8.71385453E-04 -9.43428966E-04  0.00000000E+00
  8.49464892E-03  2.00651854E-02 -2.40804689E-02 -7.90531604E-02 -5.42044196E-02
  0.00000000E+00 -1.91169622E-01  2.21898636E-01  0.00000000E+00 -1.52006267E-01
  1.54518948E-01  0.00000000E+00 -5.12492923E-02  6.05814931E-02  7.74356765E-03
  0.00000000E+00 -8.85959145E-04  3.70699412E-03  0.00000000E+00  1.25778941E-02
  0.00000000E+00  5.48937440E-03  1.09698178E-02  0.00000000E+00 -8.25107745E-04
  0.00000000E+00  1.91330686E-03 -2.39307799E-03  0.00000000E+00  0.00000000E+00
  3.21273454E-03  1.16701672E-01  1.79127729E-01  4.33138647E-02  0.00000000E+00
  1.48739553E-03 -1.41599605E-02  0.00000000E+00  6.13712554E-03 -2.01321953E-02
  5.97978109E-03  0.00000000E+00 -8.71385453E-04 -9.43428966E-04  0.00000000E+00
 -2.24771339E-02 -5.39035283E-02  8.77631556E-02  1.03197820E-01  1.48902763E-01
  0.00000000E+00  2.68038214E-01 -1.77024237E-01  0.00000000E+00  2.23542567E-01
 -1.34289805E-01  0.00000000E+00  1.20512643E-01 -8.39660664E-02 -3.53214850E-04
  0.00000000E+00  4.60688764E-03  3.41742461E-03  0.00000000E+00  1.67216356E-03
  0.00000000E+00  2.01847231E-02  1.03929659E-02  0.00000000E+00  6.79042826E-04
  0.00000000E+00 -8.20871266E-04  2.08141123E-03  0.00000000E+00  0.00000000E+00
 -3.54031765E-03 -1.96272760E-02 -5.15451124E-02 -5.11126071E-03  0.00000000E+00
  6.84093526E-03  3.53383156E-04  0.00000000E+00  2.77268449E-02 -5.91173162E-04
  1.30277955E-03  0.00000000E+00 -3.31616224E-03  2.34799967E-03  0.00000000E+00
 -2.24771339E-02 -5.39035283E-02  8.77631556E-02  1.03197820E-01  1.48902763E-01
  0.00000000E+00 -2.68038214E-01 -1.77024237E-01  0.00000000E+00 -2.23542567E-01
 -1.34289805E-01  0.00000000E+00 -1.20512643E-01 -8.39660664E-02 -3.53214850E-04
  0.00000000E+00 -4.60688764E-03  3.41742461E-03  0.00000000E+00  1.67216356E-03
  0.00000000E+00 -2.01847231E-02  1.03929659E-02  0.00000000E+00  6.79042826E-04
  0.00000000E+00  8.20871266E-04  2.08141123E-03  0.00000000E+00  0.00000000E+00
  3.54031765E-03 -1.96272760E-02 -5.15451124E-02 -5.11126071E-03  0.00000000E+00
 -6.84093526E-03  3.53383156E-04  0.00000000E+00 -2.77268449E-02 -5.91173162E-04
  1.30277955E-03  0.00000000E+00  3.31616224E-03  2.34799967E-03  0.00000000E+00
  0.00000000E+00  0.00000000E+00  0.00000000E+00  0.00000000E+00  0.00000000E+00
  3.30646661E-01  0.00000000E+00  0.00000000E+00  2.66278431E-01  0.00000000E+00
  0.00000000E+00  1.75717689E-01  0.00000000E+00  0.00000000E+00  0.00000000E+00
  3.23601013E-03  0.00000000E+00  0.00000000E+00 -3.70082068E-03  0.00000000E+00
  1.14139485E-02  0.00000000E+00  0.00000000E+00 -1.81721006E-02  0.00000000E+00
  6.41999779E-04  0.00000000E+00  0.00000000E+00 -4.56764116E-05 -5.12487163E-03
  0.00000000E+00  0.00000000E+00  0.00000000E+00  0.00000000E+00  6.59102651E-03
  0.00000000E+00  0.00000000E+00  2.67270118E-02  0.00000000E+00  0.00000000E+00
  0.00000000E+00 -3.97130666E-03  0.00000000E+00  0.00000000E+00 -1.84290715E-03
  0.00000000E+00  0.00000000E+00  0.00000000E+00  0.00000000E+00  0.00000000E+00
  3.30646661E-01  0.00000000E+00  0.00000000E+00  2.66278431E-01  0.00000000E+00
  0.00000000E+00  1.75717689E-01  0.00000000E+00  0.00000000E+00  0.00000000E+00
  3.23601013E-03  0.00000000E+00  0.00000000E+00  3.70082068E-03  0.00000000E+00
  1.14139485E-02  0.00000000E+00  0.00000000E+00  1.81721006E-02  0.00000000E+00
  6.41999779E-04  0.00000000E+00  0.00000000E+00  4.56764116E-05 -5.12487163E-03
  0.00000000E+00  0.00000000E+00  0.00000000E+00  0.00000000E+00  6.59102651E-03
  0.00000000E+00  0.00000000E+00  2.67270118E-02  0.00000000E+00  0.00000000E+00
  0.00000000E+00 -3.97130666E-03  0.00000000E+00  0.00000000E+00  1.84290715E-03
  2.98860053E-02  7.14442515E-02 -1.09836182E-01 -1.76852549E-01 -1.78059927E-01
  0.00000000E+00 -2.18190196E-02  3.01116746E-01  0.00000000E+00 -1.85452571E-02
  2.19815622E-01  0.00000000E+00 -3.91340734E-02  1.29179798E-01  5.94375528E-03
  0.00000000E+00  1.86261152E-03 -6.60935911E-04  0.00000000E+00  8.19515845E-03
  0.00000000E+00  2.21110347E-03 -1.53469287E-03  0.00000000E+00  1.34119908E-03
  0.00000000E+00  6.70362672E-04 -5.49214385E-04  0.00000000E+00  0.00000000E+00
  5.21771968E-04  1.15674725E-01  1.96547435E-01  7.36048467E-02  0.00000000E+00
 -4.65192682E-03 -9.96603986E-03  0.00000000E+00 -4.76170171E-03 -1.12167707E-02
  3.43031268E-03  0.00000000E+00  2.84402297E-03 -6.28601834E-04  0.00000000E+00
 -2.98860053E-02 -7.14442515E-02  1.09836182E-01  1.76852549E-01  1.78059927E-01
  0.00000000E+00 -2.18190196E-02 -3.01116746E-01  0.00000000E+00 -1.85452571E-02
 -2.19815622E-01  0.00000000E+00 -3.91340734E-02 -1.29179798E-01 -5.94375528E-03