 Entering Gaussian System, Link 0=/home/emanuele/chem_software/gaussian/g09/g09
 Input=hessfit4gau.gjf
 Output=hessfit4gau.log
 Initial command:
 /home/emanuele/chem_software/gaussian//gdv/l1.exe "/home/emanuele/chem_software/gaussian/scratch/Gau-14306.inp" -scrdir="/home/emanuele/chem_software/gaussian/scratch/"
 Entering Link 1 = /home/emanuele/chem_software/gaussian//gdv/l1.exe PID=     14308.
  
 Copyright (c) 1988-2020, Gaussian, Inc.  All Rights Reserved.
  
 This is the private, development version of
 the Gaussian(R) DV system of programs. It is based on
 the Gaussian(R) 16 system (copyright 2016, Gaussian, Inc.),
 the Gaussian(R) 09 system (copyright 2009, Gaussian, Inc.),
 the Gaussian(R) 03 system (copyright 2003, Gaussian, Inc.),
 the Gaussian(R) 98 system (copyright 1998, Gaussian, Inc.),
 the Gaussian(R) 94 system (copyright 1995, Gaussian, Inc.),
 the Gaussian 92(TM) system (copyright 1992, Gaussian, Inc.),
 the Gaussian 90(TM) system (copyright 1990, Gaussian, Inc.),
 the Gaussian 88(TM) system (copyright 1988, Gaussian, Inc.),
 the Gaussian 86(TM) system (copyright 1986, Carnegie Mellon
 University), and the Gaussian 82(TM) system (copyright 1983,
 Carnegie Mellon University). Gaussian is a federally registered
 trademark of Gaussian, Inc.
  
 This software contains proprietary and confidential information,
 including trade secrets, belonging to Gaussian, Inc.
  
 This software is provided under written license and may be
 used, copied, transmitted, or stored only in accord with that
 written license.
  
 The following legend is applicable only to US Government
 contracts under FAR:
  
                    RESTRICTED RIGHTS LEGEND
  
 Use, reproduction and disclosure by the US Government is
 subject to restrictions as set forth in subparagraphs (a)
 and (c) of the Commercial Computer Software - Restricted
 Rights clause in FAR 52.227-19.
  
 Gaussian, Inc.
 340 Quinnipiac St., Bldg. 40, Wallingford CT 06492
  
  
 ---------------------------------------------------------------
 Warning -- This program may not be used in any manner that
 competes with the business of Gaussian, Inc. or will provide
 assistance to any competitor of Gaussian, Inc.  The licensee
 of this program is prohibited from giving any competitor of
 Gaussian, Inc. access to this program.  By using this program,
 the user acknowledges that Gaussian, Inc. is engaged in the
 business of creating and licensing software in the field of
 computational chemistry and represents and warrants to the
 licensee that it is not a competitor of Gaussian, Inc. and that
 it will not use this program in any manner prohibited above.
 ---------------------------------------------------------------
  

 Cite this work as:
 Gaussian Development Version, Revision J.14,
 M. J. Frisch, G. W. Trucks, H. B. Schlegel, G. E. Scuseria, 
 M. A. Robb, J. R. Cheeseman, G. Scalmani, V. Barone, 
 G. A. Petersson, H. Nakatsuji, X. Li, A. V. Marenich, M. Caricato, 
 J. Bloino, B. G. Janesko, J. Zheng, R. Gomperts, B. Mennucci, 
 H. P. Hratchian, J. V. Ortiz, A. F. Izmaylov, J. L. Sonnenberg, 
 D. Williams-Young, F. Ding, F. Lipparini, F. Egidi, J. Goings, 
 B. Peng, A. Petrone, T. Henderson, D. Ranasinghe, V. G. Zakrzewski, 
 J. Gao, N. Rega, G. Zheng, W. Liang, M. Hada, M. Ehara, K. Toyota, 
 R. Fukuda, J. Hasegawa, M. Ishida, T. Nakajima, Y. Honda, O. Kitao, 
 H. Nakai, T. Vreven, K. Throssell, J. A. Montgomery, Jr., 
 J. E. Peralta, F. Ogliaro, M. J. Bearpark, J. J. Heyd, 
 E. N. Brothers, K. N. Kudin, V. N. Staroverov, T. A. Keith, 
 R. Kobayashi, J. Normand, K. Raghavachari, A. P. Rendell, 
 J. C. Burant, S. S. Iyengar, J. Tomasi, M. Cossi, J. M. Millam, 
 M. Klene, C. Adamo, R. Cammi, J. W. Ochterski, R. L. Martin, 
 K. Morokuma, O. Farkas, J. B. Foresman, and D. J. Fox, 
 Gaussian, Inc., Wallingford CT, 2020.
 
 ******************************************
 Gaussian DV:  ES64L-GDVRevJ.14 29-Dec-2020
                30-Dec-2024 
 ******************************************
 %mem=1GB
 %nprocshared=1
 Will use up to    1 processors via shared memory.
 %chk=hessfit4gau.chk
 ----------------------------------------------------------------------
 #p Amber=(SoftFirst,Print) nosymm geom=nocrowd opt(MaxMicroiterations=
 2000) Freq
 ----------------------------------------------------------------------
 1/6=10,10=10,18=4000020,19=15,37=210000000,38=1,56=2,64=203,139=2000/1,3;
 2/9=110,12=1,15=1,40=1/2;
 3/5=30,11=9,25=1,30=1,41=10030000,43=2,71=1/1;
 4/20=11,22=1001,24=3,119=11,120=2000/2;
 7/30=1,44=-1/16;
 1/6=10,10=10,18=4000020,19=15,64=203,139=2000/3(2);
 2/9=110,12=1,15=1/2;
 99//99;
 2/9=110,12=1,15=1/2;
 3/5=30,11=9,25=1,30=1,41=10030000,43=2,71=1/1;
 4/16=2,20=11,22=1001,24=3,119=11,120=2000/2;
 7/30=1,44=-1/16;
 1/6=10,10=10,18=4000020,19=15,64=203,139=2000/3(-4);
 2/9=110,12=1,15=1/2;
 99/9=10/99;
 Leave Link    1 at Mon Dec 30 12:08:29 2024, MaxMem=   134217728 cpu:               0.0 elap:               0.0
 (Enter /home/emanuele/chem_software/gaussian//gdv/l101.exe)
 -----
 Title
 -----
 Symbolic Z-matrix:
 Charge =  0 Multiplicity = 1
 C-C0--0.267532        1.9569   -0.12039   0. 
 H-H1-+0.083821        2.74201   0.63726   0. 
 H-H2-+0.077363        2.10375  -0.74938  -0.88076 
 H-H3-+0.077360        2.10375  -0.74938   0.88076 
 C-C4--0.092257        0.56696   0.51292   0. 
 H-H5-+0.060623        0.46175   1.1634   -0.87403 
 H-H6-+0.060622        0.46175   1.1634    0.87403 
 C-C7--0.092258       -0.56696  -0.51292   0. 
 H-H8-+0.060627       -0.46175  -1.1634   -0.87403 
 H-H9-+0.060618       -0.46175  -1.1634    0.87403 
 C-C10--0.267532      -1.9569    0.12039   0. 
 H-H11-+0.077330      -2.10375   0.74938  -0.88076 
 H-H12-+0.083821      -2.74201  -0.63726   0. 
 H-H13-+0.077394      -2.10375   0.74938   0.88076 
 
 ITRead=  3  3  3  3  3  3  3  3  3  3  3  3  3  3
 MicOpt=  0  0  0  0  0  0  0  0  0  0  0  0  0  0
 DXMax1 from symmetrization= 1.89D-06
 NAtoms=     14 NQM=        0 NQMF=       0 NMMI=      0 NMMIF=      0
                NMic=      14 NMicF=      0.
                    Isotopes and Nuclear Properties:
 (Nuclear quadrupole moments (NQMom) in fm**2, nuclear magnetic moments (NMagM)
  in nuclear magnetons)

  Atom         1           2           3           4           5           6           7           8           9          10
 IAtWgt=          12           1           1           1          12           1           1          12           1           1
 AtmWgt=  12.0000000   1.0078250   1.0078250   1.0078250  12.0000000   1.0078250   1.0078250  12.0000000   1.0078250   1.0078250
 NucSpn=           0           1           1           1           0           1           1           0           1           1
 AtZEff=  -0.0000000  -0.0000000  -0.0000000  -0.0000000  -0.0000000  -0.0000000  -0.0000000  -0.0000000  -0.0000000  -0.0000000
 NQMom=    0.0000000   0.0000000   0.0000000   0.0000000   0.0000000   0.0000000   0.0000000   0.0000000   0.0000000   0.0000000
 NMagM=    0.0000000   2.7928460   2.7928460   2.7928460   0.0000000   2.7928460   2.7928460   0.0000000   2.7928460   2.7928460
 AtZNuc=   6.0000000   1.0000000   1.0000000   1.0000000   6.0000000   1.0000000   1.0000000   6.0000000   1.0000000   1.0000000

  Atom        11          12          13          14
 IAtWgt=          12           1           1           1
 AtmWgt=  12.0000000   1.0078250   1.0078250   1.0078250
 NucSpn=           0           1           1           1
 AtZEff=  -0.0000000  -0.0000000  -0.0000000  -0.0000000
 NQMom=    0.0000000   0.0000000   0.0000000   0.0000000
 NMagM=    0.0000000   2.7928460   2.7928460   2.7928460
 AtZNuc=   6.0000000   1.0000000   1.0000000   1.0000000
 Generating MM parameters.
 Read MM parameter file:
 Define C0         1
 Define C4         2
 Define H6         3
 Define C7         4
 Define H8         5
 Define H9         6
 Define C10        7
 Define H11        8
 Define H12        9
 Define H13       10
 Include all MM classes

 MM sanity checks:
 All charges sum to:                0.00000000
 Charges of atoms sum to:           0.00000000
 WARNING -- The following centers have non-zero partial charges, but zero Vanderwaals
 parameters.  These centers can collapse onto other centers with non-zero charge.
   Center  Layer   Charge
      1 C    R   -0.267532
      5 C    R   -0.092257
      7 H    R    0.060622
      8 C    R   -0.092258
      9 H    R    0.060627
     10 H    R    0.060618
     11 C    R   -0.267532
     12 H    R    0.077330
     13 H    R    0.083821
     14 H    R    0.077394
 MMInit generated parameter data with length LenPar=        3661.
 MM Charge=              0.0000 electrons
 MM Dipole moment (Debye):
    X=             -0.0000    Y=              0.0000    Z=              0.0002  Tot=              0.0002
 MM Quadrupole moment (Debye-Ang):
   XX=              2.7540   YY=              2.4677   ZZ=              2.0428
   XY=              0.0372   XZ=             -0.0006   YZ=              0.0003
 MM Traceless Quadrupole moment (Debye-Ang):
   XX=              0.3325   YY=              0.0462   ZZ=             -0.3787
   XY=              0.0372   XZ=             -0.0006   YZ=              0.0003
 MM Octapole moment (Debye-Ang**2):
  XXX=             -0.0000  YYY=              0.0000  ZZZ=              0.0002  XYY=             -0.0000
  XXY=              0.0000  XXZ=              0.0011  XZZ=             -0.0000  YZZ=              0.0000
  YYZ=              0.0001  XYZ=             -0.0004
 MM Hexadecapole moment (Debye-Ang**3):
 XXXX=             36.9049 YYYY=              2.6734 ZZZZ=              1.5741 XXXY=              2.5774
 XXXZ=             -0.0026 YYYX=              0.0434 YYYZ=              0.0002 ZZZX=             -0.0005
 ZZZY=              0.0002 XXYY=              6.2712 XXZZ=              5.2927 YYZZ=              1.8518
 XXYZ=              0.0009 YYXZ=             -0.0003 ZZXY=             -1.3397
 Leave Link  101 at Mon Dec 30 12:08:29 2024, MaxMem=   134217728 cpu:               0.3 elap:               0.3
 (Enter /home/emanuele/chem_software/gaussian//gdv/l103.exe)

 GradGradGradGradGradGradGradGradGradGradGradGradGradGradGradGradGradGrad
 Berny optimization.
 Initialization pass.
 No Z-matrix variables, so optimization will use Cartesian coordinates.
 Trust Radius=1.00D-01 FncErr=1.00D-07 GrdErr=1.00D-07 EigMax=2.50D+02 EigMin=1.00D-04
 Number of steps in this run=      2 maximum allowed number of steps=      2.
 GradGradGradGradGradGradGradGradGradGradGradGradGradGradGradGradGradGrad

 Leave Link  103 at Mon Dec 30 12:08:30 2024, MaxMem=   134217728 cpu:               0.0 elap:               0.0
 (Enter /home/emanuele/chem_software/gaussian//gdv/l202.exe)
                          Input orientation:                          
 ---------------------------------------------------------------------
 Center     Atomic      Atomic             Coordinates (Angstroms)
 Number     Number       Type             X           Y           Z
 ---------------------------------------------------------------------
      1          6    90000001        1.956897   -0.120392    0.000000
      2          1    20001035        2.742005    0.637259    0.000000
      3          1    20001036        2.103753   -0.749379   -0.880760
      4          1    20001037        2.103753   -0.749379    0.880760
      5          6    90000002        0.566957    0.512915    0.000000
      6          1    20001040        0.461751    1.163403   -0.874026
      7          1    90000003        0.461751    1.163403    0.874026
      8          6    90000004       -0.566957   -0.512915    0.000000
      9          1    90000005       -0.461751   -1.163403   -0.874026
     10          1    90000006       -0.461751   -1.163403    0.874026
     11          6    90000007       -1.956897    0.120392    0.000000
     12          1    90000008       -2.103753    0.749379   -0.880760
     13          1    90000009       -2.742005   -0.637259    0.000000
     14          1    90000010       -2.103753    0.749379    0.880760
 ---------------------------------------------------------------------
                    Distance matrix (angstroms):
                    1          2          3          4          5
     1  C    0.000000
     2  H    1.091068   0.000000
     3  H    1.092213   1.762348   0.000000
     4  H    1.092213   1.762348   1.761520   0.000000
     5  C    1.527420   2.178599   2.175055   2.175055   0.000000
     6  H    2.155809   2.498061   2.520903   3.071511   1.094589
     7  H    2.155809   2.498061   3.071511   2.520903   1.094589
     8  C    2.554195   3.503160   2.822117   2.822117   1.529081
     9  H    2.775185   3.777613   2.598706   3.135682   2.152255
    10  H    2.775185   3.777613   3.135682   2.598706   2.152255
    11  C    3.921194   4.727244   4.245129   4.245129   2.554195
    12  H    4.245129   4.926427   4.466473   4.801285   2.822117
    13  H    4.727244   5.630165   4.926427   4.926427   3.503160
    14  H    4.245129   4.926427   4.801285   4.466473   2.822117
                    6          7          8          9         10
     6  H    0.000000
     7  H    1.748052   0.000000
     8  C    2.152255   2.152255   0.000000
     9  H    2.503374   3.053288   1.094589   0.000000
    10  H    3.053288   2.503374   1.094589   1.748052   0.000000
    11  C    2.775185   2.775185   1.527420   2.155809   2.155809
    12  H    2.598706   3.135682   2.175055   2.520903   3.071511
    13  H    3.777613   3.777613   2.178599   2.498061   2.498061
    14  H    3.135682   2.598706   2.175055   3.071511   2.520903
                   11         12         13         14
    11  C    0.000000
    12  H    1.092213   0.000000
    13  H    1.091068   1.762348   0.000000
    14  H    1.092213   1.761520   1.762348   0.000000
 Symmetry turned off by external request.
 Stoichiometry    C4H10
 Framework group  C2H[SGH(C4H2),X(H8)]
 Deg. of freedom    11
 Full point group                 C2H     NOp   4
 Rotational constants (GHZ):          23.6116490           3.6179190           3.3991535
 Leave Link  202 at Mon Dec 30 12:08:30 2024, MaxMem=   134217728 cpu:               0.0 elap:               0.0
 (Enter /home/emanuele/chem_software/gaussian//gdv/l301.exe)
 Standard basis: Dummy (5D, 7F)
    14 basis functions,    14 primitive gaussians,    14 cartesian basis functions
     9 alpha electrons        9 beta electrons
       nuclear repulsion energy        36.5440176861 Hartrees.
 IExCor=       0 DFT=F Ex=HF Corr=None N6=None ScaHFX=  1.000000
 ScaDFX=  1.000000  1.000000  1.000000  1.000000  1.000000  0.000000
 ScaDFX=  0.000000  0.000000  0.000000  0.000000  0.000000  0.000000
 IRadAn=      5 IRanWt=     -1 IRanGd=            0 ICorTp=0 IEmpDi=  4
 NAtoms=   14 NActive=   14 NUniq=   14 SFac= 1.00D+00 NAtFMM=   60 NAOKFM=F Big=F
 Integral buffers will be    131072 words long.
 Raffenetti 1 integral format.
 Two-electron integral symmetry is turned off.
 Leave Link  301 at Mon Dec 30 12:08:30 2024, MaxMem=   134217728 cpu:               0.0 elap:               0.0
 (Enter /home/emanuele/chem_software/gaussian//gdv/l402.exe)
 AMBER calculation of energy and first derivatives.
 NRF= 0 NRA=   0 NVA=  14 HaveQM=F NVQ=       0
 Convergence limit is  0.750E-04 MaxStp=  2000 StMxLn= 3.00D-04 StpMin= 1.00D-06.
 Convergence criteria             0.00011250 0.00007500 0.00045000 0.00030000
  Step  NS  ND Rises OKQ   Scale  Max. Force  RMS Force Max. Disp.  RMS Disp.     Energy   Flag
     1   0   0   F    T  1.00D+00 0.00082397 0.00035136 0.00082397 0.00035136    0.0039835 ----
     2   0   0   F    F  2.07D+00 0.00082397 0.00035136 0.00170749 0.00072811    0.0039792 ----
     3   0   0   F    T  2.51D+00 0.00080222 0.00031881 0.00213671 0.00107947    0.0039756 ----
     4   0   0   F    T  5.81D+00 0.00033791 0.00016366 0.00246033 0.00107947    0.0039696 ----
     5   0   0   F    F -4.93D-01 0.00033791 0.00016366 0.00121385 0.00053258    0.0039695 ----
     6   0   0   F    T  2.52D+00 0.00037931 0.00014558 0.00154146 0.00054690    0.0039679 ----
     7   0   0   F    F  1.14D+00 0.00037931 0.00014558 0.00175873 0.00062398    0.0039661 ----
     8   0   0   F    T  2.35D+00 0.00059601 0.00021520 0.00321141 0.00117088    0.0039654 ----
     9   0   0   F    F  7.57D-01 0.00059601 0.00021520 0.00243155 0.00088654    0.0039622 ----
    10   0   0   F    T  1.46D+01 0.00017407 0.00009720 0.00433729 0.00205742    0.0039614 ----
    11   0   0   T    F  2.73D-01 0.00017407 0.00009720 0.00118520 0.00056221    0.0039663 ----
    12   0   0   F    T  3.01D+00 0.00030084 0.00010226 0.00143073 0.00056221    0.0039606 ----
    13   0   0   F    T  3.82D+00 0.00020304 0.00007369 0.00159540 0.00056221    0.0039601 -+--
    14   0   0   F    T  4.61D+00 0.00016887 0.00008529 0.00123114 0.00056221    0.0039598 ----
    15   0   0   F    F -2.86D-01 0.00016887 0.00008529 0.00035211 0.00016079    0.0039594 --++
    16   0   0   F    T  2.82D+00 0.00018272 0.00007866 0.00096351 0.00040141    0.0039593 ----
    17   0   0   F    T  1.33D+01 0.00006225 0.00002948 0.00081384 0.00040141    0.0039589 ++--
    18   0   0   T    T  1.00D+00 0.00045301 0.00013336 0.00045301 0.00013336    0.0039593 ---+
    19   0   0   T    F  5.00D-01 0.00045301 0.00013336 0.00022651 0.00006668    0.0039593 --++
    20   0   0   T    F  5.00D-01 0.00045301 0.00013336 0.00011325 0.00003334    0.0039590 --++
    21   0   0   T    F  5.00D-01 0.00045301 0.00013336 0.00005663 0.00001667    0.0039590 --++
    22   0   0   T    F  5.00D-01 0.00045301 0.00013336 0.00002831 0.00000834    0.0039589 --++
    23   0   0   T    F  5.00D-01 0.00045301 0.00013336 0.00001416 0.00000417    0.0039589 --++
    24   0   0   T    F  5.00D-01 0.00045301 0.00013336 0.00000708 0.00000208    0.0039589 --++
    25   0   0   T    F  5.00D-01 0.00045301 0.00013336 0.00000354 0.00000104    0.0039589 --++
    26   0   0   T    F  5.00D-01 0.00045301 0.00013336 0.00000177 0.00000052    0.0039589 --++
    27   0   0   T    F  5.00D-01 0.00045301 0.00013336 0.00000088 0.00000026    0.0039589 --++
    28   0   0   T    T  1.00D+00 0.00006253 0.00002957 0.00004718 0.00002333    0.0039589 ++++
    29   0   0   F    T  1.00D+00 0.00005894 0.00002847 0.00005862 0.00002828    0.0039589 ====
 ****************************
 MOLECULAR MECHANICS FUNCTION
 ****************************
 Atomic parameters:
 Center  VDW
      1 0.0000 0.0000000
      2 1.3870 0.0157000
      3 1.2870 0.0157000
      4 1.1870 0.0157000
      5 0.0000 0.0000000
      6 1.3590 0.0150000
      7 0.0000 0.0000000
      8 0.0000 0.0000000
      9 0.0000 0.0000000
     10 0.0000 0.0000000
     11 0.0000 0.0000000
     12 0.0000 0.0000000
     13 0.0000 0.0000000
     14 0.0000 0.0000000
 Molecular mechanics terms:
 NBDir 3 1      0      0
 HrmStr1  1- 2  374.50 1.0910
 HrmStr1  1- 3  371.63 1.0920
 HrmStr1  1- 4  371.66 1.0920
 HrmStr1  1- 5  311.98 1.5270
 HrmStr1  5- 6  362.71 1.0950
 HrmStr1  5- 7  362.77 1.0950
 HrmStr1  5- 8  307.49 1.5290
 HrmStr1  8- 9  362.77 1.0950
 HrmStr1  8-10  362.77 1.0950
 HrmStr1  8-11  312.23 1.5270
 HrmStr1 11-12  371.65 1.0920
 HrmStr1 11-13  374.54 1.0910
 HrmStr1 11-14  371.65 1.0920
 HrmBnd1  1- 5- 6  40.60 109.50
 HrmBnd1  1- 5- 7  40.73 109.50
 HrmBnd1  1- 5- 8  61.43 113.37
 HrmBnd1  2- 1- 3  36.52 107.65
 HrmBnd1  2- 1- 4  36.50 107.65
 HrmBnd1  2- 1- 5  43.83 111.52
 HrmBnd1  3- 1- 4  36.76 107.49
 HrmBnd1  3- 1- 5  44.75 111.17
 HrmBnd1  4- 1- 5  44.80 111.17
 HrmBnd1  5- 8- 9  40.89 109.11
 HrmBnd1  5- 8-10  40.89 109.11
 HrmBnd1  5- 8-11  61.44 113.37
 HrmBnd1  6- 5- 7  28.57 105.97
 HrmBnd1  6- 5- 8  40.86 109.11
 HrmBnd1  7- 5- 8  40.88 109.11
 HrmBnd1  8-11-12  44.81 111.17
 HrmBnd1  8-11-13  43.95 111.52
 HrmBnd1  8-11-14  44.81 111.17
 HrmBnd1  9- 8-10  28.58 105.97
 HrmBnd1  9- 8-11  40.73 109.50
 HrmBnd1 10- 8-11  40.73 109.50
 HrmBnd1 12-11-13  36.54 107.65
 HrmBnd1 12-11-14  36.77 107.49
 HrmBnd1 13-11-14  36.54 107.65
 AmbTrs  2- 1- 5- 6   0   0   0   0  0.0000  0.0000  3.3200  0.0000  9.0
 AmbTrs  2- 1- 5- 7   0   0   0   0  0.0000  0.0000  3.3300  0.0000  9.0
 AmbTrs  2- 1- 5- 8   0   0   0   0  0.0000  0.0000  2.2100  0.0000  9.0
 AmbTrs  3- 1- 5- 6   0   0   0   0  0.0000  0.0000  1.2400  0.0000  9.0
 AmbTrs  3- 1- 5- 7   0   0   0   0  0.0000  0.0000  2.0200  0.0000  9.0
 AmbTrs  3- 1- 5- 8   0   0   0   0  0.0000  0.0000  2.3200  0.0000  9.0
 AmbTrs  4- 1- 5- 6   0   0   0   0  0.0000  0.0000  2.0200  0.0000  9.0
 AmbTrs  4- 1- 5- 7   0   0   0   0  0.0000  0.0000  1.2400  0.0000  9.0
 AmbTrs  4- 1- 5- 8   0   0   0   0  0.0000  0.0000  2.3200  0.0000  9.0
 AmbTrs  1- 5- 8- 9   0   0   0   0  0.0000  0.0000  2.2700  0.0000  9.0
 AmbTrs  1- 5- 8-10   0   0   0   0  0.0000  0.0000  2.2700  0.0000  9.0
 AmbTrs  1- 5- 8-11   0   0   0   0  0.0000  0.0000  2.3900  0.0000  9.0
 AmbTrs  6- 5- 8- 9   0   0   0   0  0.0000  0.0000  3.5500  0.0000  9.0
 AmbTrs  6- 5- 8-10   0   0   0   0  0.0000  0.0000  2.2800  0.0000  9.0
 AmbTrs  6- 5- 8-11   0   0   0   0  0.0000  0.0000  2.2700  0.0000  9.0
 AmbTrs  7- 5- 8- 9   0   0   0   0  0.0000  0.0000  2.2900  0.0000  9.0
 AmbTrs  7- 5- 8-10   0   0   0   0  0.0000  0.0000  3.5500  0.0000  9.0
 AmbTrs  7- 5- 8-11   0   0   0   0  0.0000  0.0000  2.2700  0.0000  9.0
 AmbTrs  5- 8-11-12   0   0   0   0  0.0000  0.0000  2.3200  0.0000  9.0
 AmbTrs  5- 8-11-13   0   0   0   0  0.0000  0.0000  2.2100  0.0000  9.0
 AmbTrs  5- 8-11-14   0   0   0   0  0.0000  0.0000  2.3200  0.0000  9.0
 AmbTrs  9- 8-11-12   0   0   0   0  0.0000  0.0000  1.2400  0.0000  9.0
 AmbTrs  9- 8-11-13   0   0   0   0  0.0000  0.0000  3.3300  0.0000  9.0
 AmbTrs  9- 8-11-14   0   0   0   0  0.0000  0.0000  2.0200  0.0000  9.0
 AmbTrs 10- 8-11-12   0   0   0   0  0.0000  0.0000  2.0200  0.0000  9.0
 AmbTrs 10- 8-11-13   0   0   0   0  0.0000  0.0000  3.3300  0.0000  9.0
 AmbTrs 10- 8-11-14   0   0   0   0  0.0000  0.0000  1.2400  0.0000  9.0
 NBPair  2- 1 3 1      0      0 -1.000 -1.000
 NBPair  3- 2 3 1      0      0 -1.000 -1.000
 NBPair  4- 2 3 1      0      0 -1.000 -1.000
 NBPair  5- 2 3 1      0      0 -1.000 -1.000
 NBPair  3- 1 3 1      0      0 -1.000 -1.000
 NBPair  4- 3 3 1      0      0 -1.000 -1.000
 NBPair  5- 3 3 1      0      0 -1.000 -1.000
 NBPair  4- 1 3 1      0      0 -1.000 -1.000
 NBPair  5- 4 3 1      0      0 -1.000 -1.000
 NBPair  5- 1 3 1      0      0 -1.000 -1.000
 NBPair  6- 2 3 1      0      0 -0.500 -0.167
 NBPair  7- 2 3 1      0      0 -0.500 -0.167
 NBPair  8- 2 3 1      0      0 -0.500 -0.167
 NBPair  6- 3 3 1      0      0 -0.500 -0.167
 NBPair  7- 3 3 1      0      0 -0.500 -0.167
 NBPair  8- 3 3 1      0      0 -0.500 -0.167
 NBPair  6- 4 3 1      0      0 -0.500 -0.167
 NBPair  7- 4 3 1      0      0 -0.500 -0.167
 NBPair  8- 4 3 1      0      0 -0.500 -0.167
 NBPair  6- 1 3 1      0      0 -1.000 -1.000
 NBPair  7- 1 3 1      0      0 -1.000 -1.000
 NBPair  8- 1 3 1      0      0 -1.000 -1.000
 NBPair  6- 5 3 1      0      0 -1.000 -1.000
 NBPair  7- 6 3 1      0      0 -1.000 -1.000
 NBPair  8- 6 3 1      0      0 -1.000 -1.000
 NBPair  7- 5 3 1      0      0 -1.000 -1.000
 NBPair  8- 7 3 1      0      0 -1.000 -1.000
 NBPair  8- 5 3 1      0      0 -1.000 -1.000
 NBPair  9- 1 3 1      0      0 -0.500 -0.167
 NBPair 10- 1 3 1      0      0 -0.500 -0.167
 NBPair 11- 1 3 1      0      0 -0.500 -0.167
 NBPair  9- 6 3 1      0      0 -0.500 -0.167
 NBPair 10- 6 3 1      0      0 -0.500 -0.167
 NBPair 11- 6 3 1      0      0 -0.500 -0.167
 NBPair  9- 7 3 1      0      0 -0.500 -0.167
 NBPair 10- 7 3 1      0      0 -0.500 -0.167
 NBPair 11- 7 3 1      0      0 -0.500 -0.167
 NBPair  9- 5 3 1      0      0 -1.000 -1.000
 NBPair 10- 5 3 1      0      0 -1.000 -1.000
 NBPair 11- 5 3 1      0      0 -1.000 -1.000
 NBPair  9- 8 3 1      0      0 -1.000 -1.000
 NBPair 10- 9 3 1      0      0 -1.000 -1.000
 NBPair 11- 9 3 1      0      0 -1.000 -1.000
 NBPair 10- 8 3 1      0      0 -1.000 -1.000
 NBPair 11-10 3 1      0      0 -1.000 -1.000
 NBPair 11- 8 3 1      0      0 -1.000 -1.000
 NBPair 12- 5 3 1      0      0 -0.500 -0.167
 NBPair 13- 5 3 1      0      0 -0.500 -0.167
 NBPair 14- 5 3 1      0      0 -0.500 -0.167
 NBPair 12- 9 3 1      0      0 -0.500 -0.167
 NBPair 13- 9 3 1      0      0 -0.500 -0.167
 NBPair 14- 9 3 1      0      0 -0.500 -0.167
 NBPair 12-10 3 1      0      0 -0.500 -0.167
 NBPair 13-10 3 1      0      0 -0.500 -0.167
 NBPair 14-10 3 1      0      0 -0.500 -0.167
 NBPair 12- 8 3 1      0      0 -1.000 -1.000
 NBPair 13- 8 3 1      0      0 -1.000 -1.000
 NBPair 14- 8 3 1      0      0 -1.000 -1.000
 NBPair 12-11 3 1      0      0 -1.000 -1.000
 NBPair 13-12 3 1      0      0 -1.000 -1.000
 NBPair 14-12 3 1      0      0 -1.000 -1.000
 NBPair 13-11 3 1      0      0 -1.000 -1.000
 NBPair 14-13 3 1      0      0 -1.000 -1.000
 NBPair 14-11 3 1      0      0 -1.000 -1.000
 Energy per function type:
 Direct Coulomb + vdW (small)                           0.006081433
 Direct Coulomb (large)                                -0.056312908
 Direct vdW (large)                                     0.000000000
 Non-direct Coulomb + vdW (small)                      -0.007755700
 Non-direct Coulomb (large)                             0.061858788
 Non-direct vdW (large)                                 0.000000000
 Harmonic stretch I                                     0.000002462
 Harmonic bend I                                        0.000020549
 Amber torsion                                          0.000064268
 Energy per function class:
        Coulomb               0.003894854
    Vanderwaals              -0.000023240
     Stretching               0.000002462
        Bending               0.000020549
        Torsion               0.000064268
 Energy=    3.958893398E-03 NIter=   0.
 Dipole moment=      -0.000035      -0.000063       0.000157
 Leave Link  402 at Mon Dec 30 12:08:30 2024, MaxMem=   134217728 cpu:               0.1 elap:               0.1
 (Enter /home/emanuele/chem_software/gaussian//gdv/l716.exe)
 Dipole        =-3.47191723D-05-6.25247064D-05 1.57196752D-04
 -------------------------------------------------------------------
 Center     Atomic                   Forces (Hartrees/Bohr)
 Number     Number              X              Y              Z
 -------------------------------------------------------------------
      1        6           0.000004001   -0.000021311    0.000002246
      2        1          -0.000012936    0.000026431    0.000003367
      3        1          -0.000030730    0.000006768   -0.000026411
      4        1          -0.000026803    0.000004459    0.000022997
      5        6           0.000003322   -0.000036437    0.000002431
      6        1           0.000023182    0.000052356   -0.000058938
      7        1           0.000019463    0.000051788    0.000052552
      8        6          -0.000007470    0.000032622    0.000002011
      9        1          -0.000016846   -0.000051140   -0.000052598
     10        1          -0.000018270   -0.000048287    0.000050195
     11        6          -0.000005666    0.000019489    0.000001889
     12        1           0.000026528   -0.000006648   -0.000024182
     13        1           0.000014450   -0.000022430    0.000000968
     14        1           0.000027777   -0.000007661    0.000023474
 -------------------------------------------------------------------
 Cartesian Forces:  Max     0.000058938 RMS     0.000028470
 Z-matrix is all fixed cartesians, so copy forces.
 Leave Link  716 at Mon Dec 30 12:08:30 2024, MaxMem=   134217728 cpu:               0.0 elap:               0.0
 (Enter /home/emanuele/chem_software/gaussian//gdv/l103.exe)

 GradGradGradGradGradGradGradGradGradGradGradGradGradGradGradGradGradGrad
 Berny optimization.
 Search for a local minimum.
 Step number   1 out of a maximum of    2
 All quantities printed in internal units (Hartrees-Bohrs-Radians)
 RMS Force = .28470D-04 SwitMx=.10000D-02 MixMth= 2
 Mixed Optimization -- En-DIIS/RFO-DIIS
 Second derivative matrix not updated -- unit matrix used.
 ITU=  0
 RFO step:  Lambda=-3.40436258D-08 EMin= 1.00000000D+00
 Linear search not attempted -- first point.
 Variable       Old X    -DE/DX   Delta X   Delta X   Delta X     New X
                                 (Linear)    (Quad)   (Total)
    X1        3.68909   0.00000   0.00000   0.00000   0.00000   3.68909
    Y1       -0.22758  -0.00002   0.00000  -0.00002  -0.00002  -0.22760
    Z1       -0.00011   0.00000   0.00000   0.00000   0.00000  -0.00011
    X2        5.17997  -0.00001   0.00000  -0.00001  -0.00001   5.17995
    Y2        1.19728   0.00003   0.00000   0.00003   0.00003   1.19731
    Z2        0.00045   0.00000   0.00000   0.00000   0.00000   0.00045
    X3        3.96700  -0.00003   0.00000  -0.00003  -0.00003   3.96697
    Y3       -1.41816   0.00001   0.00000   0.00001   0.00001  -1.41815
    Z3       -1.66302  -0.00003   0.00000  -0.00003  -0.00003  -1.66305
    X4        3.96615  -0.00003   0.00000  -0.00003  -0.00003   3.96612
    Y4       -1.41810   0.00000   0.00000   0.00000   0.00000  -1.41809
    Z4        1.66294   0.00002   0.00000   0.00002   0.00002   1.66296
    X5        1.06435   0.00000   0.00000   0.00000   0.00000   1.06436
    Y5        0.97470  -0.00004   0.00000  -0.00004  -0.00004   0.97466
    Z5       -0.00024   0.00000   0.00000   0.00000   0.00000  -0.00024
    X6        0.85792   0.00002   0.00000   0.00002   0.00002   0.85794
    Y6        2.19970   0.00005   0.00000   0.00005   0.00005   2.19975
    Z6       -1.65620  -0.00006   0.00000  -0.00006  -0.00006  -1.65626
    X7        0.85891   0.00002   0.00000   0.00002   0.00002   0.85893
    Y7        2.19941   0.00005   0.00000   0.00005   0.00005   2.19946
    Z7        1.65599   0.00005   0.00000   0.00005   0.00005   1.65604
    X8       -1.06432  -0.00001   0.00000  -0.00001  -0.00001  -1.06433
    Y8       -0.97448   0.00003   0.00000   0.00003   0.00003  -0.97444
    Z8        0.00001   0.00000   0.00000   0.00000   0.00000   0.00001
    X9       -0.85896  -0.00002   0.00000  -0.00002  -0.00002  -0.85897
    Y9       -2.19936  -0.00005   0.00000  -0.00005  -0.00005  -2.19941
    Z9       -1.65610  -0.00005   0.00000  -0.00005  -0.00005  -1.65616
   X10       -0.85875  -0.00002   0.00000  -0.00002  -0.00002  -0.85877
   Y10       -2.19927  -0.00005   0.00000  -0.00005  -0.00005  -2.19932
   Z10        1.65618   0.00005   0.00000   0.00005   0.00005   1.65623
   X11       -3.68895  -0.00001   0.00000  -0.00001  -0.00001  -3.68896
   Y11        0.22763   0.00002   0.00000   0.00002   0.00002   0.22765
   Z11        0.00003   0.00000   0.00000   0.00000   0.00000   0.00004
   X12       -3.96660   0.00003   0.00000   0.00003   0.00003  -3.96658
   Y12        1.41801  -0.00001   0.00000  -0.00001  -0.00001   1.41801
   Z12       -1.66303  -0.00002   0.00000  -0.00002  -0.00002  -1.66306
   X13       -5.17920   0.00001   0.00000   0.00001   0.00001  -5.17918
   Y13       -1.19783  -0.00002   0.00000  -0.00002  -0.00002  -1.19785
   Z13        0.00003   0.00000   0.00000   0.00000   0.00000   0.00003
   X14       -3.96661   0.00003   0.00000   0.00003   0.00003  -3.96658
   Y14        1.41805  -0.00001   0.00000  -0.00001  -0.00001   1.41804
   Z14        1.66308   0.00002   0.00000   0.00002   0.00002   1.66310
         Item               Value     Threshold  Converged?
 Maximum Force            0.000059     0.000450     YES
 RMS     Force            0.000028     0.000300     YES
 Maximum Displacement     0.000059     0.001800     YES
 RMS     Displacement     0.000028     0.001200     YES
 Predicted change in Energy=-1.702181D-08
 Optimization completed.
    -- Stationary point found.
 Largest change from initial coordinates is atom    6       0.005 Angstoms.
 GradGradGradGradGradGradGradGradGradGradGradGradGradGradGradGradGradGrad

 Leave Link  103 at Mon Dec 30 12:08:30 2024, MaxMem=   134217728 cpu:               0.0 elap:               0.0
 (Enter /home/emanuele/chem_software/gaussian//gdv/l202.exe)
                          Input orientation:                          
 ---------------------------------------------------------------------
 Center     Atomic      Atomic             Coordinates (Angstroms)
 Number     Number       Type             X           Y           Z
 ---------------------------------------------------------------------
      1          6    90000001        1.952180   -0.120430   -0.000060
      2          1    20001035        2.741121    0.633574    0.000238
      3          1    20001036        2.099246   -0.750457   -0.880032
      4          1    20001037        2.098795   -0.750424    0.879989
      5          6    90000002        0.563232    0.515787   -0.000129
      6          1    20001040        0.453989    1.164031   -0.876423
      7          1    90000003        0.454517    1.163877    0.876311
      8          6    90000004       -0.563216   -0.515670    0.000005
      9          1    90000005       -0.454541   -1.163853   -0.876372
     10          1    90000006       -0.454430   -1.163804    0.876413
     11          6    90000007       -1.952109    0.120454    0.000018
     12          1    90000008       -2.099035    0.750380   -0.880039
     13          1    90000009       -2.740713   -0.633865    0.000018
     14          1    90000010       -2.099038    0.750399    0.880064
 ---------------------------------------------------------------------
                    Distance matrix (angstroms):
                    1          2          3          4          5
     1  C    0.000000
     2  H    1.091307   0.000000
     3  H    1.092206   1.761369   0.000000
     4  H    1.092188   1.761249   1.760022   0.000000
     5  C    1.527726   2.181072   2.176452   2.176201   0.000000
     6  H    2.159265   2.506170   2.524311   3.074981   1.095466
     7  H    2.158811   2.505451   3.074826   2.523533   1.095439
     8  C    2.546259   3.498487   2.813947   2.813501   1.527348
     9  H    2.765675   3.769806   2.587032   3.126540   2.150547
    10  H    2.765611   3.769588   3.126854   2.586475   2.150578
    11  C    3.911713   4.721197   4.236325   4.235871   2.546218
    12  H    4.236156   4.920939   4.458484   4.792901   2.813707
    13  H    4.720896   5.626447   4.920700   4.920241   3.498250
    14  H    4.236192   4.920861   4.793339   4.458057   2.813799
                    6          7          8          9         10
     6  H    0.000000
     7  H    1.752735   0.000000
     8  C    2.150402   2.150482   0.000000
     9  H    2.498893   3.052312   1.095440   0.000000
    10  H    3.052290   2.498857   1.095446   1.752785   0.000000
    11  C    2.765232   2.765586   1.527637   2.158753   2.158803
    12  H    2.586321   3.126719   2.176258   2.523621   3.074727
    13  H    3.769178   3.769517   2.180702   2.505100   2.505193
    14  H    3.126385   2.586816   2.176277   3.074702   2.523672
                   11         12         13         14
    11  C    0.000000
    12  H    1.092197   0.000000
    13  H    1.091281   1.761359   0.000000
    14  H    1.092199   1.760103   1.761367   0.000000
 Symmetry turned off by external request.
 Stoichiometry    C4H10
 Framework group  C1[X(C4H10)]
 Deg. of freedom    36
 Full point group                 C1      NOp   1
 Rotational constants (GHZ):          23.5199695           3.6349763           3.4128097
 Leave Link  202 at Mon Dec 30 12:08:30 2024, MaxMem=   134217728 cpu:               0.0 elap:               0.0
 (Enter /home/emanuele/chem_software/gaussian//gdv/l9999.exe)
 Unable to Open any file for archive entry.
 1\1\GINC-EMANUELE-XPS-13-9343\FOpt\AMBER\ZDO\C4H10\EMANUELE\30-Dec-202
 4\0\\#p Amber=(SoftFirst,Print) nosymm geom=nocrowd opt(MaxMicroiterat
 ions=2000) Freq\\Title\\0,1\C,1.9521799478,-0.1204297947,-0.0000599902
 \H,2.7411209541,0.6335744324,0.0002377187\H,2.0992463034,-0.7504569605
 ,-0.8800324885\H,2.0987954942,-0.7504243829,0.8799890342\C,0.563232300
 2,0.5157868565,-0.0001288188\H,0.4539893237,1.1640306527,-0.8764234042
 \H,0.4545169677,1.163877419,0.8763110428\C,-0.5632164885,-0.5156702281
 ,0.0000054399\H,-0.4545406058,-1.1638525261,-0.8763719311\H,-0.4544299
 173,-1.1638037995,0.876412587\C,-1.9521087299,0.1204543787,0.000017985
 4\H,-2.0990353365,0.7503801322,-0.8800387715\H,-2.7407126953,-0.633865
 1588,0.0000178355\H,-2.0990375179,0.7503989791,0.8800637608\\Version=E
 S64L-GDVRevJ.14\HF=0.0039589\RMSD=0.000e+00\RMSF=2.847e-05\Dipole=-0.0
 000347,-0.0000625,0.0001572\PG=C01 [X(C4H10)]\\@
 The archive entry for this job was punched.


 IF YOU WISH TO UNDERSTAND THE FRAGRANCE OF THE ROSE, 
 OR THE TENACITY OF THE OAK; 
 IF YOU ARE NOT SATISFIED UNTIL YOU KNOW THE SECRET PATHS 
 BY WHICH THE SUNSHINE AND THE AIR ACHIEVE THESE WONDERS; 
 IF YOU WISH TO SEE THE PATTERN WHICH UNDERLIES ONE LARGE FIELD OF 
 HUMAN EXPERIENCE AND HUMAN MEASUREMENT, THEN TAKE UP CHEMISTRY.

                                         -- C. A. COULSON, 1973.
 Leave Link 9999 at Mon Dec 30 12:08:30 2024, MaxMem=   134217728 cpu:               0.0 elap:               0.0
 Job cpu time:       0 days  0 hours  0 minutes  0.7 seconds.
 Elapsed time:       0 days  0 hours  0 minutes  0.7 seconds.
 File lengths (MBytes):  RWF=      6 Int=      0 D2E=      0 Chk=      1 Scr=      1
 Normal termination of Gaussian DV at Mon Dec 30 12:08:30 2024.
 (Enter /home/emanuele/chem_software/gaussian//gdv/l1.exe)
 Link1:  Proceeding to internal job step number  2.
 --------------------------------------------------------------
 #P Geom=AllCheck Guess=TCheck SCRF=Check GenChk AMBER/ZDO Freq
 --------------------------------------------------------------
 1/10=4,18=10,29=7,30=1,38=1,40=1,56=2,64=203,139=2000/1,3;
 2/12=1,15=1,40=1/2;
 3/5=30,11=9,14=-4,25=1,30=1,41=10030000,43=2,70=40000002,71=2,116=-2,140=1/1;
 4/20=11,22=2,24=3,120=2000/2;
 7/8=1,25=1,30=1,44=-1/16;
 1/10=4,18=10,30=1,64=203,139=2000/3;
 99//99;
 Leave Link    1 at Mon Dec 30 12:08:30 2024, MaxMem=   134217728 cpu:               0.0 elap:               0.0
 (Enter /home/emanuele/chem_software/gaussian//gdv/l101.exe)
 MM symbol table in CpMMST:
 There are   15 entries in the MM symbol table.
 Symbol    1 IAtTpT=           0 IUser=           0 String=*
 Symbol    2 IAtTpT=    90000001 IUser=           1 String=C0
 Symbol    3 IAtTpT=    90000002 IUser=           2 String=C4
 Symbol    4 IAtTpT=    90000003 IUser=           3 String=H6
 Symbol    5 IAtTpT=    90000004 IUser=           4 String=C7
 Symbol    6 IAtTpT=    90000005 IUser=           5 String=H8
 Symbol    7 IAtTpT=    90000006 IUser=           6 String=H9
 Symbol    8 IAtTpT=    90000007 IUser=           7 String=C10
 Symbol    9 IAtTpT=    90000008 IUser=           8 String=H11
 Symbol   10 IAtTpT=    90000009 IUser=           9 String=H12
 Symbol   11 IAtTpT=    90000010 IUser=          10 String=H13
 Symbol   12 IAtTpT=    20001035 IUser=           0 String=H1
 Symbol   13 IAtTpT=    20001036 IUser=           0 String=H2
 Symbol   14 IAtTpT=    20001037 IUser=           0 String=H3
 Symbol   15 IAtTpT=    20001040 IUser=           0 String=H5
 Structure from the checkpoint file:  "hessfit4gau.chk"
 -----
 Title
 -----
 Charge =  0 Multiplicity = 1
 No Z-Matrix found in chk file; cartesian coordinates used.
  C-C0--0.267532                                    1.952179947750     -0.120429794685     -0.000059990246
  H-H1-0.083821                                     2.741120954061      0.633574432448      0.000237718680
  H-H2-0.077363                                     2.099246303373     -0.750456960517     -0.880032488470
  H-H3-0.077360                                     2.098795494213     -0.750424382933      0.879989034196
  C-C4--0.092257                                    0.563232300157      0.515786856537     -0.000128818783
  H-H5-0.060623                                     0.453989323698      1.164030652733     -0.876423404173
  H-H6-0.060622                                     0.454516967745      1.163877418963      0.876311042826
  C-C7--0.092258                                   -0.563216488480     -0.515670228075      0.000005439871
  H-H8-0.060627                                    -0.454540605765     -1.163852526126     -0.876371931081
  H-H9-0.060618                                    -0.454429917256     -1.163803799501      0.876412586972
  C-C10--0.267532                                  -1.952108729864      0.120454378656      0.000017985382
  H-H11-0.077330                                   -2.099035336453      0.750380132193     -0.880038771467
  H-H12-0.083821                                   -2.740712695312     -0.633865158811      0.000017835512
  H-H13-0.077394                                   -2.099037517866      0.750398979116      0.880063760781
 Recover connectivity data from disk.
 ITRead=  0  0  0  0  0  0  0  0  0  0  0  0  0  0
 MicOpt= -1 -1 -1 -1 -1 -1 -1 -1 -1 -1 -1 -1 -1 -1
 NAtoms=     14 NQM=       14 NQMF=       0 NMMI=      0 NMMIF=      0
                NMic=       0 NMicF=      0.
                    Isotopes and Nuclear Properties:
 (Nuclear quadrupole moments (NQMom) in fm**2, nuclear magnetic moments (NMagM)
  in nuclear magnetons)

  Atom         1           2           3           4           5           6           7           8           9          10
 IAtWgt=          12           1           1           1          12           1           1          12           1           1
 AtmWgt=  12.0000000   1.0078250   1.0078250   1.0078250  12.0000000   1.0078250   1.0078250  12.0000000   1.0078250   1.0078250
 NucSpn=           0           1           1           1           0           1           1           0           1           1
 AtZEff=   3.9000000   1.0000000   1.0000000   1.0000000   3.9000000   1.0000000   1.0000000   3.9000000   1.0000000   1.0000000
 NQMom=    0.0000000   0.0000000   0.0000000   0.0000000   0.0000000   0.0000000   0.0000000   0.0000000   0.0000000   0.0000000
 NMagM=    0.0000000   2.7928460   2.7928460   2.7928460   0.0000000   2.7928460   2.7928460   0.0000000   2.7928460   2.7928460
 AtZNuc=   6.0000000   1.0000000   1.0000000   1.0000000   6.0000000   1.0000000   1.0000000   6.0000000   1.0000000   1.0000000

  Atom        11          12          13          14
 IAtWgt=          12           1           1           1
 AtmWgt=  12.0000000   1.0078250   1.0078250   1.0078250
 NucSpn=           0           1           1           1
 AtZEff=   3.9000000   1.0000000   1.0000000   1.0000000
 NQMom=    0.0000000   0.0000000   0.0000000   0.0000000
 NMagM=    0.0000000   2.7928460   2.7928460   2.7928460
 AtZNuc=   6.0000000   1.0000000   1.0000000   1.0000000
 Generating MM parameters.
 Retrieving read-in MM parameters from chk file.
 Include all MM classes

 MM sanity checks:
 All charges sum to:                0.00000000
 Charges of atoms sum to:           0.00000000
 WARNING -- The following centers have non-zero partial charges, but zero Vanderwaals
 parameters.  These centers can collapse onto other centers with non-zero charge.
   Center  Layer   Charge
      1 C    R   -0.267532
      5 C    R   -0.092257
      7 H    R    0.060622
      8 C    R   -0.092258
      9 H    R    0.060627
     10 H    R    0.060618
     11 C    R   -0.267532
     12 H    R    0.077330
     13 H    R    0.083821
     14 H    R    0.077394
 MMInit generated parameter data with length LenPar=        3661.
 MM Charge=              0.0000 electrons
 MM Dipole moment (Debye):
    X=             -0.0001    Y=             -0.0002    Z=              0.0004  Tot=              0.0004
 MM Quadrupole moment (Debye-Ang):
   XX=              2.7633   YY=              2.4652   ZZ=              2.0457
   XY=              0.0202   XZ=             -0.0002   YZ=              0.0003
 MM Traceless Quadrupole moment (Debye-Ang):
   XX=              0.3386   YY=              0.0404   ZZ=             -0.3790
   XY=              0.0202   XZ=             -0.0002   YZ=              0.0003
 MM Octapole moment (Debye-Ang**2):
  XXX=              0.0024  YYY=              0.0001  ZZZ=              0.0001  XYY=             -0.0004
  XXY=             -0.0006  XXZ=              0.0016  XZZ=             -0.0002  YZZ=              0.0000
  YYZ=             -0.0000  XYZ=             -0.0000
 MM Hexadecapole moment (Debye-Ang**3):
 XXXX=             36.9359 YYYY=              2.6753 ZZZZ=              1.5785 XXXY=              2.5406
 XXXZ=             -0.0021 YYYX=              0.0180 YYYZ=              0.0001 ZZZX=             -0.0006
 ZZZY=              0.0001 XXYY=              6.2260 XXZZ=              5.2563 YYZZ=              1.8600
 XXYZ=              0.0021 YYXZ=             -0.0002 ZZXY=             -1.3401
 Leave Link  101 at Mon Dec 30 12:08:30 2024, MaxMem=   134217728 cpu:               0.2 elap:               0.2
 (Enter /home/emanuele/chem_software/gaussian//gdv/l103.exe)

 GradGradGradGradGradGradGradGradGradGradGradGradGradGradGradGradGradGrad
 Berny optimization.
 Initialization pass.
 Trust Radius=3.00D-01 FncErr=1.00D-07 GrdErr=1.00D-07 EigMax=2.50D+02 EigMin=1.00D-04
 Number of steps in this run=      2 maximum allowed number of steps=      2.
 GradGradGradGradGradGradGradGradGradGradGradGradGradGradGradGradGradGrad

 Leave Link  103 at Mon Dec 30 12:08:30 2024, MaxMem=   134217728 cpu:               0.0 elap:               0.0
 (Enter /home/emanuele/chem_software/gaussian//gdv/l202.exe)
                          Input orientation:                          
 ---------------------------------------------------------------------
 Center     Atomic      Atomic             Coordinates (Angstroms)
 Number     Number       Type             X           Y           Z
 ---------------------------------------------------------------------
      1          6    90000001        1.952180   -0.120430   -0.000060
      2          1    20001035        2.741121    0.633574    0.000238
      3          1    20001036        2.099246   -0.750457   -0.880032
      4          1    20001037        2.098795   -0.750424    0.879989
      5          6    90000002        0.563232    0.515787   -0.000129
      6          1    20001040        0.453989    1.164031   -0.876423
      7          1    90000003        0.454517    1.163877    0.876311
      8          6    90000004       -0.563216   -0.515670    0.000005
      9          1    90000005       -0.454541   -1.163853   -0.876372
     10          1    90000006       -0.454430   -1.163804    0.876413
     11          6    90000007       -1.952109    0.120454    0.000018
     12          1    90000008       -2.099035    0.750380   -0.880039
     13          1    90000009       -2.740713   -0.633865    0.000018
     14          1    90000010       -2.099038    0.750399    0.880064
 ---------------------------------------------------------------------
                    Distance matrix (angstroms):
                    1          2          3          4          5
     1  C    0.000000
     2  H    1.091307   0.000000
     3  H    1.092206   1.761369   0.000000
     4  H    1.092188   1.761249   1.760022   0.000000
     5  C    1.527726   2.181072   2.176452   2.176201   0.000000
     6  H    2.159265   2.506170   2.524311   3.074981   1.095466
     7  H    2.158811   2.505451   3.074826   2.523533   1.095439
     8  C    2.546259   3.498487   2.813947   2.813501   1.527348
     9  H    2.765675   3.769806   2.587032   3.126540   2.150547
    10  H    2.765611   3.769588   3.126854   2.586475   2.150578
    11  C    3.911713   4.721197   4.236325   4.235871   2.546218
    12  H    4.236156   4.920939   4.458484   4.792901   2.813707
    13  H    4.720896   5.626447   4.920700   4.920241   3.498250
    14  H    4.236192   4.920861   4.793339   4.458057   2.813799
                    6          7          8          9         10
     6  H    0.000000
     7  H    1.752735   0.000000
     8  C    2.150402   2.150482   0.000000
     9  H    2.498893   3.052312   1.095440   0.000000
    10  H    3.052290   2.498857   1.095446   1.752785   0.000000
    11  C    2.765232   2.765586   1.527637   2.158753   2.158803
    12  H    2.586321   3.126719   2.176258   2.523621   3.074727
    13  H    3.769178   3.769517   2.180702   2.505100   2.505193
    14  H    3.126385   2.586816   2.176277   3.074702   2.523672
                   11         12         13         14
    11  C    0.000000
    12  H    1.092197   0.000000
    13  H    1.091281   1.761359   0.000000
    14  H    1.092199   1.760103   1.761367   0.000000
 Symmetry turned off by external request.
 Stoichiometry    C4H10
 Framework group  C1[X(C4H10)]
 Deg. of freedom    36
 Full point group                 C1      NOp   1
 Rotational constants (GHZ):          23.5199695           3.6349763           3.4128097
 Leave Link  202 at Mon Dec 30 12:08:30 2024, MaxMem=   134217728 cpu:               0.0 elap:               0.0
 (Enter /home/emanuele/chem_software/gaussian//gdv/l301.exe)
 Standard basis: Dummy (5D, 7F)
    14 basis functions,    14 primitive gaussians,    14 cartesian basis functions
     9 alpha electrons        9 beta electrons
       nuclear repulsion energy        36.5627579119 Hartrees.
 IExCor=       0 DFT=F Ex=HF Corr=None N6=None ScaHFX=  1.000000
 ScaDFX=  1.000000  1.000000  1.000000  1.000000  1.000000  0.000000
 ScaDFX=  0.000000  0.000000  0.000000  0.000000  0.000000  0.000000
 IRadAn=      5 IRanWt=     -1 IRanGd=            0 ICorTp=0 IEmpDi=  4
 NAtoms=   14 NActive=   14 NUniq=   14 SFac= 1.00D+00 NAtFMM=   60 NAOKFM=F Big=F
 Integral buffers will be    131072 words long.
 Raffenetti 1 integral format.
 Two-electron integral symmetry is turned off.
 Leave Link  301 at Mon Dec 30 12:08:30 2024, MaxMem=   134217728 cpu:               0.0 elap:               0.0
 (Enter /home/emanuele/chem_software/gaussian//gdv/l402.exe)
 AMBER calculation of energy, first and second derivatives.
 Energy per function type:
 Direct Coulomb + vdW (small)                           0.011627314
 Direct Coulomb (large)                                -0.061858788
 Direct vdW (large)                                     0.000000000
 Non-direct Coulomb + vdW (small)                      -0.007755700
 Non-direct Coulomb (large)                             0.061858788
 Non-direct vdW (large)                                 0.000000000
 Harmonic stretch I                                     0.000002462
 Harmonic bend I                                        0.000020549
 Amber torsion                                          0.000064268
 Energy per function class:
        Coulomb               0.003894854
    Vanderwaals              -0.000023240
     Stretching               0.000002462
        Bending               0.000020549
        Torsion               0.000064268
 Energy=    3.958893398E-03 NIter=   0.
 Dipole moment=      -0.000035      -0.000063       0.000157
 Leave Link  402 at Mon Dec 30 12:08:30 2024, MaxMem=   134217728 cpu:               0.0 elap:               0.0
 (Enter /home/emanuele/chem_software/gaussian//gdv/l716.exe)
 Dipole        =-3.47191723D-05-6.25247064D-05 1.57196752D-04
 Full mass-weighted force constant matrix:
 Low frequencies ---  -18.0057    0.0000    0.0000    0.0000    1.6830    1.7373
 Low frequencies ---  144.7887  264.4742  276.1948
 Diagonal vibrational polarizability:
        0.8434412       0.8871553       0.9889011
 Harmonic frequencies (cm**-1), IR intensities (KM/Mole), Raman scattering
 activities (A**4/AMU), depolarization ratios for plane and unpolarized
 incident light, reduced masses (AMU), force constants (mDyne/A),
 and normal coordinates:
                      1                      2                      3
                      A                      A                      A
 Frequencies --    144.7887               264.4742               276.1948
 Red. masses --      2.1325                 1.0266                 2.3613
 Frc consts  --      0.0263                 0.0423                 0.1061
 IR Inten    --      0.0004                 0.1285                 0.4620
  Atom  AN      X      Y      Z        X      Y      Z        X      Y      Z
     1   6     0.00  -0.00  -0.15     0.00   0.00   0.02    -0.07  -0.14   0.00
     2   1     0.00  -0.00  -0.16    -0.00   0.00   0.43     0.13  -0.35   0.00
     3   1    -0.14   0.15  -0.28     0.17   0.31  -0.18    -0.24  -0.19   0.00
     4   1     0.14  -0.15  -0.28    -0.17  -0.31  -0.18    -0.24  -0.19  -0.01
     5   6    -0.00   0.00   0.17    -0.00  -0.00  -0.02     0.07   0.17   0.00
     6   1    -0.12   0.10   0.26     0.02   0.03  -0.00     0.16   0.17  -0.01
     7   1     0.12  -0.10   0.26    -0.02  -0.03  -0.00     0.16   0.17   0.01
     8   6     0.00   0.00   0.17    -0.00  -0.00  -0.02     0.07   0.17  -0.00
     9   1     0.12  -0.10   0.26    -0.02  -0.03  -0.00     0.16   0.17   0.01
    10   1    -0.12   0.10   0.26     0.02   0.03  -0.00     0.16   0.17  -0.01
    11   6    -0.00  -0.00  -0.15     0.00   0.00   0.02    -0.07  -0.14   0.00
    12   1     0.14  -0.15  -0.28    -0.17  -0.31  -0.18    -0.24  -0.19  -0.01
    13   1     0.00  -0.00  -0.16    -0.00   0.00   0.43     0.13  -0.35   0.00
    14   1    -0.14   0.15  -0.28     0.17   0.31  -0.18    -0.24  -0.19   0.00
                      4                      5                      6
                      A                      A                      A
 Frequencies --    312.0136               377.3989               766.4814
 Red. masses --      1.1466                 3.1048                 1.0704
 Frc consts  --      0.0658                 0.2605                 0.3705
 IR Inten    --      0.0000                 0.0000                10.2318
  Atom  AN      X      Y      Z        X      Y      Z        X      Y      Z
     1   6    -0.00  -0.00  -0.00     0.26   0.02  -0.00     0.00  -0.00   0.01
     2   1    -0.00  -0.00   0.39     0.17   0.12  -0.00     0.00  -0.00  -0.05
     3   1     0.18   0.28  -0.17     0.37   0.05  -0.00    -0.10   0.10  -0.08
     4   1    -0.18  -0.28  -0.17     0.37   0.05   0.00     0.10  -0.10  -0.08
     5   6     0.00   0.00  -0.08     0.14  -0.09   0.00    -0.00   0.00   0.05
     6   1     0.00  -0.09  -0.15     0.19  -0.06   0.02     0.01  -0.40  -0.24
     7   1     0.00   0.09  -0.15     0.19  -0.06  -0.02    -0.01   0.40  -0.24
     8   6     0.00   0.00   0.08    -0.14   0.09  -0.00    -0.00   0.00   0.05
     9   1    -0.00  -0.09   0.15    -0.19   0.06   0.02    -0.01   0.40  -0.24
    10   1     0.00   0.09   0.15    -0.19   0.06  -0.02     0.01  -0.40  -0.24
    11   6    -0.00  -0.00   0.00    -0.26  -0.02   0.00     0.00  -0.00   0.01
    12   1     0.18   0.28   0.17    -0.37  -0.05  -0.00     0.10  -0.10  -0.08
    13   1     0.00  -0.00  -0.39    -0.17  -0.12   0.00     0.00   0.00  -0.05
    14   1    -0.18  -0.28   0.17    -0.37  -0.05   0.00    -0.10   0.10  -0.08
                      7                      8                      9
                      A                      A                      A
 Frequencies --    813.2238               847.9637               919.6307
 Red. masses --      1.2160                 1.6035                 1.7349
 Frc consts  --      0.4738                 0.6793                 0.8645
 IR Inten    --      0.0002                 0.0001                 2.0274
  Atom  AN      X      Y      Z        X      Y      Z        X      Y      Z
     1   6     0.00  -0.00   0.03    -0.07  -0.04   0.00     0.12  -0.03   0.00
     2   1     0.00  -0.00  -0.15    -0.43   0.33  -0.00     0.33  -0.24  -0.00
     3   1    -0.23   0.15  -0.12     0.20   0.08  -0.05     0.11  -0.11   0.05
     4   1     0.23  -0.16  -0.12     0.20   0.08   0.04     0.11  -0.11  -0.05
     5   6    -0.00   0.00   0.09    -0.03  -0.14   0.00    -0.11   0.06  -0.00
     6   1     0.14  -0.32  -0.15    -0.06  -0.20  -0.03    -0.31   0.09   0.04
     7   1    -0.14   0.32  -0.15    -0.06  -0.19   0.03    -0.31   0.08  -0.04
     8   6    -0.00  -0.00  -0.09     0.03   0.14  -0.00    -0.12   0.06   0.00
     9   1     0.14  -0.31   0.15     0.05   0.19  -0.03    -0.36   0.08  -0.04
    10   1    -0.14   0.31   0.15     0.05   0.20   0.03    -0.35   0.08   0.04
    11   6    -0.00  -0.00  -0.03     0.07   0.04  -0.00     0.13  -0.03   0.00
    12   1    -0.23   0.15   0.12    -0.20  -0.08  -0.04     0.12  -0.12  -0.05
    13   1    -0.00   0.00   0.15     0.43  -0.33   0.00     0.34  -0.25  -0.00
    14   1     0.23  -0.15   0.12    -0.20  -0.09   0.05     0.12  -0.11   0.05
                     10                     11                     12
                      A                      A                      A
 Frequencies --    931.6194               987.3633               994.2240
 Red. masses --      1.4441                 1.3292                 1.2211
 Frc consts  --      0.7384                 0.7635                 0.7112
 IR Inten    --      0.0022                14.6219                 8.1906
  Atom  AN      X      Y      Z        X      Y      Z        X      Y      Z
     1   6    -0.08   0.05  -0.00    -0.01  -0.10  -0.00    -0.00  -0.00   0.08
     2   1    -0.15   0.13   0.00    -0.35   0.24   0.00    -0.01   0.00  -0.22
     3   1    -0.16   0.09  -0.03     0.37   0.03  -0.04    -0.35   0.20  -0.11
     4   1    -0.16   0.09   0.03     0.36   0.04   0.05     0.35  -0.20  -0.11
     5   6     0.11  -0.01   0.00    -0.03   0.06   0.00     0.00   0.00  -0.05
     6   1     0.45   0.04   0.00     0.03   0.10   0.02     0.17   0.13   0.02
     7   1     0.45   0.05  -0.00     0.03   0.11  -0.02    -0.16  -0.13   0.02
     8   6    -0.10   0.01  -0.00    -0.03   0.06   0.00    -0.00   0.00  -0.05
     9   1    -0.42  -0.06   0.01     0.03   0.11  -0.02    -0.17  -0.13   0.02
    10   1    -0.42  -0.05  -0.01     0.02   0.10   0.02     0.17   0.14   0.02
    11   6     0.07  -0.05  -0.00    -0.01  -0.10  -0.00    -0.00  -0.00   0.08
    12   1     0.14  -0.08  -0.03     0.36   0.04   0.05     0.35  -0.20  -0.11
    13   1     0.13  -0.11   0.00    -0.35   0.24   0.00    -0.00   0.00  -0.22
    14   1     0.15  -0.08   0.03     0.37   0.03  -0.04    -0.34   0.20  -0.11
                     13                     14                     15
                      A                      A                      A
 Frequencies --   1055.9936              1064.0324              1148.9650
 Red. masses --      1.5089                 1.6117                 1.0512
 Frc consts  --      0.9914                 1.0751                 0.8176
 IR Inten    --      0.0000                 0.0000                 0.0002
  Atom  AN      X      Y      Z        X      Y      Z        X      Y      Z
     1   6    -0.00  -0.00   0.10     0.01   0.09   0.00     0.00   0.00   0.02
     2   1    -0.00   0.00  -0.19     0.26  -0.16  -0.00     0.00  -0.00   0.05
     3   1    -0.33   0.20  -0.09    -0.31  -0.02   0.04    -0.01   0.00   0.02
     4   1     0.34  -0.20  -0.08    -0.31  -0.02  -0.04     0.01  -0.00   0.01
     5   6     0.00   0.00  -0.11     0.01  -0.14  -0.00    -0.00  -0.00   0.04
     6   1    -0.11   0.21   0.04    -0.08  -0.28  -0.08    -0.48  -0.14   0.00
     7   1     0.11  -0.21   0.04    -0.09  -0.28   0.08     0.47   0.14   0.00
     8   6     0.00  -0.00   0.11    -0.01   0.14   0.00    -0.00   0.00  -0.04
     9   1    -0.10   0.21  -0.04     0.08   0.28  -0.08    -0.48  -0.14  -0.00
    10   1     0.10  -0.21  -0.04     0.08   0.28   0.08     0.48   0.14  -0.00
    11   6     0.00   0.00  -0.10    -0.01  -0.09  -0.00     0.00  -0.00  -0.02
    12   1    -0.34   0.21   0.09     0.31   0.02   0.04    -0.01   0.00  -0.01
    13   1     0.00  -0.00   0.19    -0.26   0.16   0.00    -0.00   0.00  -0.05
    14   1     0.34  -0.21   0.09     0.31   0.02  -0.04     0.01  -0.00  -0.01
                     16                     17                     18
                      A                      A                      A
 Frequencies --   1172.6548              1288.2810              1322.1423
 Red. masses --      1.0902                 1.3009                 1.1342
 Frc consts  --      0.8833                 1.2721                 1.1681
 IR Inten    --      0.3518                17.1444                17.8590
  Atom  AN      X      Y      Z        X      Y      Z        X      Y      Z
     1   6    -0.00  -0.00  -0.04     0.01   0.03   0.00     0.00  -0.00  -0.00
     2   1    -0.00   0.00   0.02     0.15  -0.10   0.00    -0.11   0.11  -0.00
     3   1     0.09  -0.06   0.01     0.06  -0.04   0.06    -0.11  -0.02  -0.01
     4   1    -0.09   0.06   0.01     0.06  -0.04  -0.06    -0.12  -0.02   0.01
     5   6     0.00   0.00   0.04    -0.10  -0.05  -0.00     0.05  -0.05   0.00
     6   1     0.49   0.01  -0.01     0.40   0.21   0.13    -0.17   0.31   0.31
     7   1    -0.49  -0.01  -0.00     0.40   0.21  -0.13    -0.17   0.31  -0.31
     8   6     0.00  -0.00   0.04    -0.10  -0.05  -0.00     0.05  -0.05   0.00
     9   1    -0.48  -0.01  -0.00     0.40   0.21  -0.13    -0.17   0.31  -0.31
    10   1     0.48   0.01  -0.00     0.40   0.21   0.13    -0.17   0.31   0.31
    11   6    -0.00   0.00  -0.04     0.01   0.03   0.00     0.00  -0.00  -0.00
    12   1    -0.09   0.06   0.01     0.06  -0.04  -0.06    -0.11  -0.02   0.01
    13   1     0.00  -0.00   0.02     0.15  -0.10  -0.00    -0.10   0.11   0.00
    14   1     0.09  -0.06   0.01     0.06  -0.04   0.06    -0.11  -0.02  -0.01
                     19                     20                     21
                      A                      A                      A
 Frequencies --   1338.3629              1420.5629              1425.3638
 Red. masses --      1.1943                 1.1136                 1.0414
 Frc consts  --      1.2604                 1.3240                 1.2466
 IR Inten    --      0.0005                 0.0086                11.1182
  Atom  AN      X      Y      Z        X      Y      Z        X      Y      Z
     1   6     0.01   0.01  -0.00     0.01  -0.05   0.00    -0.01  -0.03   0.00
     2   1    -0.06   0.08  -0.00     0.05  -0.10  -0.01     0.16  -0.23  -0.01
     3   1    -0.12  -0.04   0.01    -0.08   0.36  -0.32     0.03   0.35  -0.27
     4   1    -0.12  -0.04  -0.01    -0.09   0.36   0.32     0.02   0.35   0.27
     5   6     0.02  -0.09   0.00     0.05   0.01   0.00    -0.00  -0.01   0.00
     6   1    -0.13   0.31   0.33    -0.13  -0.01   0.01    -0.00   0.03   0.04
     7   1    -0.13   0.31  -0.33    -0.13  -0.01  -0.01    -0.00   0.04  -0.04
     8   6    -0.02   0.09  -0.00    -0.05  -0.01  -0.00     0.00  -0.01  -0.00
     9   1     0.13  -0.31   0.33     0.13   0.01   0.01    -0.01   0.03  -0.04
    10   1     0.13  -0.31  -0.33     0.13   0.01  -0.01    -0.01   0.03   0.04
    11   6    -0.01  -0.01  -0.00    -0.01   0.05  -0.00    -0.01  -0.04   0.00
    12   1     0.12   0.04   0.02     0.09  -0.34  -0.30     0.01   0.37   0.29
    13   1     0.06  -0.09  -0.00    -0.04   0.09   0.00     0.15  -0.22  -0.00
    14   1     0.12   0.04  -0.02     0.09  -0.34   0.30     0.01   0.37  -0.29
                     22                     23                     24
                      A                      A                      A
 Frequencies --   1430.5489              1431.1430              1442.0424
 Red. masses --      1.0402                 1.0404                 1.3653
 Frc consts  --      1.2542                 1.2555                 1.6727
 IR Inten    --      7.4801                 3.5331                 0.0012
  Atom  AN      X      Y      Z        X      Y      Z        X      Y      Z
     1   6    -0.00  -0.00  -0.05    -0.00   0.00   0.01    -0.06   0.02   0.00
     2   1     0.00  -0.00   0.70    -0.00   0.00  -0.13     0.30  -0.37  -0.00
     3   1    -0.43  -0.22   0.02     0.08   0.04  -0.00     0.25   0.14  -0.02
     4   1     0.43   0.23   0.03    -0.08  -0.04  -0.00     0.24   0.14   0.02
     5   6     0.00  -0.00  -0.01    -0.00   0.00   0.00    -0.09  -0.07  -0.00
     6   1     0.02  -0.00  -0.01    -0.01  -0.00   0.00     0.17   0.09   0.10
     7   1    -0.02   0.00  -0.02     0.01   0.00   0.00     0.17   0.09  -0.10
     8   6    -0.00  -0.00  -0.00     0.00  -0.00  -0.01     0.09   0.07  -0.00
     9   1     0.00   0.00  -0.00    -0.02   0.00  -0.01    -0.17  -0.09   0.10
    10   1    -0.00  -0.00  -0.00     0.02  -0.00  -0.01    -0.17  -0.09  -0.10
    11   6    -0.00  -0.00  -0.01    -0.00  -0.00  -0.05     0.06  -0.02   0.00
    12   1     0.08   0.04   0.00     0.43   0.23   0.02    -0.24  -0.15  -0.03
    13   1     0.00  -0.00   0.13     0.00  -0.00   0.70    -0.30   0.37   0.00
    14   1    -0.08  -0.04   0.00    -0.43  -0.23   0.02    -0.25  -0.15   0.03
                     25                     26                     27
                      A                      A                      A
 Frequencies --   1510.2744              1573.2948              3002.9275
 Red. masses --      1.5581                 2.3470                 1.0599
 Frc consts  --      2.0939                 3.4227                 5.6314
 IR Inten    --     24.0067                 0.0000                10.9142
  Atom  AN      X      Y      Z        X      Y      Z        X      Y      Z
     1   6     0.13  -0.05   0.00     0.13  -0.05   0.00    -0.02   0.01   0.00
     2   1    -0.20   0.32  -0.00    -0.09   0.22  -0.00     0.15   0.14   0.00
     3   1    -0.35   0.04  -0.17    -0.27   0.05  -0.16     0.04  -0.13  -0.18
     4   1    -0.35   0.04   0.17    -0.27   0.05   0.16     0.04  -0.13   0.18
     5   6    -0.07   0.02   0.00    -0.20  -0.02   0.00    -0.01   0.04  -0.00
     6   1     0.09  -0.02  -0.06     0.30   0.05  -0.02     0.04  -0.26   0.34
     7   1     0.09  -0.02   0.06     0.30   0.05   0.02     0.04  -0.26  -0.34
     8   6    -0.07   0.02   0.00     0.20   0.02  -0.00    -0.01   0.04  -0.00
     9   1     0.09  -0.02   0.06    -0.30  -0.05  -0.02     0.04  -0.25  -0.33
    10   1     0.09  -0.02  -0.06    -0.30  -0.05   0.02     0.04  -0.25   0.33
    11   6     0.13  -0.05  -0.00    -0.13   0.05   0.00    -0.02   0.01   0.00
    12   1    -0.35   0.04   0.17     0.27  -0.05  -0.16     0.03  -0.13   0.17
    13   1    -0.20   0.32  -0.00     0.09  -0.22  -0.00     0.14   0.13  -0.00
    14   1    -0.35   0.04  -0.17     0.27  -0.05   0.16     0.03  -0.13  -0.17
                     28                     29                     30
                      A                      A                      A
 Frequencies --   3006.2018              3010.3031              3014.8698
 Red. masses --      1.0527                 1.0577                 1.0751
 Frc consts  --      5.6054                 5.6474                 5.7576
 IR Inten    --      0.0037                 4.2697                 0.0007
  Atom  AN      X      Y      Z        X      Y      Z        X      Y      Z
     1   6     0.03  -0.02  -0.00    -0.03   0.02  -0.00    -0.02   0.01  -0.00
     2   1    -0.23  -0.21  -0.00     0.24   0.22   0.00     0.16   0.14   0.00
     3   1    -0.06   0.21   0.29     0.05  -0.21  -0.28     0.03  -0.13  -0.18
     4   1    -0.06   0.21  -0.29     0.05  -0.21   0.28     0.03  -0.13   0.18
     5   6     0.00  -0.03   0.00     0.01  -0.03  -0.00     0.01  -0.05  -0.00
     6   1    -0.03   0.15  -0.20    -0.03   0.15  -0.20    -0.05   0.26  -0.34
     7   1    -0.03   0.15   0.20    -0.03   0.15   0.20    -0.04   0.26   0.34
     8   6    -0.00   0.03   0.00     0.01  -0.03  -0.00    -0.01   0.05  -0.00
     9   1     0.03  -0.16  -0.21    -0.03   0.16   0.21     0.04  -0.25  -0.33
    10   1     0.03  -0.16   0.21    -0.03   0.16  -0.21     0.04  -0.25   0.33
    11   6    -0.03   0.02  -0.00    -0.03   0.02   0.00     0.02  -0.01   0.00
    12   1     0.06  -0.21   0.29     0.05  -0.21   0.29    -0.03   0.12  -0.17
    13   1     0.24   0.22  -0.00     0.25   0.22  -0.00    -0.16  -0.14   0.00
    14   1     0.06  -0.21  -0.29     0.05  -0.21  -0.29    -0.03   0.12   0.17
                     31                     32                     33
                      A                      A                      A
 Frequencies --   3069.6158              3075.0646              3112.3526
 Red. masses --      1.1102                 1.1176                 1.1167
 Frc consts  --      6.1634                 6.2265                 6.3733
 IR Inten    --     12.5047                 0.0003                 3.4947
  Atom  AN      X      Y      Z        X      Y      Z        X      Y      Z
     1   6     0.00  -0.00  -0.00    -0.00   0.00   0.00     0.00   0.00  -0.09
     2   1     0.00   0.00   0.00    -0.00  -0.00  -0.00    -0.00  -0.00   0.02
     3   1    -0.01   0.02   0.03     0.01  -0.03  -0.04    -0.09   0.37   0.53
     4   1     0.01  -0.02   0.02    -0.01   0.03  -0.03     0.09  -0.37   0.53
     5   6    -0.00   0.00  -0.07     0.00  -0.00   0.07    -0.00   0.00   0.01
     6   1     0.05  -0.29   0.40    -0.05   0.29  -0.40    -0.00   0.03  -0.04
     7   1    -0.05   0.29   0.40     0.05  -0.29  -0.40     0.00  -0.03  -0.04
     8   6    -0.00  -0.00  -0.07    -0.00   0.00  -0.07    -0.00  -0.00  -0.00
     9   1    -0.05   0.29   0.40    -0.05   0.29   0.40    -0.00   0.01   0.02
    10   1     0.05  -0.29   0.40     0.05  -0.29   0.40     0.00  -0.01   0.02
    11   6    -0.00  -0.00  -0.00     0.00  -0.00  -0.00    -0.00  -0.00   0.04
    12   1     0.01  -0.02   0.03     0.01  -0.03   0.03    -0.03   0.14  -0.21
    13   1     0.00   0.00   0.00    -0.00  -0.00   0.00     0.00   0.00  -0.01
    14   1    -0.01   0.02   0.03    -0.01   0.03   0.03     0.03  -0.14  -0.21
                     34                     35                     36
                      A                      A                      A
 Frequencies --   3112.4089              3120.9971              3121.0543
 Red. masses --      1.1166                 1.1164                 1.1165
 Frc consts  --      6.3730                 6.4069                 6.4077
 IR Inten    --     18.0667                17.6875                 7.8329
  Atom  AN      X      Y      Z        X      Y      Z        X      Y      Z
     1   6     0.00   0.00  -0.04    -0.04  -0.09  -0.00     0.01   0.02   0.00
     2   1    -0.00  -0.00   0.01     0.59   0.57   0.00    -0.12  -0.11  -0.00
     3   1    -0.03   0.14   0.21    -0.04   0.22   0.29     0.01  -0.05  -0.06
     4   1     0.03  -0.14   0.21    -0.04   0.22  -0.29     0.01  -0.04   0.06
     5   6    -0.00   0.00   0.00     0.00   0.00   0.00     0.00  -0.00  -0.00
     6   1     0.00   0.01  -0.01    -0.00  -0.00   0.01    -0.00   0.00  -0.01
     7   1    -0.00  -0.01  -0.01    -0.00  -0.01  -0.01    -0.00   0.00   0.01
     8   6    -0.00  -0.00   0.01     0.00  -0.00  -0.00     0.00   0.00   0.00
     9   1    -0.00  -0.03  -0.04    -0.00   0.00   0.00    -0.00  -0.01  -0.01
    10   1     0.00   0.03  -0.04    -0.00   0.00  -0.00    -0.00  -0.01   0.01
    11   6     0.00   0.00  -0.09    -0.01  -0.02   0.00    -0.04  -0.09  -0.00
    12   1     0.09  -0.37   0.53    -0.01   0.05  -0.06    -0.04   0.22  -0.29
    13   1    -0.00  -0.00   0.02     0.12   0.11  -0.00     0.59   0.57   0.00
    14   1    -0.09   0.37   0.53    -0.01   0.04   0.06    -0.04   0.22   0.29

 -------------------
 - Thermochemistry -
 -------------------
 Temperature   298.150 Kelvin.  Pressure      1.00000 Atm.
 Atom     1 has atomic number  6 and mass  12.00000
 Atom     2 has atomic number  1 and mass   1.00783
 Atom     3 has atomic number  1 and mass   1.00783
 Atom     4 has atomic number  1 and mass   1.00783
 Atom     5 has atomic number  6 and mass  12.00000
 Atom     6 has atomic number  1 and mass   1.00783
 Atom     7 has atomic number  1 and mass   1.00783
 Atom     8 has atomic number  6 and mass  12.00000
 Atom     9 has atomic number  1 and mass   1.00783
 Atom    10 has atomic number  1 and mass   1.00783
 Atom    11 has atomic number  6 and mass  12.00000
 Atom    12 has atomic number  1 and mass   1.00783
 Atom    13 has atomic number  1 and mass   1.00783
 Atom    14 has atomic number  1 and mass   1.00783
 Molecular mass:    58.07825 amu.
 Principal axes and moments of inertia in atomic units:
                                 1                 2                 3
     Eigenvalues --           76.732293        496.493252        528.813893
           X                   0.999986         -0.005203          0.000017
           Y                   0.005203          0.999986          0.000082
           Z                  -0.000017         -0.000082          1.000000
 This molecule is an asymmetric top.
 Rotational symmetry number  1.
 Rotational temperatures (Kelvin)      1.12878     0.17445     0.16379
 Rotational constants (GHZ):          23.51997     3.63498     3.41281
 Zero-point vibrational energy     340366.5 (Joules/Mol)
                                   81.34954 (Kcal/Mol)
 Warning -- explicit consideration of   5 degrees of freedom as
           vibrations may cause significant error
 Vibrational temperatures:    208.32   380.52   397.38   448.92   542.99
          (Kelvin)           1102.80  1170.05  1220.03  1323.14  1340.39
                             1420.60  1430.47  1519.34  1530.91  1653.10
                             1687.19  1853.55  1902.27  1925.61  2043.87
                             2050.78  2058.24  2059.10  2074.78  2172.95
                             2263.62  4320.54  4325.25  4331.15  4337.73
                             4416.49  4424.33  4477.98  4478.06  4490.42
                             4490.50
 
 Zero-point correction=                           0.129639 (Hartree/Particle)
 Thermal correction to Energy=                    0.135352
 Thermal correction to Enthalpy=                  0.136296
 Thermal correction to Gibbs Free Energy=         0.101890
 Sum of electronic and zero-point Energies=              0.133598
 Sum of electronic and thermal Energies=                 0.139311
 Sum of electronic and thermal Enthalpies=               0.140255
 Sum of electronic and thermal Free Energies=            0.105849
 
                     E (Thermal)             CV                S
                      KCal/Mol        Cal/Mol-Kelvin    Cal/Mol-Kelvin
 Total                   84.935             20.240             72.413
 Electronic               0.000              0.000              0.000
 Translational            0.889              2.981             38.098
 Rotational               0.889              2.981             24.514
 Vibrational             83.157             14.279              9.801
 Vibration     1          0.616              1.908              2.740
 Vibration     2          0.671              1.738              1.632
 Vibration     3          0.678              1.717              1.557
 Vibration     4          0.700              1.651              1.352
 Vibration     5          0.748              1.518              1.050
                       Q            Log10(Q)             Ln(Q)
 Total Bot       0.136070D-46        -46.866236       -107.913497
 Total V=0       0.579959D+13         12.763397         29.388809
 Vib (Bot)       0.153938D-58        -58.812653       -135.421138
 Vib (Bot)    1  0.140252D+01          0.146908          0.338269
 Vib (Bot)    2  0.732779D+00         -0.135027         -0.310911
 Vib (Bot)    3  0.697498D+00         -0.156457         -0.360255
 Vib (Bot)    4  0.605330D+00         -0.218008         -0.501982
 Vib (Bot)    5  0.479952D+00         -0.318802         -0.734069
 Vib (V=0)       0.656116D+01          0.816980          1.881167
 Vib (V=0)    1  0.198898D+01          0.298630          0.687621
 Vib (V=0)    2  0.138711D+01          0.142111          0.327223
 Vib (V=0)    3  0.135820D+01          0.132963          0.306159
 Vib (V=0)    4  0.128513D+01          0.108946          0.250857
 Vib (V=0)    5  0.119308D+01          0.076668          0.176535
 Electronic      0.100000D+01          0.000000          0.000000
 Translational   0.173970D+08          7.240474         16.671808
 Rotational      0.508093D+05          4.705943         10.835834
 
                                                                Title
                                                             IR Spectrum
 
 3333333333                                                         1 111111  111    11  11                                          
 1111000000                                                         5 544444  332    11  0099 99  88 7               3  322    1     
 2211771100                                                         7 143322  328    74  6598 32  41 6               7  176    4     
 1122505063                                                         3 021151  828    39  4647 20  83 6               7  264    5     
 
 XXXX X X X                                                           X XXX    XX    X     XX  X     X                   XX          
 XXXX X X X                                                           X XXX    XX          XX  X     X                               
 XXXX X X X                                                           X XXX    XX          XX        X                               
 XXX  X X X                                                           X  XX    XX          XX        X                               
 XXX  X   X                                                           X  XX    XX          XX        X                               
 XXX  X   X                                                           X  XX    XX          XX        X                               
 XXX  X   X                                                           X   X    XX          XX        X                               
  XX  X   X                                                           X   X    XX           X        X                               
  XX  X   X                                                           X   X    XX           X        X                               
  XX  X                                                               X        XX           X                                        
  XX                                                                  X        XX           X                                        
  XX                                                                  X        XX           X                                        
  XX                                                                  X        XX                                                    
  XX                                                                  X        XX                                                    
  XX                                                                  X        X                                                     
                                                                      X                                                              
                                                                      X                                                              
                                                                      X                                                              
                                                                      X                                                              
                                                                      X                                                              
 
 -------------------------------------------------------------------
 Center     Atomic                   Forces (Hartrees/Bohr)
 Number     Number              X              Y              Z
 -------------------------------------------------------------------
      1        6           0.000004001   -0.000021311    0.000002246
      2        1          -0.000012936    0.000026431    0.000003367
      3        1          -0.000030730    0.000006768   -0.000026411
      4        1          -0.000026803    0.000004459    0.000022997
      5        6           0.000003322   -0.000036437    0.000002431
      6        1           0.000023182    0.000052356   -0.000058938
      7        1           0.000019463    0.000051788    0.000052552
      8        6          -0.000007470    0.000032622    0.000002011
      9        1          -0.000016846   -0.000051140   -0.000052598
     10        1          -0.000018270   -0.000048287    0.000050195
     11        6          -0.000005666    0.000019489    0.000001889
     12        1           0.000026528   -0.000006648   -0.000024182
     13        1           0.000014450   -0.000022430    0.000000968
     14        1           0.000027777   -0.000007661    0.000023474
 -------------------------------------------------------------------
 Cartesian Forces:  Max     0.000058938 RMS     0.000028470
 Z-matrix is all fixed cartesians, so copy forces.
 Leave Link  716 at Mon Dec 30 12:08:30 2024, MaxMem=   134217728 cpu:               0.0 elap:               0.0
 (Enter /home/emanuele/chem_software/gaussian//gdv/l103.exe)

 GradGradGradGradGradGradGradGradGradGradGradGradGradGradGradGradGradGrad
 Berny optimization.
 Search for a local minimum.
 Step number   1 out of a maximum of    2
 All quantities printed in internal units (Hartrees-Bohrs-Radians)
 Second derivative matrix not updated -- analytic derivatives used.
 ITU=  0
     Eigenvalues ---    0.00163   0.00286   0.00448   0.00668   0.01501
     Eigenvalues ---    0.02773   0.03493   0.04198   0.04451   0.04604
     Eigenvalues ---    0.04639   0.05707   0.05810   0.06075   0.07698
     Eigenvalues ---    0.09180   0.09551   0.09784   0.10693   0.11354
     Eigenvalues ---    0.11579   0.15779   0.17250   0.23103   0.33713
     Eigenvalues ---    0.52904   0.58356   0.75172   0.80666   0.80914
     Eigenvalues ---    0.87288   0.88740   0.88981   0.92857   0.95639
     Eigenvalues ---    0.97871
 Angle between quadratic step and forces=  56.39 degrees.
 Linear search not attempted -- first point.
 B after Tr=    -0.000001    0.000002   -0.000003
         Rot=    1.000000    0.000000   -0.000000   -0.000001 Ang=   0.00 deg.
 Variable       Old X    -DE/DX   Delta X   Delta X   Delta X     New X
                                 (Linear)    (Quad)   (Total)
    X1        3.68909   0.00000   0.00000  -0.00052  -0.00052   3.68856
    Y1       -0.22758  -0.00002   0.00000   0.00002   0.00003  -0.22755
    Z1       -0.00011   0.00000   0.00000   0.00009   0.00009  -0.00003
    X2        5.17997  -0.00001   0.00000  -0.00059  -0.00059   5.17937
    Y2        1.19728   0.00003   0.00000   0.00013   0.00014   1.19742
    Z2        0.00045   0.00000   0.00000   0.00067   0.00067   0.00112
    X3        3.96700  -0.00003   0.00000  -0.00090  -0.00090   3.96611
    Y3       -1.41816   0.00001   0.00000   0.00050   0.00051  -1.41765
    Z3       -1.66302  -0.00003   0.00000  -0.00037  -0.00037  -1.66339
    X4        3.96615  -0.00003   0.00000  -0.00144  -0.00144   3.96471
    Y4       -1.41810   0.00000   0.00000  -0.00022  -0.00021  -1.41831
    Z4        1.66294   0.00002   0.00000   0.00012   0.00011   1.66305
    X5        1.06435   0.00000   0.00000  -0.00012  -0.00013   1.06423
    Y5        0.97470  -0.00004   0.00000   0.00031   0.00032   0.97501
    Z5       -0.00024   0.00000   0.00000  -0.00019  -0.00019  -0.00043
    X6        0.85792   0.00002   0.00000   0.00055   0.00055   0.85846
    Y6        2.19970   0.00005   0.00000   0.00040   0.00040   2.20010
    Z6       -1.65620  -0.00006   0.00000  -0.00050  -0.00050  -1.65670
    X7        0.85891   0.00002   0.00000   0.00029   0.00028   0.85920
    Y7        2.19941   0.00005   0.00000   0.00069   0.00070   2.20010
    Z7        1.65599   0.00005   0.00000  -0.00014  -0.00015   1.65584
    X8       -1.06432  -0.00001   0.00000   0.00015   0.00015  -1.06417
    Y8       -0.97448   0.00003   0.00000  -0.00021  -0.00021  -0.97469
    Z8        0.00001   0.00000   0.00000  -0.00009  -0.00009  -0.00008
    X9       -0.85896  -0.00002   0.00000  -0.00035  -0.00034  -0.85930
    Y9       -2.19936  -0.00005   0.00000  -0.00050  -0.00050  -2.19986
    Z9       -1.65610  -0.00005   0.00000  -0.00021  -0.00022  -1.65632
   X10       -0.85875  -0.00002   0.00000  -0.00020  -0.00019  -0.85894
   Y10       -2.19927  -0.00005   0.00000  -0.00039  -0.00039  -2.19966
   Z10        1.65618   0.00005   0.00000   0.00008   0.00008   1.65626
   X11       -3.68895  -0.00001   0.00000   0.00047   0.00047  -3.68848
   Y11        0.22763   0.00002   0.00000  -0.00007  -0.00007   0.22755
   Z11        0.00003   0.00000   0.00000   0.00010   0.00010   0.00013
   X12       -3.96660   0.00003   0.00000   0.00084   0.00083  -3.96577
   Y12        1.41801  -0.00001   0.00000  -0.00030  -0.00031   1.41770
   Z12       -1.66303  -0.00002   0.00000  -0.00018  -0.00018  -1.66321
   X13       -5.17920   0.00001   0.00000   0.00062   0.00062  -5.17857
   Y13       -1.19783  -0.00002   0.00000  -0.00024  -0.00025  -1.19809
   Z13        0.00003   0.00000   0.00000   0.00035   0.00035   0.00038
   X14       -3.96661   0.00003   0.00000   0.00120   0.00120  -3.96541
   Y14        1.41805  -0.00001   0.00000  -0.00014  -0.00014   1.41791
   Z14        1.66308   0.00002   0.00000   0.00031   0.00031   1.66339
         Item               Value     Threshold  Converged?
 Maximum Force            0.000059     0.000450     YES
 RMS     Force            0.000028     0.000300     YES
 Maximum Displacement     0.001439     0.001800     YES
 RMS     Displacement     0.000482     0.001200     YES
 Predicted change in Energy=-1.594584D-07
 Optimization completed.
    -- Stationary point found.
 GradGradGradGradGradGradGradGradGradGradGradGradGradGradGradGradGradGrad

 Leave Link  103 at Mon Dec 30 12:08:30 2024, MaxMem=   134217728 cpu:               0.0 elap:               0.0
 (Enter /home/emanuele/chem_software/gaussian//gdv/l9999.exe)
 Unable to Open any file for archive entry.
 1\1\GINC-EMANUELE-XPS-13-9343\Freq\AMBER\ZDO\C4H10\EMANUELE\30-Dec-202
 4\0\\#P Geom=AllCheck Guess=TCheck SCRF=Check GenChk AMBER/ZDO Freq\\T
 itle\\0,1\C,1.9521799478,-0.1204297947,-0.0000599902\H,2.7411209541,0.
 6335744324,0.0002377187\H,2.0992463034,-0.7504569605,-0.8800324885\H,2
 .0987954942,-0.7504243829,0.8799890342\C,0.5632323002,0.5157868565,-0.
 0001288188\H,0.4539893237,1.1640306527,-0.8764234042\H,0.4545169677,1.
 163877419,0.8763110428\C,-0.5632164885,-0.5156702281,0.0000054399\H,-0
 .4545406058,-1.1638525261,-0.8763719311\H,-0.4544299173,-1.1638037995,
 0.876412587\C,-1.9521087299,0.1204543787,0.0000179854\H,-2.0990353365,
 0.7503801322,-0.8800387715\H,-2.7407126953,-0.6338651588,0.0000178355\
 H,-2.0990375179,0.7503989791,0.8800637608\\Version=ES64L-GDVRevJ.14\HF
 =0.0039589\RMSD=0.000e+00\RMSF=2.847e-05\ZeroPoint=0.1296388\Thermal=0
 .135352\ETot=0.1393109\HTot=0.1402551\GTot=0.1058492\Dipole=-0.0000347
 ,-0.0000625,0.0001572\DipoleDeriv=-0.267532,0.,0.,0.,-0.267532,0.,0.,0
 .,-0.267532,0.083821,0.,0.,0.,0.083821,0.,0.,0.,0.083821,0.077363,0.,0
 .,0.,0.077363,0.,0.,0.,0.077363,0.07736,0.,0.,0.,0.07736,0.,0.,0.,0.07
 736,-0.092257,0.,0.,0.,-0.092257,0.,0.,0.,-0.092257,0.060623,0.,0.,0.,
 0.060623,0.,0.,0.,0.060623,0.060622,0.,0.,0.,0.060622,0.,0.,0.,0.06062
 2,-0.092258,0.,0.,0.,-0.092258,0.,0.,0.,-0.092258,0.060627,0.,0.,0.,0.
 060627,0.,0.,0.,0.060627,0.060618,0.,0.,0.,0.060618,0.,0.,0.,0.060618,
 -0.267532,0.,0.,0.,-0.267532,0.,0.,0.,-0.267532,0.07733,0.,0.,0.,0.077
 33,0.,0.,0.,0.07733,0.083821,0.,0.,0.,0.083821,0.,0.,0.,0.083821,0.077
 394,0.,0.,0.,0.077394,0.,0.,0.,0.077394\PG=C01 [X(C4H10)]\NImag=0\\0.5
 8431444,0.00822462,0.59159937,-0.00006724,0.00006671,0.58822297,-0.207
 20448,-0.13885015,-0.00003986,0.19798291,-0.13277456,-0.18911322,-0.00
 006104,0.14259738,0.18505943,-0.00003738,-0.00006190,-0.05579839,0.000
 10434,0.00004637,0.04294535,-0.06713943,0.02614714,0.03172362,0.008114
 05,-0.00848272,-0.01848395,0.05340114,0.02342010,-0.14756893,-0.129607
 94,0.00546422,-0.00571245,-0.01254503,-0.02405223,0.13854128,0.0273186
 5,-0.12740913,-0.23363426,-0.00255611,0.00267222,0.00589262,-0.0292267
 2,0.13429895,0.23066171,-0.06712041,0.02608947,-0.03160299,0.00809808,
 -0.00848060,0.01847544,0.00098202,-0.00393535,0.00298168,0.05335298,0.
 02337956,-0.14758063,0.12961559,0.00545268,-0.00571028,0.01254650,-0.0
 0392891,0.01693605,-0.01278220,-0.02395957,0.13850121,-0.02722653,0.12
 743003,-0.23369883,0.00255424,-0.00267492,0.00590358,-0.00297616,0.012
 77952,-0.00964705,0.02912881,-0.13431525,0.23071597,-0.24524831,0.0733
 0422,-0.00006885,-0.00675176,0.00706461,-0.00000124,0.00464807,-0.0010
 6402,0.00153862,0.00465712,-0.00106475,-0.00153809,0.55375333,0.072459
 89,-0.11843773,0.00001807,-0.01474002,0.01542300,-0.00000252,0.0101494
 3,-0.00232344,0.00335973,0.01016507,-0.00232396,-0.00335713,-0.0112680
 3,0.56817129,0.00001370,-0.00002457,-0.07829567,-0.00000413,0.00000360
 ,0.00182851,0.01896208,-0.00491094,0.00668511,-0.01898342,0.00492261,0
 .00668654,0.00014015,-0.00002267,0.57334806,0.00442063,0.00964902,-0.0
 1670129,-0.00020436,0.00005869,-0.00059578,-0.00011228,-0.00004771,0.0
 0009340,0.00011222,0.00025615,0.00013537,-0.06267377,0.01525595,-0.021
 83105,0.05152255,-0.00105061,-0.00229306,0.00520113,0.00005875,0.00003
 480,-0.00106696,-0.00004773,-0.00039364,0.00020331,0.00025615,0.000517
 05,0.00035167,0.01506638,-0.14621077,0.13028080,-0.01569758,0.13915568
 ,-0.00132829,-0.00289919,0.00592963,-0.00009669,0.00002263,-0.00073267
 ,-0.00009935,-0.00021751,0.00017773,0.00014562,0.00037405,0.00022781,-
 0.02118792,0.12932346,-0.22471195,0.02241823,-0.13461751,0.22140994,0.
 00443541,0.00968492,0.01675509,-0.00005988,0.00002301,0.00053857,0.000
 11180,0.00025780,-0.00013385,-0.00007662,-0.00009232,-0.00009332,-0.06
 275236,0.01517837,0.02168747,0.00026606,-0.00224507,-0.00169397,0.0514
 1072,-0.00105167,-0.00229651,-0.00523104,0.00002295,0.00003428,0.00108
 345,0.00025779,0.00051607,-0.00035330,-0.00009230,-0.00034436,-0.00020
 338,0.01501606,-0.14620091,-0.13026091,-0.00223931,0.01322480,0.010062
 28,-0.01557199,0.13910270,0.00132784,0.00289951,0.00594647,0.00003831,
 -0.00000869,-0.00072039,-0.00014413,-0.00037576,0.00022709,0.00009938,
 0.00021732,0.00017495,0.02109061,-0.12934202,-0.22484852,0.00168888,-0
 .01005767,-0.00765076,-0.02225586,0.13461481,0.22151107,-0.00660775,-0
 .01442562,0.00000160,0.00003738,0.00002076,0.,0.00006668,-0.00000936,-
 0.00003512,0.00006670,-0.00000938,0.00003513,-0.19277992,-0.08958333,0
 .00001614,0.00679551,0.00347549,0.00172385,0.00679026,0.00347566,-0.00
 172783,0.55406268,0.00721629,0.01575414,-0.00000154,0.00002076,-0.0000
 1508,0.00000009,-0.00000934,-0.00003866,0.00000305,-0.00000940,-0.0000
 3882,-0.00000314,-0.08958015,-0.17616982,0.00001180,-0.00741937,-0.003
 79435,-0.00188196,-0.00741758,-0.00379697,0.00188761,-0.01121826,0.568
 30928,-0.00000073,-0.00000143,0.00161162,-0.00000010,-0.00000016,0.000
 66898,0.00022519,0.00057133,-0.00039128,-0.00022509,-0.00057124,-0.000
 39132,0.00002702,0.00002128,-0.07225640,0.01515494,0.00934592,0.005024
 41,-0.01516833,-0.00935103,0.00503319,0.00000600,-0.00001293,0.5735125
 2,0.00012041,0.00009321,-0.00031651,-0.00001625,-0.00001704,-0.0000083
 1,-0.00007721,-0.00001900,0.00000017,-0.00002276,-0.00000737,-0.000031
 30,0.00679062,-0.00741798,-0.01517101,-0.00045238,0.00048371,0.0004382
 7,0.00032316,-0.00035096,0.00028193,-0.06275288,0.01515773,0.02168173,
 0.05141223,0.00009326,-0.00005420,0.00046510,-0.00001704,0.00000447,-0
 .00000468,-0.00001900,0.00003707,0.00000003,-0.00000737,0.00002155,-0.
 00000507,0.00347724,-0.00379870,-0.00935046,0.00048359,-0.00060711,-0.
 00047858,-0.00035096,0.00035948,-0.00033776,0.01500130,-0.14624014,-0.
 13027011,-0.01555952,0.13913644,0.00007832,0.00003391,-0.00043401,-0.0
 0000831,-0.00000468,0.00001178,0.00000017,0.00000003,0.00004014,-0.000
 03130,-0.00000507,0.00000121,-0.00172975,0.00188970,0.00503445,-0.0004
 3781,0.00047818,0.00043740,0.00028197,-0.00033781,0.00027046,0.0210911
 7,-0.12934378,-0.22482274,-0.02225414,0.13462076,0.22148659,0.00012040
 ,0.00009329,0.00031642,-0.00001625,-0.00001704,0.00000831,-0.00002275,
 -0.00000736,0.00003128,-0.00007724,-0.00001901,-0.00000016,0.00679550,
 -0.00741935,0.01517020,0.00032160,-0.00034933,-0.00028083,-0.00045270,
 0.00048393,-0.00043803,-0.06276171,0.01517091,-0.02170387,0.00026235,-
 0.00223800,0.00168779,0.05141925,0.00009324,-0.00005430,-0.00046510,-0
 .00001704,0.00000447,0.00000467,-0.00000736,0.00002154,0.00000506,-0.0
 0001901,0.00003708,-0.00000003,0.00347687,-0.00379586,0.00935095,-0.00
 034933,0.00035779,0.00033663,0.00048404,-0.00060746,0.00047843,0.01501
 430,-0.14622210,0.13026729,-0.00223936,0.01323180,-0.01006414,-0.01557
 283,0.13911796,-0.00007833,-0.00003400,-0.00043399,0.00000831,0.000004
 67,0.00001178,0.00003128,0.00000506,0.00000121,-0.00000016,-0.00000003
 ,0.00004016,0.00172776,-0.00188622,0.00503231,-0.00028059,0.00033637,0
 .00026949,0.00043820,-0.00047850,0.00043727,-0.02111297,0.12933889,-0.
 22483034,-0.00168865,0.01006317,-0.00765228,0.02227735,-0.13461554,0.2
 2149606,-0.00029365,0.00002723,0.00000003,0.00006204,0.00001023,0.,0.0
 0007034,-0.00002379,-0.00002404,0.00007036,-0.00002380,0.00002405,-0.0
 0660928,0.00721796,-0.00000008,0.00012044,0.00009329,-0.00007838,0.000
 12040,0.00009328,0.00007830,-0.24545365,0.07254989,0.00000333,0.004437
 37,-0.00105203,0.00132836,0.00443623,-0.00105206,-0.00132869,0.5845305
 0,0.00002723,0.00014598,0.00000004,0.00001023,-0.00003046,0.,-0.000023
 79,-0.00003523,0.00000517,-0.00002380,-0.00003524,-0.00000517,-0.01443
 048,0.01575945,-0.00000021,0.00009334,-0.00005428,-0.00003402,0.000093
 23,-0.00005421,0.00003393,0.07330721,-0.11855786,0.00000043,0.00968807
 ,-0.00229687,0.00290018,0.00968624,-0.00229713,-0.00290114,0.00812205,
 0.59192391,0.00000001,0.00000007,0.00068630,0.,0.,-0.00003158,-0.00002
 404,0.00000517,-0.00003512,0.00002405,-0.00000517,-0.00003513,0.000001
 74,-0.00000169,0.00161114,0.00031622,-0.00046497,-0.00043419,-0.000316
 54,0.00046514,-0.00043398,0.00000162,0.00000137,-0.07838276,0.01675644
 ,-0.00522913,0.00594544,-0.01675707,0.00522857,0.00594673,-0.00000177,
 0.00000355,0.58844564,0.00007032,-0.00002378,0.00002404,-0.00001533,0.
 00000056,-0.00000425,-0.00001661,0.00000951,0.,-0.00001048,0.00000662,
 -0.00000777,0.00006666,-0.00000938,-0.00022516,-0.00007723,-0.00001902
 ,-0.00000017,-0.00002275,-0.00000736,-0.00003128,0.00465479,0.01016348
 ,-0.01898873,-0.00007662,-0.00009234,0.00009942,0.00011176,0.00025775,
 0.00014413,-0.06716833,0.02612619,-0.03168363,0.05339200,-0.00002378,-
 0.00003522,-0.00000517,0.00000056,0.00000805,0.00000010,0.00000951,0.0
 0000660,0.,0.00000662,0.00000568,0.00000278,-0.00000939,-0.00003877,-0
 .00057134,-0.00001902,0.00003707,-0.00000003,-0.00000736,0.00002153,-0
 .00000506,-0.00106489,-0.00232515,0.00492028,-0.00009233,-0.00034438,0
 .00021741,0.00025775,0.00051608,0.00037578,0.02340605,-0.14757590,0.12
 957498,-0.02399452,0.13849702,0.00002404,-0.00000517,-0.00003511,-0.00
 000425,0.00000010,0.00000729,0.,0.,0.00001000,-0.00000777,0.00000278,0
 .00000479,0.00003509,-0.00000312,-0.00039123,-0.00000017,-0.00000003,0
 .00004015,-0.00003128,-0.00000506,0.00000121,-0.00153935,-0.00336110,0
 .00669203,-0.00009328,-0.00020333,0.00017494,0.00013381,0.00035325,0.0
 0022707,-0.02729309,0.12739907,-0.23371292,0.02919842,-0.13428687,0.23
 072657,0.00006205,0.00001024,0.,-0.00001080,-0.00000385,0.,-0.00001534
 ,0.00000056,0.00000426,-0.00001535,0.00000056,-0.00000426,0.00003738,0
 .00002077,0.,-0.00001624,-0.00001706,0.00000831,-0.00001624,-0.0000170
 5,-0.00000831,-0.00677336,-0.01478871,0.00000007,-0.00005982,0.0000231
 3,0.00003823,-0.00005981,0.00002311,-0.00003823,-0.20715358,-0.1388021
 1,0.00000045,0.00811136,0.00546852,0.00256005,0.19779844,0.00001024,-0
 .00003046,0.,-0.00000385,0.00000496,0.,0.00000056,0.00000805,-0.000000
 10,0.00000056,0.00000805,0.00000010,0.00002077,-0.00001508,0.,-0.00001
 706,0.00000446,0.00000468,-0.00001705,0.00000447,-0.00000468,0.0070812
 1,0.01546087,-0.00000008,0.00002312,0.00003455,-0.00000886,0.00002312,
 0.00003456,0.00000886,-0.13277499,-0.18931166,0.00000015,-0.00848003,-
 0.00571707,-0.00267640,0.14261336,0.18523138,0.,0.,-0.00003158,0.,0.,0
 .00000585,0.00000426,-0.00000010,0.00000729,-0.00000426,0.00000010,0.0
 0000729,0.00000003,0.00000005,0.00066890,0.00000831,0.00000468,0.00001
 178,-0.00000831,-0.00000468,0.00001178,0.00000012,0.00000023,0.0018403
 7,0.00053845,0.00108330,-0.00072049,-0.00053850,-0.00108341,-0.0007204
 2,-0.00000028,-0.00000078,-0.05586249,0.01849266,0.01256355,0.00590534
 ,-0.00000037,-0.00000023,0.04297124,0.00007038,-0.00002380,-0.00002406
 ,-0.00001535,0.00000057,0.00000426,-0.00001048,0.00000663,0.00000777,-
 0.00001662,0.00000952,0.,0.00006672,-0.00000935,0.00022512,-0.00002276
 ,-0.00000737,0.00003132,-0.00007725,-0.00001901,0.00000017,0.00465526,
 0.01016376,0.01898858,0.00011175,0.00025774,-0.00014412,-0.00007664,-0
 .00009231,-0.00009941,-0.06716919,0.02612639,0.03168253,0.00098044,-0.
 00393772,-0.00298222,0.00811130,-0.00847996,-0.01849211,0.05339244,-0.
 00002380,-0.00003524,0.00000517,0.00000057,0.00000805,-0.00000010,0.00
 000663,0.00000569,-0.00000278,0.00000952,0.00000661,0.,-0.00000934,-0.
 00003871,0.00057134,-0.00000737,0.00002156,0.00000507,-0.00001901,0.00
 003709,0.00000003,-0.00106508,-0.00232536,-0.00491956,0.00025774,0.000
 51603,-0.00037584,-0.00009232,-0.00034442,-0.00021738,0.02340670,-0.14
 758050,-0.12957804,-0.00393769,0.01694444,0.01278587,0.00546853,-0.005
 71708,-0.01256272,-0.02399508,0.13850185,-0.00002406,0.00000517,-0.000
 03513,0.00000426,-0.00000010,0.00000729,0.00000777,-0.00000278,0.00000
 480,0.,0.,0.00001001,-0.00003516,0.00000307,-0.00039126,0.00003132,0.0
 0000507,0.00000121,0.00000017,0.00000003,0.00004016,0.00153962,0.00336
 141,0.00669172,-0.00013378,-0.00035326,0.00022711,0.00009330,0.0002033
 5,0.00017495,0.02729226,-0.12740105,-0.23370709,0.00298232,-0.01278641
 ,-0.00965014,-0.00256019,0.00267656,0.00590514,-0.02919782,0.13428893,
 0.23072123\\-0.00000400,0.00002131,-0.00000225,0.00001294,-0.00002643,
 -0.00000337,0.00003073,-0.00000677,0.00002641,0.00002680,-0.00000446,-
 0.00002300,-0.00000332,0.00003644,-0.00000243,-0.00002318,-0.00005236,
 0.00005894,-0.00001946,-0.00005179,-0.00005255,0.00000747,-0.00003262,
 -0.00000201,0.00001685,0.00005114,0.00005260,0.00001827,0.00004829,-0.
 00005019,0.00000567,-0.00001949,-0.00000189,-0.00002653,0.00000665,0.0
 0002418,-0.00001445,0.00002243,-0.00000097,-0.00002778,0.00000766,-0.0
 0002347\\\@
 The archive entry for this job was punched.


 IF YOU WISH TO UNDERSTAND THE FRAGRANCE OF THE ROSE, 
 OR THE TENACITY OF THE OAK; 
 IF YOU ARE NOT SATISFIED UNTIL YOU KNOW THE SECRET PATHS 
 BY WHICH THE SUNSHINE AND THE AIR ACHIEVE THESE WONDERS; 
 IF YOU WISH TO SEE THE PATTERN WHICH UNDERLIES ONE LARGE FIELD OF 
 HUMAN EXPERIENCE AND HUMAN MEASUREMENT, THEN TAKE UP CHEMISTRY.

                                         -- C. A. COULSON, 1973.
 Job cpu time:       0 days  0 hours  0 minutes  0.5 seconds.
 Elapsed time:       0 days  0 hours  0 minutes  0.5 seconds.
 File lengths (MBytes):  RWF=      6 Int=      0 D2E=      0 Chk=      1 Scr=      1
 Normal termination of Gaussian DV at Mon Dec 30 12:08:30 2024.
