 Entering Gaussian System, Link 0=g09
 Input=smartfield4gau.gjf
 Output=smartfield4gau.log
 Initial command:
 /home/emanuele/chem_software/gaussian//g09/l1.exe "/home/emanuele/chem_software/gaussian/Gau-6396.inp" -scrdir="/home/emanuele/chem_software/gaussian/"
 Entering Link 1 = /home/emanuele/chem_software/gaussian//g09/l1.exe PID=      6398.
  
 Copyright (c) 1988,1990,1992,1993,1995,1998,2003,2009,2013,
            Gaussian, Inc.  All Rights Reserved.
  
 This is part of the Gaussian(R) 09 program.  It is based on
 the Gaussian(R) 03 system (copyright 2003, Gaussian, Inc.),
 the Gaussian(R) 98 system (copyright 1998, Gaussian, Inc.),
 the Gaussian(R) 94 system (copyright 1995, Gaussian, Inc.),
 the Gaussian 92(TM) system (copyright 1992, Gaussian, Inc.),
 the Gaussian 90(TM) system (copyright 1990, Gaussian, Inc.),
 the Gaussian 88(TM) system (copyright 1988, Gaussian, Inc.),
 the Gaussian 86(TM) system (copyright 1986, Carnegie Mellon
 University), and the Gaussian 82(TM) system (copyright 1983,
 Carnegie Mellon University). Gaussian is a federally registered
 trademark of Gaussian, Inc.
  
 This software contains proprietary and confidential information,
 including trade secrets, belonging to Gaussian, Inc.
  
 This software is provided under written license and may be
 used, copied, transmitted, or stored only in accord with that
 written license.
  
 The following legend is applicable only to US Government
 contracts under FAR:
  
                    RESTRICTED RIGHTS LEGEND
  
 Use, reproduction and disclosure by the US Government is
 subject to restrictions as set forth in subparagraphs (a)
 and (c) of the Commercial Computer Software - Restricted
 Rights clause in FAR 52.227-19.
  
 Gaussian, Inc.
 340 Quinnipiac St., Bldg. 40, Wallingford CT 06492
  
  
 ---------------------------------------------------------------
 Warning -- This program may not be used in any manner that
 competes with the business of Gaussian, Inc. or will provide
 assistance to any competitor of Gaussian, Inc.  The licensee
 of this program is prohibited from giving any competitor of
 Gaussian, Inc. access to this program.  By using this program,
 the user acknowledges that Gaussian, Inc. is engaged in the
 business of creating and licensing software in the field of
 computational chemistry and represents and warrants to the
 licensee that it is not a competitor of Gaussian, Inc. and that
 it will not use this program in any manner prohibited above.
 ---------------------------------------------------------------
  

 Cite this work as:
 Gaussian 09, Revision D.01,
 M. J. Frisch, G. W. Trucks, H. B. Schlegel, G. E. Scuseria, 
 M. A. Robb, J. R. Cheeseman, G. Scalmani, V. Barone, B. Mennucci, 
 G. A. Petersson, H. Nakatsuji, M. Caricato, X. Li, H. P. Hratchian, 
 A. F. Izmaylov, J. Bloino, G. Zheng, J. L. Sonnenberg, M. Hada, 
 M. Ehara, K. Toyota, R. Fukuda, J. Hasegawa, M. Ishida, T. Nakajima, 
 Y. Honda, O. Kitao, H. Nakai, T. Vreven, J. A. Montgomery, Jr., 
 J. E. Peralta, F. Ogliaro, M. Bearpark, J. J. Heyd, E. Brothers, 
 K. N. Kudin, V. N. Staroverov, T. Keith, R. Kobayashi, J. Normand, 
 K. Raghavachari, A. Rendell, J. C. Burant, S. S. Iyengar, J. Tomasi, 
 M. Cossi, N. Rega, J. M. Millam, M. Klene, J. E. Knox, J. B. Cross, 
 V. Bakken, C. Adamo, J. Jaramillo, R. Gomperts, R. E. Stratmann, 
 O. Yazyev, A. J. Austin, R. Cammi, C. Pomelli, J. W. Ochterski, 
 R. L. Martin, K. Morokuma, V. G. Zakrzewski, G. A. Voth, 
 P. Salvador, J. J. Dannenberg, S. Dapprich, A. D. Daniels, 
 O. Farkas, J. B. Foresman, J. V. Ortiz, J. Cioslowski, 
 and D. J. Fox, Gaussian, Inc., Wallingford CT, 2013.
 
 ******************************************
 Gaussian 09:  ES64L-G09RevD.01 24-Apr-2013
                18-Jul-2022 
 ******************************************
 %mem=4GB
 %nprocshared=1
 Will use up to    1 processors via shared memory.
 %chk=smartfield4gau.chk
 --------------------------------------------------
 #p Amber=(SoftFirst,Print) nosymm geom=nocrowd opt
 --------------------------------------------------
 1/6=10,10=10,14=-1,18=4000020,19=15,38=1,56=2,64=203/1,3;
 2/9=110,12=1,15=1,17=6,18=5,40=1/2;
 3/5=30,11=9,16=1,25=1,30=1,41=10300000,43=2,71=1/1;
 4/20=11,22=1001,24=3,119=11/2;
 7/30=1,44=-1/16;
 1/6=10,10=10,14=-1,18=4000020,19=15,64=203/3(2);
 2/9=110,12=1,15=1/2;
 99//99;
 2/9=110,12=1,15=1/2;
 3/5=30,11=9,16=1,25=1,30=1,41=10300000,43=2,71=1/1;
 4/16=2,20=11,22=1001,24=3,119=11/2;
 7/30=1,44=-1/16;
 1/6=10,10=10,14=-1,18=4000020,19=15,64=203/3(-4);
 2/9=110,12=1,15=1/2;
 99//99;
 Leave Link    1 at Mon Jul 18 17:04:55 2022, MaxMem=   536870912 cpu:         0.0
 (Enter /home/emanuele/chem_software/gaussian//g09/l101.exe)
 -----
 Title
 -----
 Symbolic Z-matrix:
 Charge =  0 Multiplicity = 1
 C-CT                  1.9569   -0.12039   0. 
 H-HC                  2.74201   0.63726   0. 
 H-HC                  2.10375  -0.74938  -0.88076 
 H-HC                  2.10375  -0.74938   0.88076 
 C-CT                  0.56696   0.51292   0. 
 H-HC                  0.46175   1.1634   -0.87403 
 H-HC                  0.46175   1.1634    0.87403 
 C-CT                 -0.56696  -0.51292   0. 
 H-HC                 -0.46175  -1.1634   -0.87403 
 H-HC                 -0.46175  -1.1634    0.87403 
 C-CT                 -1.9569    0.12039   0. 
 H-HC                 -2.10375   0.74938  -0.88076 
 H-HC                 -2.74201  -0.63726   0. 
 H-HC                 -2.10375   0.74938   0.88076 
 
 NAtoms=     14 NQM=        0 NQMF=       0 NMMI=      0 NMMIF=      0
                NMic=      14 NMicF=      0.
                    Isotopes and Nuclear Properties:
 (Nuclear quadrupole moments (NQMom) in fm**2, nuclear magnetic moments (NMagM)
  in nuclear magnetons)

  Atom         1           2           3           4           5           6           7           8           9          10
 IAtWgt=          12           1           1           1          12           1           1          12           1           1
 AtmWgt=  12.0000000   1.0078250   1.0078250   1.0078250  12.0000000   1.0078250   1.0078250  12.0000000   1.0078250   1.0078250
 NucSpn=           0           1           1           1           0           1           1           0           1           1
 AtZEff=   0.0000000   0.0000000   0.0000000   0.0000000   0.0000000   0.0000000   0.0000000   0.0000000   0.0000000   0.0000000
 NQMom=    0.0000000   0.0000000   0.0000000   0.0000000   0.0000000   0.0000000   0.0000000   0.0000000   0.0000000   0.0000000
 NMagM=    0.0000000   2.7928460   2.7928460   2.7928460   0.0000000   2.7928460   2.7928460   0.0000000   2.7928460   2.7928460
 AtZNuc=   6.0000000   1.0000000   1.0000000   1.0000000   6.0000000   1.0000000   1.0000000   6.0000000   1.0000000   1.0000000

  Atom        11          12          13          14
 IAtWgt=          12           1           1           1
 AtmWgt=  12.0000000   1.0078250   1.0078250   1.0078250
 NucSpn=           0           1           1           1
 AtZEff=   0.0000000   0.0000000   0.0000000   0.0000000
 NQMom=    0.0000000   0.0000000   0.0000000   0.0000000
 NMagM=    0.0000000   2.7928460   2.7928460   2.7928460
 AtZNuc=   6.0000000   1.0000000   1.0000000   1.0000000
 Generating MM parameters.
 Read MM parameter file:
 Include all MM classes

 MM sanity checks:
 All charges sum to:                0.00000000
 Charges of atoms sum to:           0.00000000
 MMInit generated parameter data with length LenPar=        2565.
 Leave Link  101 at Mon Jul 18 17:04:55 2022, MaxMem=   536870912 cpu:         0.2
 (Enter /home/emanuele/chem_software/gaussian//g09/l103.exe)

 GradGradGradGradGradGradGradGradGradGradGradGradGradGradGradGradGradGrad
 Berny optimization.
 Initialization pass.
 No Z-matrix variables, so optimization will use Cartesian coordinates.
 Trust Radius=1.00D-01 FncErr=1.00D-07 GrdErr=1.00D-07
 Number of steps in this run=      2 maximum allowed number of steps=      2.
 GradGradGradGradGradGradGradGradGradGradGradGradGradGradGradGradGradGrad

 Leave Link  103 at Mon Jul 18 17:04:55 2022, MaxMem=   536870912 cpu:         0.0
 (Enter /home/emanuele/chem_software/gaussian//g09/l202.exe)
                          Input orientation:                          
 ---------------------------------------------------------------------
 Center     Atomic      Atomic             Coordinates (Angstroms)
 Number     Number       Type             X           Y           Z
 ---------------------------------------------------------------------
      1          6    20001001        1.956897   -0.120392    0.000000
      2          1    20001034        2.742005    0.637259    0.000000
      3          1    20001034        2.103753   -0.749379   -0.880760
      4          1    20001034        2.103753   -0.749379    0.880760
      5          6    20001001        0.566957    0.512915    0.000000
      6          1    20001034        0.461751    1.163403   -0.874026
      7          1    20001034        0.461751    1.163404    0.874026
      8          6    20001001       -0.566957   -0.512915    0.000000
      9          1    20001034       -0.461751   -1.163403   -0.874026
     10          1    20001034       -0.461751   -1.163404    0.874026
     11          6    20001001       -1.956897    0.120392    0.000000
     12          1    20001034       -2.103753    0.749379   -0.880760
     13          1    20001034       -2.742005   -0.637259    0.000000
     14          1    20001034       -2.103753    0.749379    0.880760
 ---------------------------------------------------------------------
                    Distance matrix (angstroms):
                    1          2          3          4          5
     1  C    0.000000
     2  H    1.091068   0.000000
     3  H    1.092213   1.762348   0.000000
     4  H    1.092213   1.762348   1.761520   0.000000
     5  C    1.527420   2.178599   2.175055   2.175055   0.000000
     6  H    2.155809   2.498061   2.520903   3.071511   1.094589
     7  H    2.155810   2.498061   3.071512   2.520904   1.094589
     8  C    2.554195   3.503160   2.822117   2.822117   1.529081
     9  H    2.775185   3.777613   2.598706   3.135682   2.152255
    10  H    2.775185   3.777613   3.135682   2.598706   2.152256
    11  C    3.921194   4.727244   4.245129   4.245129   2.554195
    12  H    4.245129   4.926427   4.466473   4.801285   2.822117
    13  H    4.727244   5.630165   4.926427   4.926427   3.503160
    14  H    4.245129   4.926427   4.801285   4.466473   2.822117
                    6          7          8          9         10
     6  H    0.000000
     7  H    1.748052   0.000000
     8  C    2.152255   2.152256   0.000000
     9  H    2.503374   3.053289   1.094589   0.000000
    10  H    3.053289   2.503376   1.094589   1.748052   0.000000
    11  C    2.775185   2.775185   1.527420   2.155809   2.155810
    12  H    2.598706   3.135682   2.175055   2.520903   3.071512
    13  H    3.777613   3.777613   2.178599   2.498061   2.498061
    14  H    3.135682   2.598706   2.175055   3.071511   2.520904
                   11         12         13         14
    11  C    0.000000
    12  H    1.092213   0.000000
    13  H    1.091068   1.762348   0.000000
    14  H    1.092213   1.761520   1.762348   0.000000
 Symmetry turned off by external request.
 Stoichiometry    C4H10
 Framework group  C2H[SGH(C4H2),X(H8)]
 Deg. of freedom    11
 Full point group                 C2H     NOp   4
 Rotational constants (GHZ):     23.6116437      3.6179190      3.3991534
 Leave Link  202 at Mon Jul 18 17:04:55 2022, MaxMem=   536870912 cpu:         0.0
 (Enter /home/emanuele/chem_software/gaussian//g09/l301.exe)
 Standard basis: Dummy (5D, 7F)
    14 basis functions,    14 primitive gaussians,    14 cartesian basis functions
     9 alpha electrons        9 beta electrons
       nuclear repulsion energy        36.5440151950 Hartrees.
 IExCor=    0 DFT=F Ex=HF Corr=None ExCW=0 ScaHFX=  1.000000
 ScaDFX=  1.000000  1.000000  1.000000  1.000000 ScalE2=  1.000000  1.000000
 IRadAn=      0 IRanWt=     -1 IRanGd=            0 ICorTp=0 IEmpDi=  4
 NAtoms=   14 NActive=   14 NUniq=   14 SFac= 1.00D+00 NAtFMM=   60 NAOKFM=F Big=F
 Integral buffers will be    131072 words long.
 Raffenetti 1 integral format.
 Two-electron integral symmetry is turned off.
 Leave Link  301 at Mon Jul 18 17:04:55 2022, MaxMem=   536870912 cpu:         0.0
 (Enter /home/emanuele/chem_software/gaussian//g09/l402.exe)
 AMBER calculation of energy and first derivatives.
 NRF= 0 NRA=   0 NVA=  14 HaveQM=F NVQ=       0
 Convergence limit is  0.750E-04 MaxStp= 10000 StMxLn= 3.00D-04 StpMin= 1.00D-06.
 Convergence criteria             0.00011250 0.00007500 0.00045000 0.00030000
  Step  NS  ND Rises OKQ   Scale  Max. Force  RMS Force Max. Disp.  RMS Disp.     Energy   Flag
     1   0   0   F    T  1.00D+00 0.01489229 0.00494208 0.01489229 0.00494208    0.0027659 ----
     2   0   0   F    F  2.14D-01 0.01489229 0.00494208 0.00318195 0.00105595    0.0021634 ----
     3   0   0   F    T  3.81D+00 0.00287648 0.00150607 0.01100361 0.00599802    0.0021441 ----
     4   0   0   F    F  5.40D-01 0.00287648 0.00150607 0.00594521 0.00324071    0.0018989 ----
     5   0   0   F    T  4.36D+00 0.00498997 0.00147899 0.01544789 0.00923873    0.0018645 ----
     6   0   0   F    F -4.41D-01 0.00498997 0.00147899 0.00680860 0.00407194    0.0018221 ----
     7   0   0   F    T  2.79D+00 0.00296445 0.00120517 0.01104901 0.00516679    0.0017525 ----
     8   0   0   F    F  6.02D-01 0.00296445 0.00120517 0.00665356 0.00311137    0.0016355 ----
     9   0   0   F    T  4.59D+00 0.00266664 0.00106669 0.02363790 0.00827816    0.0016163 ----
    10   0   0   F    F -4.84D-01 0.00266664 0.00106669 0.01143346 0.00400408    0.0016094 ----
    11   0   0   F    T  6.66D+00 0.00140533 0.00050170 0.00894803 0.00427408    0.0015597 ----
    12   0   0   T    F  3.73D-01 0.00140533 0.00050170 0.00333799 0.00159441    0.0015837 ----
    13   0   0   F    T  3.60D+00 0.00050043 0.00033598 0.00335989 0.00159441    0.0015466 ----
    14   0   0   F    F  4.91D+00 0.00050043 0.00033598 0.01648574 0.00782319    0.0015309 ----
    15   0   0   F    T  1.72D+01 0.00093796 0.00033258 0.02044690 0.00941760    0.0014961 ----
    16   0   0   T    F  1.05D-01 0.00093796 0.00033258 0.00214876 0.00098969    0.0017962 ----
    17   0   0   F    T  2.70D+00 0.00044304 0.00023780 0.00182666 0.00098969    0.0014919 ----
    18   0   0   F    F  2.04D+00 0.00044304 0.00023780 0.00372553 0.00201851    0.0014865 ----
    19   0   0   F    T  1.00D+01 0.00064940 0.00018941 0.00583708 0.00300821    0.0014821 ----
    20   0   0   T    F  2.45D-01 0.00064940 0.00018941 0.00143085 0.00073740    0.0014978 ----
    21   0   0   F    T  2.90D+00 0.00038815 0.00015506 0.00154918 0.00073740    0.0014803 ----
    22   0   0   F    T  4.87D+00 0.00025184 0.00010816 0.00159799 0.00073740    0.0014786 ----
    23   0   0   F    F -3.25D-01 0.00025184 0.00010816 0.00051900 0.00023950    0.0014780 ---+
    24   0   0   F    T  1.02D+01 0.00008600 0.00003510 0.00081871 0.00049791    0.0014778 ++--
    25   0   0   T    T  1.00D+00 0.00047003 0.00016273 0.00047003 0.00016273    0.0014785 ---+
    26   0   0   T    F  5.00D-01 0.00047003 0.00016273 0.00023502 0.00008137    0.0014784 --++
    27   0   0   T    F  5.00D-01 0.00047003 0.00016273 0.00011751 0.00004068    0.0014780 --++
    28   0   0   T    F  5.00D-01 0.00047003 0.00016273 0.00005875 0.00002034    0.0014778 --++
    29   0   0   T    F  5.00D-01 0.00047003 0.00016273 0.00002938 0.00001017    0.0014778 --++
    30   0   0   T    F  5.00D-01 0.00047003 0.00016273 0.00001469 0.00000509    0.0014778 --++
    31   0   0   T    F  5.00D-01 0.00047003 0.00016273 0.00000734 0.00000254    0.0014778 --++
    32   0   0   T    F  5.00D-01 0.00047003 0.00016273 0.00000367 0.00000127    0.0014778 --++
    33   0   0   T    F  5.00D-01 0.00047003 0.00016273 0.00000184 0.00000064    0.0014778 --++
    34   0   0   T    F  5.00D-01 0.00047003 0.00016273 0.00000092 0.00000032    0.0014778 --++
    35   0   0   T    T  1.00D+00 0.00008642 0.00003530 0.00004384 0.00002018    0.0014778 ++++
    36   0   0   F    T  1.00D+00 0.00007261 0.00003189 0.00007155 0.00003186    0.0014777 ====
 ****************************
 MOLECULAR MECHANICS FUNCTION
 ****************************
 Atomic parameters:
 Center  VDW
      1 1.9080 0.1094000
      2 1.4870 0.0157000
      3 1.4870 0.0157000
      4 1.4870 0.0157000
      5 1.9080 0.1094000
      6 1.4870 0.0157000
      7 1.4870 0.0157000
      8 1.9080 0.1094000
      9 1.4870 0.0157000
     10 1.4870 0.0157000
     11 1.9080 0.1094000
     12 1.4870 0.0157000
     13 1.4870 0.0157000
     14 1.4870 0.0157000
 Molecular mechanics terms:
 NBDir 3 1      0      0
 HrmStr1  1- 2  340.00 1.0900
 HrmStr1  1- 3  340.00 1.0900
 HrmStr1  1- 4  340.00 1.0900
 HrmStr1  1- 5  310.00 1.5260
 HrmStr1  5- 6  340.00 1.0900
 HrmStr1  5- 7  340.00 1.0900
 HrmStr1  5- 8  310.00 1.5260
 HrmStr1  8- 9  340.00 1.0900
 HrmStr1  8-10  340.00 1.0900
 HrmStr1  8-11  310.00 1.5260
 HrmStr1 11-12  340.00 1.0900
 HrmStr1 11-13  340.00 1.0900
 HrmStr1 11-14  340.00 1.0900
 HrmBnd1  1- 5- 6  50.00 109.50
 HrmBnd1  1- 5- 7  50.00 109.50
 HrmBnd1  1- 5- 8  40.00 109.50
 HrmBnd1  2- 1- 3  35.00 109.50
 HrmBnd1  2- 1- 4  35.00 109.50
 HrmBnd1  2- 1- 5  50.00 109.50
 HrmBnd1  3- 1- 4  35.00 109.50
 HrmBnd1  3- 1- 5  50.00 109.50
 HrmBnd1  4- 1- 5  50.00 109.50
 HrmBnd1  5- 8- 9  50.00 109.50
 HrmBnd1  5- 8-10  50.00 109.50
 HrmBnd1  5- 8-11  40.00 109.50
 HrmBnd1  6- 5- 7  35.00 109.50
 HrmBnd1  6- 5- 8  50.00 109.50
 HrmBnd1  7- 5- 8  50.00 109.50
 HrmBnd1  8-11-12  50.00 109.50
 HrmBnd1  8-11-13  50.00 109.50
 HrmBnd1  8-11-14  50.00 109.50
 HrmBnd1  9- 8-10  35.00 109.50
 HrmBnd1  9- 8-11  50.00 109.50
 HrmBnd1 10- 8-11  50.00 109.50
 HrmBnd1 12-11-13  35.00 109.50
 HrmBnd1 12-11-14  35.00 109.50
 HrmBnd1 13-11-14  35.00 109.50
 AmbTrs  2- 1- 5- 6   0   0   0   0  0.0000  0.0000  1.4000  0.0000  9.0
 AmbTrs  2- 1- 5- 7   0   0   0   0  0.0000  0.0000  1.4000  0.0000  9.0
 AmbTrs  2- 1- 5- 8   0   0   0   0  0.0000  0.0000  1.4000  0.0000  9.0
 AmbTrs  3- 1- 5- 6   0   0   0   0  0.0000  0.0000  1.4000  0.0000  9.0
 AmbTrs  3- 1- 5- 7   0   0   0   0  0.0000  0.0000  1.4000  0.0000  9.0
 AmbTrs  3- 1- 5- 8   0   0   0   0  0.0000  0.0000  1.4000  0.0000  9.0
 AmbTrs  4- 1- 5- 6   0   0   0   0  0.0000  0.0000  1.4000  0.0000  9.0
 AmbTrs  4- 1- 5- 7   0   0   0   0  0.0000  0.0000  1.4000  0.0000  9.0
 AmbTrs  4- 1- 5- 8   0   0   0   0  0.0000  0.0000  1.4000  0.0000  9.0
 AmbTrs  1- 5- 8- 9   0   0   0   0  0.0000  0.0000  1.4000  0.0000  9.0
 AmbTrs  1- 5- 8-10   0   0   0   0  0.0000  0.0000  1.4000  0.0000  9.0
 AmbTrs  1- 5- 8-11   0   0   0   0  0.0000  0.0000  1.4000  0.0000  9.0
 AmbTrs  6- 5- 8- 9   0   0   0   0  0.0000  0.0000  1.4000  0.0000  9.0
 AmbTrs  6- 5- 8-10   0   0   0   0  0.0000  0.0000  1.4000  0.0000  9.0
 AmbTrs  6- 5- 8-11   0   0   0   0  0.0000  0.0000  1.4000  0.0000  9.0
 AmbTrs  7- 5- 8- 9   0   0   0   0  0.0000  0.0000  1.4000  0.0000  9.0
 AmbTrs  7- 5- 8-10   0   0   0   0  0.0000  0.0000  1.4000  0.0000  9.0
 AmbTrs  7- 5- 8-11   0   0   0   0  0.0000  0.0000  1.4000  0.0000  9.0
 AmbTrs  5- 8-11-12   0   0   0   0  0.0000  0.0000  1.4000  0.0000  9.0
 AmbTrs  5- 8-11-13   0   0   0   0  0.0000  0.0000  1.4000  0.0000  9.0
 AmbTrs  5- 8-11-14   0   0   0   0  0.0000  0.0000  1.4000  0.0000  9.0
 AmbTrs  9- 8-11-12   0   0   0   0  0.0000  0.0000  1.4000  0.0000  9.0
 AmbTrs  9- 8-11-13   0   0   0   0  0.0000  0.0000  1.4000  0.0000  9.0
 AmbTrs  9- 8-11-14   0   0   0   0  0.0000  0.0000  1.4000  0.0000  9.0
 AmbTrs 10- 8-11-12   0   0   0   0  0.0000  0.0000  1.4000  0.0000  9.0
 AmbTrs 10- 8-11-13   0   0   0   0  0.0000  0.0000  1.4000  0.0000  9.0
 AmbTrs 10- 8-11-14   0   0   0   0  0.0000  0.0000  1.4000  0.0000  9.0
 NBPair  2- 1 3 1      0      0 -1.000 -1.000
 NBPair  3- 2 3 1      0      0 -1.000 -1.000
 NBPair  4- 2 3 1      0      0 -1.000 -1.000
 NBPair  5- 2 3 1      0      0 -1.000 -1.000
 NBPair  3- 1 3 1      0      0 -1.000 -1.000
 NBPair  4- 3 3 1      0      0 -1.000 -1.000
 NBPair  5- 3 3 1      0      0 -1.000 -1.000
 NBPair  4- 1 3 1      0      0 -1.000 -1.000
 NBPair  5- 4 3 1      0      0 -1.000 -1.000
 NBPair  5- 1 3 1      0      0 -1.000 -1.000
 NBPair  6- 2 3 1      0      0 -0.500 -0.167
 NBPair  7- 2 3 1      0      0 -0.500 -0.167
 NBPair  8- 2 3 1      0      0 -0.500 -0.167
 NBPair  6- 3 3 1      0      0 -0.500 -0.167
 NBPair  7- 3 3 1      0      0 -0.500 -0.167
 NBPair  8- 3 3 1      0      0 -0.500 -0.167
 NBPair  6- 4 3 1      0      0 -0.500 -0.167
 NBPair  7- 4 3 1      0      0 -0.500 -0.167
 NBPair  8- 4 3 1      0      0 -0.500 -0.167
 NBPair  6- 1 3 1      0      0 -1.000 -1.000
 NBPair  7- 1 3 1      0      0 -1.000 -1.000
 NBPair  8- 1 3 1      0      0 -1.000 -1.000
 NBPair  6- 5 3 1      0      0 -1.000 -1.000
 NBPair  7- 6 3 1      0      0 -1.000 -1.000
 NBPair  8- 6 3 1      0      0 -1.000 -1.000
 NBPair  7- 5 3 1      0      0 -1.000 -1.000
 NBPair  8- 7 3 1      0      0 -1.000 -1.000
 NBPair  8- 5 3 1      0      0 -1.000 -1.000
 NBPair  9- 1 3 1      0      0 -0.500 -0.167
 NBPair 10- 1 3 1      0      0 -0.500 -0.167
 NBPair 11- 1 3 1      0      0 -0.500 -0.167
 NBPair  9- 6 3 1      0      0 -0.500 -0.167
 NBPair 10- 6 3 1      0      0 -0.500 -0.167
 NBPair 11- 6 3 1      0      0 -0.500 -0.167
 NBPair  9- 7 3 1      0      0 -0.500 -0.167
 NBPair 10- 7 3 1      0      0 -0.500 -0.167
 NBPair 11- 7 3 1      0      0 -0.500 -0.167
 NBPair  9- 5 3 1      0      0 -1.000 -1.000
 NBPair 10- 5 3 1      0      0 -1.000 -1.000
 NBPair 11- 5 3 1      0      0 -1.000 -1.000
 NBPair  9- 8 3 1      0      0 -1.000 -1.000
 NBPair 10- 9 3 1      0      0 -1.000 -1.000
 NBPair 11- 9 3 1      0      0 -1.000 -1.000
 NBPair 10- 8 3 1      0      0 -1.000 -1.000
 NBPair 11-10 3 1      0      0 -1.000 -1.000
 NBPair 11- 8 3 1      0      0 -1.000 -1.000
 NBPair 12- 5 3 1      0      0 -0.500 -0.167
 NBPair 13- 5 3 1      0      0 -0.500 -0.167
 NBPair 14- 5 3 1      0      0 -0.500 -0.167
 NBPair 12- 9 3 1      0      0 -0.500 -0.167
 NBPair 13- 9 3 1      0      0 -0.500 -0.167
 NBPair 14- 9 3 1      0      0 -0.500 -0.167
 NBPair 12-10 3 1      0      0 -0.500 -0.167
 NBPair 13-10 3 1      0      0 -0.500 -0.167
 NBPair 14-10 3 1      0      0 -0.500 -0.167
 NBPair 12- 8 3 1      0      0 -1.000 -1.000
 NBPair 13- 8 3 1      0      0 -1.000 -1.000
 NBPair 14- 8 3 1      0      0 -1.000 -1.000
 NBPair 12-11 3 1      0      0 -1.000 -1.000
 NBPair 13-12 3 1      0      0 -1.000 -1.000
 NBPair 14-12 3 1      0      0 -1.000 -1.000
 NBPair 13-11 3 1      0      0 -1.000 -1.000
 NBPair 14-13 3 1      0      0 -1.000 -1.000
 NBPair 14-11 3 1      0      0 -1.000 -1.000
 Energy per function type:
 Direct Coulomb + vdW (small)                           0.002623997
 Direct Coulomb (large)                                 0.000000000
 Direct vdW (large)                                   574.898793156
 Non-direct Coulomb + vdW (small)                      -0.001416253
 Non-direct Coulomb (large)                             0.000000000
 Non-direct vdW (large)                              -574.898793156
 Harmonic stretch I                                     0.000071411
 Harmonic bend I                                        0.000195565
 Amber torsion                                          0.000003022
 Energy per function class:
        Coulomb               0.000000000
    Vanderwaals               0.001207744
     Stretching               0.000071411
        Bending               0.000195565
        Torsion               0.000003022
 Energy=    1.477742260E-03 NIter=   0.
 Dipole moment=       0.000000       0.000000       0.000000
 Leave Link  402 at Mon Jul 18 17:04:55 2022, MaxMem=   536870912 cpu:         0.0
 (Enter /home/emanuele/chem_software/gaussian//g09/l716.exe)
 Dipole        = 0.00000000D+00 0.00000000D+00 0.00000000D+00
 -------------------------------------------------------------------
 Center     Atomic                   Forces (Hartrees/Bohr)
 Number     Number              X              Y              Z
 -------------------------------------------------------------------
      1        6           0.000072615    0.000027165   -0.000000193
      2        1          -0.000025421   -0.000045710    0.000000016
      3        1          -0.000013182    0.000006743   -0.000008881
      4        1          -0.000013148    0.000006638    0.000009055
      5        6           0.000038706    0.000068417   -0.000000206
      6        1          -0.000023690   -0.000037909    0.000030542
      7        1          -0.000023713   -0.000037767   -0.000030334
      8        6          -0.000038706   -0.000068417   -0.000000205
      9        1           0.000023690    0.000037909    0.000030542
     10        1           0.000023713    0.000037767   -0.000030334
     11        6          -0.000072615   -0.000027165   -0.000000192
     12        1           0.000013182   -0.000006743   -0.000008881
     13        1           0.000025421    0.000045710    0.000000016
     14        1           0.000013148   -0.000006638    0.000009055
 -------------------------------------------------------------------
 Cartesian Forces:  Max     0.000072615 RMS     0.000031895
 Leave Link  716 at Mon Jul 18 17:04:55 2022, MaxMem=   536870912 cpu:         0.0
 (Enter /home/emanuele/chem_software/gaussian//g09/l103.exe)

 GradGradGradGradGradGradGradGradGradGradGradGradGradGradGradGradGradGrad
 Berny optimization.
 Search for a local minimum.
 Step number   1 out of a maximum of    2
 All quantities printed in internal units (Hartrees-Bohrs-Radians)
 RMS Force = .31895D-04 SwitMx=.10000D-02 MixMth= 2
 Mixed Optimization -- En-DIIS/RFO-DIIS
 Second derivative matrix not updated -- unit matrix used.
 ITU=  0
 RFO step:  Lambda=-4.27250996D-08 EMin= 1.00000000D+00
 Linear search not attempted -- first point.
 Variable       Old X    -DE/DX   Delta X   Delta X   Delta X     New X
                                 (Linear)    (Quad)   (Total)
    X1        3.66893   0.00007   0.00000   0.00007   0.00007   3.66901
    Y1       -0.23817   0.00003   0.00000   0.00003   0.00003  -0.23815
    Z1        0.00000   0.00000   0.00000   0.00000   0.00000   0.00000
    X2        5.11838  -0.00003   0.00000  -0.00003  -0.00003   5.11836
    Y2        1.22636  -0.00005   0.00000  -0.00005  -0.00005   1.22631
    Z2        0.00000   0.00000   0.00000   0.00000   0.00000   0.00000
    X3        3.89309  -0.00001   0.00000  -0.00001  -0.00001   3.89308
    Y3       -1.40751   0.00001   0.00000   0.00001   0.00001  -1.40750
    Z3       -1.68214  -0.00001   0.00000  -0.00001  -0.00001  -1.68215
    X4        3.89309  -0.00001   0.00000  -0.00001  -0.00001   3.89308
    Y4       -1.40751   0.00001   0.00000   0.00001   0.00001  -1.40750
    Z4        1.68214   0.00001   0.00000   0.00001   0.00001   1.68215
    X5        1.05247   0.00004   0.00000   0.00004   0.00004   1.05251
    Y5        0.99799   0.00007   0.00000   0.00007   0.00007   0.99806
    Z5        0.00000   0.00000   0.00000   0.00000   0.00000   0.00000
    X6        0.87381  -0.00002   0.00000  -0.00002  -0.00002   0.87379
    Y6        2.18432  -0.00004   0.00000  -0.00004  -0.00004   2.18428
    Z6       -1.67667   0.00003   0.00000   0.00003   0.00003  -1.67664
    X7        0.87381  -0.00002   0.00000  -0.00002  -0.00002   0.87379
    Y7        2.18432  -0.00004   0.00000  -0.00004  -0.00004   2.18428
    Z7        1.67667  -0.00003   0.00000  -0.00003  -0.00003   1.67664
    X8       -1.05247  -0.00004   0.00000  -0.00004  -0.00004  -1.05251
    Y8       -0.99799  -0.00007   0.00000  -0.00007  -0.00007  -0.99806
    Z8        0.00000   0.00000   0.00000   0.00000   0.00000   0.00000
    X9       -0.87381   0.00002   0.00000   0.00002   0.00002  -0.87379
    Y9       -2.18432   0.00004   0.00000   0.00004   0.00004  -2.18428
    Z9       -1.67667   0.00003   0.00000   0.00003   0.00003  -1.67664
   X10       -0.87381   0.00002   0.00000   0.00002   0.00002  -0.87379
   Y10       -2.18432   0.00004   0.00000   0.00004   0.00004  -2.18428
   Z10        1.67667  -0.00003   0.00000  -0.00003  -0.00003   1.67664
   X11       -3.66893  -0.00007   0.00000  -0.00007  -0.00007  -3.66901
   Y11        0.23817  -0.00003   0.00000  -0.00003  -0.00003   0.23815
   Z11        0.00000   0.00000   0.00000   0.00000   0.00000   0.00000
   X12       -3.89309   0.00001   0.00000   0.00001   0.00001  -3.89308
   Y12        1.40751  -0.00001   0.00000  -0.00001  -0.00001   1.40750
   Z12       -1.68214  -0.00001   0.00000  -0.00001  -0.00001  -1.68215
   X13       -5.11838   0.00003   0.00000   0.00003   0.00003  -5.11836
   Y13       -1.22636   0.00005   0.00000   0.00005   0.00005  -1.22631
   Z13        0.00000   0.00000   0.00000   0.00000   0.00000   0.00000
   X14       -3.89309   0.00001   0.00000   0.00001   0.00001  -3.89308
   Y14        1.40751  -0.00001   0.00000  -0.00001  -0.00001   1.40750
   Z14        1.68214   0.00001   0.00000   0.00001   0.00001   1.68215
         Item               Value     Threshold  Converged?
 Maximum Force            0.000073     0.000450     YES
 RMS     Force            0.000032     0.000300     YES
 Maximum Displacement     0.000073     0.001800     YES
 RMS     Displacement     0.000032     0.001200     YES
 Predicted change in Energy=-2.136255D-08
 Optimization completed.
    -- Stationary point found.
 GradGradGradGradGradGradGradGradGradGradGradGradGradGradGradGradGradGrad

 Largest change from initial coordinates is atom    4       0.045 Angstoms.
 Leave Link  103 at Mon Jul 18 17:04:55 2022, MaxMem=   536870912 cpu:         0.0
 (Enter /home/emanuele/chem_software/gaussian//g09/l202.exe)
                          Input orientation:                          
 ---------------------------------------------------------------------
 Center     Atomic      Atomic             Coordinates (Angstroms)
 Number     Number       Type             X           Y           Z
 ---------------------------------------------------------------------
      1          6    20001001        1.941515   -0.126036    0.000000
      2          1    20001034        2.708531    0.648962    0.000000
      3          1    20001034        2.060135   -0.744822   -0.890149
      4          1    20001034        2.060135   -0.744822    0.890149
      5          6    20001001        0.556945    0.528114    0.000000
      6          1    20001034        0.462400    1.155893   -0.887255
      7          1    20001034        0.462400    1.155893    0.887254
      8          6    20001001       -0.556945   -0.528114    0.000000
      9          1    20001034       -0.462400   -1.155893   -0.887255
     10          1    20001034       -0.462400   -1.155893    0.887254
     11          6    20001001       -1.941515    0.126036    0.000000
     12          1    20001034       -2.060135    0.744822   -0.890149
     13          1    20001034       -2.708531   -0.648962    0.000000
     14          1    20001034       -2.060135    0.744822    0.890149
 ---------------------------------------------------------------------
                    Distance matrix (angstroms):
                    1          2          3          4          5
     1  C    0.000000
     2  H    1.090383   0.000000
     3  H    1.090565   1.776349   0.000000
     4  H    1.090565   1.776349   1.780298   0.000000
     5  C    1.531322   2.154977   2.161553   2.161553   0.000000
     6  H    2.149034   2.467651   2.483039   3.053627   1.090993
     7  H    2.149034   2.467651   3.053627   2.483039   1.090993
     8  C    2.530607   3.471144   2.772803   2.772803   1.535047
     9  H    2.761636   3.754933   2.555811   3.113089   2.159205
    10  H    2.761636   3.754933   3.113089   2.555811   2.159205
    11  C    3.891204   4.679357   4.190939   4.190939   2.530607
    12  H    4.190939   4.851982   4.381286   4.729178   2.772803
    13  H    4.679357   5.570382   4.851982   4.851982   3.471144
    14  H    4.190939   4.851982   4.729178   4.381286   2.772803
                    6          7          8          9         10
     6  H    0.000000
     7  H    1.774509   0.000000
     8  C    2.159205   2.159205   0.000000
     9  H    2.489901   3.057530   1.090993   0.000000
    10  H    3.057530   2.489901   1.090993   1.774509   0.000000
    11  C    2.761636   2.761636   1.531322   2.149034   2.149034
    12  H    2.555811   3.113089   2.161553   2.483039   3.053627
    13  H    3.754933   3.754933   2.154977   2.467651   2.467651
    14  H    3.113089   2.555811   2.161553   3.053627   2.483039
                   11         12         13         14
    11  C    0.000000
    12  H    1.090565   0.000000
    13  H    1.090383   1.776349   0.000000
    14  H    1.090565   1.780298   1.776349   0.000000
 Symmetry turned off by external request.
 Stoichiometry    C4H10
 Framework group  C2[X(C4H10)]
 Deg. of freedom    19
 Full point group                 C2      NOp   2
 Rotational constants (GHZ):     23.0661556      3.6877511      3.4563627
 Leave Link  202 at Mon Jul 18 17:04:55 2022, MaxMem=   536870912 cpu:         0.0
 (Enter /home/emanuele/chem_software/gaussian//g09/l9999.exe)
 1\1\GINC-EMANUELE-XPS-13-9343\FOpt\RAMBER\ZDO\C4H10\EMANUELE\18-Jul-20
 22\0\\#p Amber=(SoftFirst,Print) nosymm geom=nocrowd opt\\Title\\0,1\C
 ,1.9415154262,-0.1260364784,0.000000168\H,2.7085307107,0.6489618095,0.
 0000000146\H,2.0601350326,-0.7448222987,-0.8901492397\H,2.0601349222,-
 0.7448221638,0.8901492458\C,0.5569450003,0.5281141655,0.0000000909\H,0
 .4623998892,1.1558930138,-0.8872547456\H,0.4623998718,1.1558928995,0.8
 872544658\C,-0.5569450003,-0.5281141655,0.0000000908\H,-0.4623998893,-
 1.1558930138,-0.8872547455\H,-0.4623998718,-1.1558928995,0.8872544659\
 C,-1.9415154262,0.1260364784,0.0000001678\H,-2.0601350325,0.7448222986
 ,-0.8901492395\H,-2.7085307107,-0.6489618095,0.0000000145\H,-2.0601349
 223,0.7448221638,0.890149246\\Version=ES64L-G09RevD.01\HF=0.0014777\RM
 SD=0.000e+00\RMSF=3.189e-05\Dipole=0.,0.,0.\PG=C02 [X(C4H10)]\\@


 IF AT FIRST YOU DON'T SUCCEED, TRY, TRY AGAIN.
 THEN GIVE UP;
 THERE'S NO USE BEING A DAMN FOOL ABOUT IT.

                                 -- W. C. FIELDS
 Job cpu time:       0 days  0 hours  0 minutes  0.4 seconds.
 File lengths (MBytes):  RWF=      5 Int=      0 D2E=      0 Chk=      1 Scr=      1
 Normal termination of Gaussian 09 at Mon Jul 18 17:04:56 2022.
