 Entering Gaussian System, Link 0=g16
 Input=amber.com
 Output=amber.log
 Initial command:
 /home/emanuele/chemical_software//g16/l1.exe "/home/emanuele/chemical_software/scratch/Gau-295408.inp" -scrdir="/home/emanuele/chemical_software/scratch/"
 Entering Link 1 = /home/emanuele/chemical_software//g16/l1.exe PID=    295410.
  
 Copyright (c) 1988-2019, Gaussian, Inc.  All Rights Reserved.
  
 This is part of the Gaussian(R) 16 program.  It is based on
 the Gaussian(R) 09 system (copyright 2009, Gaussian, Inc.),
 the Gaussian(R) 03 system (copyright 2003, Gaussian, Inc.),
 the Gaussian(R) 98 system (copyright 1998, Gaussian, Inc.),
 the Gaussian(R) 94 system (copyright 1995, Gaussian, Inc.),
 the Gaussian 92(TM) system (copyright 1992, Gaussian, Inc.),
 the Gaussian 90(TM) system (copyright 1990, Gaussian, Inc.),
 the Gaussian 88(TM) system (copyright 1988, Gaussian, Inc.),
 the Gaussian 86(TM) system (copyright 1986, Carnegie Mellon
 University), and the Gaussian 82(TM) system (copyright 1983,
 Carnegie Mellon University). Gaussian is a federally registered
 trademark of Gaussian, Inc.
  
 This software contains proprietary and confidential information,
 including trade secrets, belonging to Gaussian, Inc.
  
 This software is provided under written license and may be
 used, copied, transmitted, or stored only in accord with that
 written license.
  
 The following legend is applicable only to US Government
 contracts under FAR:
  
                    RESTRICTED RIGHTS LEGEND
  
 Use, reproduction and disclosure by the US Government is
 subject to restrictions as set forth in subparagraphs (a)
 and (c) of the Commercial Computer Software - Restricted
 Rights clause in FAR 52.227-19.
  
 Gaussian, Inc.
 340 Quinnipiac St., Bldg. 40, Wallingford CT 06492
  
  
 ---------------------------------------------------------------
 Warning -- This program may not be used in any manner that
 competes with the business of Gaussian, Inc. or will provide
 assistance to any competitor of Gaussian, Inc.  The licensee
 of this program is prohibited from giving any competitor of
 Gaussian, Inc. access to this program.  By using this program,
 the user acknowledges that Gaussian, Inc. is engaged in the
 business of creating and licensing software in the field of
 computational chemistry and represents and warrants to the
 licensee that it is not a competitor of Gaussian, Inc. and that
 it will not use this program in any manner prohibited above.
 ---------------------------------------------------------------
  

 Cite this work as:
 Gaussian 16, Revision C.01,
 M. J. Frisch, G. W. Trucks, H. B. Schlegel, G. E. Scuseria, 
 M. A. Robb, J. R. Cheeseman, G. Scalmani, V. Barone, 
 G. A. Petersson, H. Nakatsuji, X. Li, M. Caricato, A. V. Marenich, 
 J. Bloino, B. G. Janesko, R. Gomperts, B. Mennucci, H. P. Hratchian, 
 J. V. Ortiz, A. F. Izmaylov, J. L. Sonnenberg, D. Williams-Young, 
 F. Ding, F. Lipparini, F. Egidi, J. Goings, B. Peng, A. Petrone, 
 T. Henderson, D. Ranasinghe, V. G. Zakrzewski, J. Gao, N. Rega, 
 G. Zheng, W. Liang, M. Hada, M. Ehara, K. Toyota, R. Fukuda, 
 J. Hasegawa, M. Ishida, T. Nakajima, Y. Honda, O. Kitao, H. Nakai, 
 T. Vreven, K. Throssell, J. A. Montgomery, Jr., J. E. Peralta, 
 F. Ogliaro, M. J. Bearpark, J. J. Heyd, E. N. Brothers, K. N. Kudin, 
 V. N. Staroverov, T. A. Keith, R. Kobayashi, J. Normand, 
 K. Raghavachari, A. P. Rendell, J. C. Burant, S. S. Iyengar, 
 J. Tomasi, M. Cossi, J. M. Millam, M. Klene, C. Adamo, R. Cammi, 
 J. W. Ochterski, R. L. Martin, K. Morokuma, O. Farkas, 
 J. B. Foresman, and D. J. Fox, Gaussian, Inc., Wallingford CT, 2019.
 
 ******************************************
 Gaussian 16:  ES64L-G16RevC.01  3-Jul-2019
                14-Jan-2022 
 ******************************************
 %nprocs=2
 Will use up to    2 processors via shared memory.
 %chk=amber.chk
 ----------------------------------------------------------
 #P Amber=(print,hardfirst) Geom=Connectivity Freq=intmodes
 ----------------------------------------------------------
 1/10=4,18=20,30=1,38=1,56=2,57=2,64=103/1,3;
 2/9=110,12=2,17=6,18=5,40=1/2;
 3/5=30,11=9,25=1,30=1,41=10300000,43=2,71=2,140=1/1;
 4/20=11,22=2,24=3,119=11/2;
 7/8=21,25=1,44=-1/16;
 1/10=4,18=20,30=1,64=103/3;
 99//99;
 Leave Link    1 at Fri Jan 14 12:14:03 2022, MaxMem=           0 cpu:               0.0 elap:               0.0
 (Enter /home/emanuele/chemical_software//g16/l101.exe)
 -------------------
 Title Card Required
 -------------------
 Symbolic Z-matrix:
 Charge =  0 Multiplicity = 1
 O-OW--0.5054          5.10901   2.31105   0. 
 H-HW-+0.2527          6.06901   2.31105   0. 
 H-HW-+0.2527          4.78856   3.21598   0. 
 
 ITRead=  0  0  0
 MicOpt= -1 -1 -1
 NAtoms=      3 NQM=        3 NQMF=       0 NMMI=      0 NMMIF=      0
                NMic=       0 NMicF=      0.
                    Isotopes and Nuclear Properties:
 (Nuclear quadrupole moments (NQMom) in fm**2, nuclear magnetic moments (NMagM)
  in nuclear magnetons)

  Atom         1           2           3
 IAtWgt=          16           1           1
 AtmWgt=  15.9949146   1.0078250   1.0078250
 NucSpn=           0           1           1
 AtZEff=  -0.0000000  -0.0000000  -0.0000000
 NQMom=    0.0000000   0.0000000   0.0000000
 NMagM=    0.0000000   2.7928460   2.7928460
 AtZNuc=   8.0000000   1.0000000   1.0000000
 Generating MM parameters.
 Read MM parameter file:
 Include all MM classes

 MM sanity checks:
 All charges sum to:                0.00000000
 Charges of atoms sum to:           0.00000000
 WARNING -- The following centers have non-zero partial charges, but zero Vanderwaals
 parameters.  These centers can collapse onto other centers with non-zero charge.
   Center  Layer   Charge
      2 H    R    0.252700
      3 H    R    0.252700
 MMInit generated parameter data with length LenPar=         481.
 MM Charge=              0.0000 electrons
 MM Dipole moment (Debye):
    X=              0.7763    Y=              1.0984    Z=              0.0000  Tot=              1.3450
 MM Quadrupole moment (Debye-Ang):
   XX=              9.1751   YY=              6.0708   ZZ=              0.0000
   XY=              7.0536   XZ=              0.0000   YZ=              0.0000
 MM Traceless Quadrupole moment (Debye-Ang):
   XX=              4.0931   YY=              0.9888   ZZ=             -5.0820
   XY=              7.0536   XZ=              0.0000   YZ=              0.0000
 MM Octapole moment (Debye-Ang**2):
  XXX=             80.8752  YYY=             25.3900  ZZZ=              0.0000  XYY=             33.2163
  XXY=             46.3903  XXZ=              0.0000  XZZ=              0.0000  YZZ=              0.0000
  YYZ=              0.0000  XYZ=              0.0000
 MM Hexadecapole moment (Debye-Ang**3):
 XXXX=            630.9558 YYYY=             95.2112 ZZZZ=              0.0000 XXXY=            307.5121
 XXXZ=              0.0000 YYYX=            131.1629 YYYZ=              0.0000 ZZZX=              0.0000
 ZZZY=              0.0000 XXYY=            188.2088 XXZZ=              0.0000 YYZZ=              0.0000
 XXYZ=              0.0000 YYXZ=              0.0000 ZZXY=              0.0000
 Leave Link  101 at Fri Jan 14 12:14:03 2022, MaxMem=   104857600 cpu:               0.3 elap:               0.1
 (Enter /home/emanuele/chemical_software//g16/l103.exe)

 GradGradGradGradGradGradGradGradGradGradGradGradGradGradGradGradGradGrad
 Berny optimization.
 Initialization pass.
                           ----------------------------
                           !    Initial Parameters    !
                           ! (Angstroms and Degrees)  !
 --------------------------                            --------------------------
 ! Name  Definition              Value          Derivative Info.                !
 --------------------------------------------------------------------------------
 ! R1    R(1,2)                  0.96           calculate D2E/DX2 analytically  !
 ! R2    R(1,3)                  0.96           calculate D2E/DX2 analytically  !
 ! A1    A(2,1,3)              109.5            calculate D2E/DX2 analytically  !
 --------------------------------------------------------------------------------
 Trust Radius=3.00D-01 FncErr=1.00D-07 GrdErr=1.00D-07 EigMax=2.50D+02 EigMin=1.00D-04
 Number of steps in this run=      2 maximum allowed number of steps=      2.
 GradGradGradGradGradGradGradGradGradGradGradGradGradGradGradGradGradGrad

 Leave Link  103 at Fri Jan 14 12:14:03 2022, MaxMem=   104857600 cpu:               0.0 elap:               0.0
 (Enter /home/emanuele/chemical_software//g16/l202.exe)
                          Input orientation:                          
 ---------------------------------------------------------------------
 Center     Atomic      Atomic             Coordinates (Angstroms)
 Number     Number       Type             X           Y           Z
 ---------------------------------------------------------------------
      1          8    20001021        5.109012    2.311046    0.000000
      2          1    20001030        6.069012    2.311046    0.000000
      3          1    20001030        4.788557    3.215982    0.000000
 ---------------------------------------------------------------------
                    Distance matrix (angstroms):
                    1          2          3
     1  O    0.000000
     2  H    0.960000   0.000000
     3  H    0.960000   1.567952   0.000000
 Stoichiometry    H2O
 Framework group  C2V[C2(O),SGV(H2)]
 Deg. of freedom     2
 Full point group                 C2V     NOp   4
 Largest Abelian subgroup         C2V     NOp   4
 Largest concise Abelian subgroup C2      NOp   2
                         Standard orientation:                         
 ---------------------------------------------------------------------
 Center     Atomic      Atomic             Coordinates (Angstroms)
 Number     Number       Type             X           Y           Z
 ---------------------------------------------------------------------
      1          8    20001021       -0.000000   -0.000000    0.110812
      2          1    20001030       -0.000000    0.783976   -0.443248
      3          1    20001030       -0.000000   -0.783976   -0.443248
 ---------------------------------------------------------------------
 Rotational constants (GHZ):         919.6759688         407.9403309         282.5913776
 Leave Link  202 at Fri Jan 14 12:14:03 2022, MaxMem=   104857600 cpu:               0.0 elap:               0.0
 (Enter /home/emanuele/chemical_software//g16/l301.exe)
 Standard basis: Dummy (5D, 7F)
 There are     2 symmetry adapted cartesian basis functions of A1  symmetry.
 There are     0 symmetry adapted cartesian basis functions of A2  symmetry.
 There are     0 symmetry adapted cartesian basis functions of B1  symmetry.
 There are     1 symmetry adapted cartesian basis functions of B2  symmetry.
 There are     2 symmetry adapted basis functions of A1  symmetry.
 There are     0 symmetry adapted basis functions of A2  symmetry.
 There are     0 symmetry adapted basis functions of B1  symmetry.
 There are     1 symmetry adapted basis functions of B2  symmetry.
     3 basis functions,     3 primitive gaussians,     3 cartesian basis functions
     2 alpha electrons        2 beta electrons
       nuclear repulsion energy         2.5424008904 Hartrees.
 IExCor=    0 DFT=F Ex=HF Corr=None ExCW=0 ScaHFX=  1.000000
 ScaDFX=  1.000000  1.000000  1.000000  1.000000 ScalE2=  1.000000  1.000000
 IRadAn=      5 IRanWt=     -1 IRanGd=            0 ICorTp=0 IEmpDi=  4
 NAtoms=    3 NActive=    3 NUniq=    2 SFac= 2.25D+00 NAtFMM=   60 NAOKFM=F Big=F
 Integral buffers will be    131072 words long.
 Raffenetti 1 integral format.
 Two-electron integral symmetry is turned on.
 Leave Link  301 at Fri Jan 14 12:14:03 2022, MaxMem=   104857600 cpu:               0.0 elap:               0.0
 (Enter /home/emanuele/chemical_software//g16/l402.exe)
 AMBER calculation of energy, first and second derivatives.
 ****************************
 MOLECULAR MECHANICS FUNCTION
 ****************************
 Atomic parameters:
 Center  VDW
      1 1.7683 0.1520000
      2 0.0000 0.0000000
      3 0.0000 0.0000000
 Molecular mechanics terms:
 NBDir 3 1      0      0
 HrmStr1 1-2  553.00 0.9572
 HrmStr1 1-3  553.00 0.9572
 HrmBnd1 2-1-3 100.00 104.52
 NBPair 2-1 3 1      0      0 -1.000 -1.000
 NBPair 3-2 3 1      0      0 -1.000 -1.000
 NBPair 3-1 3 1      0      0 -1.000 -1.000
 Energy per function type:
 Direct Coulomb + vdW (small)                           0.000000000
 Direct Coulomb (large)                                -0.119247691
 Direct vdW (large)                                     0.000000000
 Non-direct Coulomb + vdW (small)                       0.000000000
 Non-direct Coulomb (large)                             0.119247691
 Non-direct vdW (large)                                 0.000000000
 Harmonic stretch I                                     0.000013818
 Harmonic bend I                                        0.001203908
 Energy per function class:
        Coulomb               0.000000000
    Vanderwaals               0.000000000
     Stretching               0.000013818
        Bending               0.001203908
 Energy=    1.217725758E-03 NIter=   0.
 Dipole moment=      -0.000000      -0.000000      -0.529164
 Leave Link  402 at Fri Jan 14 12:14:03 2022, MaxMem=   104857600 cpu:               0.0 elap:               0.0
 (Enter /home/emanuele/chemical_software//g16/l716.exe)
 Dipole        =-4.58477122D-17-1.11022302D-16-5.29164155D-01
 Full mass-weighted force constant matrix:
 Low frequencies --- -555.9983   -0.0000   -0.0000    0.0000  188.0209  440.1344
 Low frequencies --- 2343.4935 3682.9752 3742.4738
 Diagonal vibrational polarizability:
        0.0000000       0.1852036       0.5088780
 Harmonic frequencies (cm**-1), IR intensities (KM/Mole), Raman scattering
 activities (A**4/AMU), depolarization ratios for plane and unpolarized
 incident light, reduced masses (AMU), force constants (mDyne/A),
 and normal coordinates:
                      1                      2                      3
                     A1                     A1                     B2
 Frequencies --   2343.4935              3682.9752              3741.9589
 Red. masses --      1.0724                 1.0549                 1.0868
 Frc consts  --      3.4700                 8.4309                 8.9657
 IR Inten    --     79.8631                59.2448                96.3639
  Atom  AN      X      Y      Z        X      Y      Z        X      Y      Z
     1   8    -0.00  -0.00  -0.07     0.00  -0.00   0.06    -0.00  -0.07  -0.00
     2   1     0.00   0.48   0.52    -0.00   0.55  -0.44    -0.00   0.58  -0.41
     3   1     0.00  -0.48   0.52    -0.00  -0.55  -0.44     0.00   0.58   0.41

 -------------------
 - Thermochemistry -
 -------------------
 Temperature   298.150 Kelvin.  Pressure   1.00000 Atm.
 Atom     1 has atomic number  8 and mass  15.99491
 Atom     2 has atomic number  1 and mass   1.00783
 Atom     3 has atomic number  1 and mass   1.00783
 Molecular mass:    18.01056 amu.
 Principal axes and moments of inertia in atomic units:
                           1         2         3
     Eigenvalues --     1.96237   4.42403   6.38640
           X            0.00000   0.00000   1.00000
           Y            1.00000  -0.00000  -0.00000
           Z            0.00000   1.00000  -0.00000
 This molecule is an asymmetric top.
 Rotational symmetry number  2.
 Rotational temperatures (Kelvin)     44.13749    19.57805    13.56225
 Rotational constants (GHZ):         919.67597   407.94033   282.59138
 Zero-point vibrational energy      58428.2 (Joules/Mol)
                                   13.96467 (Kcal/Mol)
 Vibrational temperatures:   3371.76  5298.98  5383.84
          (Kelvin)
 
 Zero-point correction=                           0.022254 (Hartree/Particle)
 Thermal correction to Energy=                    0.025087
 Thermal correction to Enthalpy=                  0.026031
 Thermal correction to Gibbs Free Energy=         0.004639
 Sum of electronic and zero-point Energies=              0.023472
 Sum of electronic and thermal Energies=                 0.026305
 Sum of electronic and thermal Enthalpies=               0.027249
 Sum of electronic and thermal Free Energies=            0.005856
 
                     E (Thermal)             CV                S
                      KCal/Mol        Cal/Mol-Kelvin    Cal/Mol-Kelvin
 Total                   15.742              5.965             45.024
 Electronic               0.000              0.000              0.000
 Translational            0.889              2.981             34.608
 Rotational               0.889              2.981             10.415
 Vibrational             13.965              0.003              0.000
                       Q            Log10(Q)             Ln(Q)
 Total Bot       0.735054D-02         -2.133680         -4.912981
 Total V=0       0.126617D+09          8.102493         18.656680
 Vib (Bot)       0.580540D-10        -10.236168        -23.569648
 Vib (V=0)       0.100001D+01          0.000005          0.000012
 Electronic      0.100000D+01          0.000000          0.000000
 Translational   0.300431D+07          6.477745         14.915559
 Rotational      0.421447D+02          1.624743          3.741109
                           ----------------------------
                           ! Normal Mode     1        !
 --------------------------                            --------------------------
 ! Name  Definition              Value          Relative Weight (%)             !
 --------------------------------------------------------------------------------
 ! R1    R(1,2)                  0.0503                  5.4                    !
 ! R2    R(1,3)                  0.0503                  5.4                    !
 ! A1    A(2,1,3)                0.8309                 89.2                    !
 --------------------------------------------------------------------------------
                           ----------------------------
                           ! Normal Mode     2        !
 --------------------------                            --------------------------
 ! Name  Definition              Value          Relative Weight (%)             !
 --------------------------------------------------------------------------------
 ! R1    R(1,2)                  0.7368                 46.8                    !
 ! R2    R(1,3)                  0.7368                 46.8                    !
 --------------------------------------------------------------------------------
                           ----------------------------
                           ! Normal Mode     3        !
 --------------------------                            --------------------------
 ! Name  Definition              Value          Relative Weight (%)             !
 --------------------------------------------------------------------------------
 ! R1    R(1,2)                  0.7645                 50.0                    !
 ! R2    R(1,3)                 -0.7645                 50.0                    !
 --------------------------------------------------------------------------------
 Max01P=      3 Av01P=    2.67 Stan. Dev.=    0.58
 Max05P=      3 Av05P=    2.67 Stan. Dev.=    0.58
 Max10P=      2 Av10P=    1.67 Stan. Dev.=    0.58
 MaxNDP=      4 AvNDP=    2.67 Stan. Dev.=    1.15
 
                                                         Title Card Required
                                                             IR Spectrum
 
      3 3                                            2                                                                               
      7 6                                            3                                                                               
      4 8                                            4                                                                               
      2 3                                            3                                                                               
 
      X X                                            X                                                                               
      X X                                            X                                                                               
      X X                                            X                                                                               
      X X                                            X                                                                               
      X X                                            X                                                                               
      X X                                            X                                                                               
      X X                                            X                                                                               
      X X                                            X                                                                               
      X X                                            X                                                                               
      X X                                            X                                                                               
      X X                                            X                                                                               
      X X                                            X                                                                               
      X                                              X                                                                               
      X                                              X                                                                               
      X                                              X                                                                               
      X                                              X                                                                               
      X                                              X                                                                               
      X                                                                                                                              
      X                                                                                                                              
      X                                                                                                                              
 
 ***** Axes restored to original set *****
 -------------------------------------------------------------------
 Center     Atomic                   Forces (Hartrees/Bohr)
 Number     Number              X              Y              Z
 -------------------------------------------------------------------
      1        8          -0.012654598   -0.017905842   -0.000000000
      2        1          -0.002611523    0.015270256    0.000000000
      3        1           0.015266122    0.002635586   -0.000000000
 -------------------------------------------------------------------
 Cartesian Forces:  Max     0.017905842 RMS     0.010332041
 Force constants in Cartesian coordinates: 
                1             2             3             4             5 
      1  0.630587D+00
      2 -0.181296D-01  0.617747D+00
      3  0.000000D+00  0.000000D+00 -0.209415D-01
      4 -0.493557D+00 -0.841737D-02  0.000000D+00  0.493557D+00
      5 -0.997059D-01 -0.130610D+00  0.000000D+00  0.841737D-02  0.982828D-01
      6  0.000000D+00  0.000000D+00  0.104708D-01  0.000000D+00  0.000000D+00
      7 -0.137030D+00  0.265470D-01  0.000000D+00  0.000000D+00  0.912885D-01
      8  0.117835D+00 -0.487137D+00  0.000000D+00  0.000000D+00  0.323270D-01
      9  0.000000D+00  0.000000D+00  0.104708D-01  0.000000D+00  0.000000D+00
                6             7             8             9 
      6 -0.154121D-02
      7  0.000000D+00  0.137030D+00
      8  0.000000D+00 -0.117835D+00  0.454810D+00
      9 -0.892955D-02  0.000000D+00  0.000000D+00 -0.154121D-02
 FormGI is forming the generalized inverse of G from B-inverse, IUseBI=4.
 Force constants in internal coordinates: 
                1             2             3 
      1  0.493557D+00
      2  0.000000D+00  0.493557D+00
      3  0.000000D+00  0.000000D+00  0.318720D+00
 Leave Link  716 at Fri Jan 14 12:14:03 2022, MaxMem=   104857600 cpu:               0.0 elap:               0.0
 (Enter /home/emanuele/chemical_software//g16/l103.exe)

 GradGradGradGradGradGradGradGradGradGradGradGradGradGradGradGradGradGrad
 Berny optimization.
 Red2BG is reusing G-inverse.
 Internal  Forces:  Max     0.027702338 RMS     0.016135465
 Search for a local minimum.
 Step number   1 out of a maximum of    2
 All quantities printed in internal units (Hartrees-Bohrs-Radians)
 Second derivative matrix not updated -- analytic derivatives used.
 The second derivative matrix:
                          R1        R2        A1
           R1           0.49356
           R2          -0.00000   0.49356
           A1          -0.00000  -0.00000   0.31872
 ITU=  0
     Eigenvalues ---    0.31872   0.49356   0.49356
 Angle between quadratic step and forces=   2.67 degrees.
 Linear search not attempted -- first point.
 Iteration  1 RMS(Cart)=  0.04987434 RMS(Int)=  0.00140557
 Iteration  2 RMS(Cart)=  0.00117859 RMS(Int)=  0.00000008
 Iteration  3 RMS(Cart)=  0.00000008 RMS(Int)=  0.00000000
 ITry= 1 IFail=0 DXMaxC= 5.33D-02 DCOld= 1.00D+10 DXMaxT= 3.00D-01 DXLimC= 3.00D+00 Rises=F
 ClnCor:  largest displacement from symmetrization is 4.86D-18 for atom     2.
 Variable       Old X    -DE/DX   Delta X   Delta X   Delta X     New X
                                 (Linear)    (Quad)   (Total)
    R1        1.81414  -0.00261   0.00000  -0.00529  -0.00529   1.80885
    R2        1.81414  -0.00261   0.00000  -0.00529  -0.00529   1.80885
    A1        1.91114  -0.02770   0.00000  -0.08692  -0.08692   1.82422
         Item               Value     Threshold  Converged?
 Maximum Force            0.027702     0.000450     NO 
 RMS     Force            0.016135     0.000300     NO 
 Maximum Displacement     0.053276     0.001800     NO 
 RMS     Displacement     0.050423     0.001200     NO 
 Predicted change in Energy=-1.217726D-03
                           ----------------------------
                           ! Non-Optimized Parameters !
                           ! (Angstroms and Degrees)  !
 --------------------------                            --------------------------
 ! Name  Definition              Value          Derivative Info.                !
 --------------------------------------------------------------------------------
 ! R1    R(1,2)                  0.9572         -DE/DX =   -0.0026              !
 ! R2    R(1,3)                  0.9572         -DE/DX =   -0.0026              !
 ! A1    A(2,1,3)              104.52           -DE/DX =   -0.0277              !
 --------------------------------------------------------------------------------
 GradGradGradGradGradGradGradGradGradGradGradGradGradGradGradGradGradGrad

 Leave Link  103 at Fri Jan 14 12:14:03 2022, MaxMem=   104857600 cpu:               0.0 elap:               0.0
 (Enter /home/emanuele/chemical_software//g16/l9999.exe)
 Unable to Open any file for archive entry.
 1\1\GINC-COOLER-MASTER-U2\Freq\AMBER\ZDO\H2O1\EMANUELE\14-Jan-2022\0\\
 #P Amber=(print,hardfirst) Geom=Connectivity Freq=intmodes\\Title Card
  Required\\0,1\O,5.1090116305,2.3110464796,0.\H,6.06901163,2.31104648,
 0.\H,4.788557044,3.21598231,0.\\Version=ES64L-G16RevC.01\HF=0.0012177\
 RMSD=0.000e+00\RMSF=1.033e-02\ZeroPoint=0.0222541\Thermal=0.0250868\ET
 ot=0.0263045\HTot=0.0272487\GTot=0.0058565\Dipole=0.3054045,0.4321374,
 0.\DipoleDeriv=-0.5054,0.,0.,0.,-0.5054,0.,0.,0.,-0.5054,0.2527,0.,0.,
 0.,0.2527,0.,0.,0.,0.2527,0.2527,0.,0.,0.,0.2527,0.,0.,0.,0.2527\PG=C0
 2V [C2(O1),SGV(H2)]\NImag=0\\0.63058656,-0.01812959,0.61774651,0.,0.,-
 0.02094152,-0.49355676,-0.00841737,0.,0.49355676,-0.09970586,-0.130609
 78,0.,0.00841737,0.09828282,0.,0.,0.01047076,0.,0.,-0.00154121,-0.1370
 2980,0.02654695,0.,0.,0.09128850,0.,0.13702980,0.11783545,-0.48713674,
 0.,0.,0.03232695,0.,-0.11783545,0.45480978,0.,0.,0.01047076,0.,0.,-0.0
 0892955,0.,0.,-0.00154121\\0.01265460,0.01790584,0.,0.00261152,-0.0152
 7026,0.,-0.01526612,-0.00263559,0.\\\@
 The archive entry for this job was punched.


 THE MORE POWERFUL THE METHOD, THE MORE CATASTROPHIC THE ERRORS.
     -- M.D. KAMEN
 Job cpu time:       0 days  0 hours  0 minutes  0.6 seconds.
 Elapsed time:       0 days  0 hours  0 minutes  0.3 seconds.
 File lengths (MBytes):  RWF=      6 Int=      0 D2E=      0 Chk=      1 Scr=      1
 Normal termination of Gaussian 16 at Fri Jan 14 12:14:03 2022.
