Title Card Required                                                     
Freq      RB3LYP                                                      def2TZVPP           
Number of atoms                            I                3
Info1-9                                    I   N=           9
          15          15        1002           0           0         100
           6          18        -502
Full Title                                 C   N=           2
Title Card Required     
Route                                      C   N=           8
#P B3LYP/def2TZVPP Geom=Connectivity opt=(calcall,tight,maxs
tep=7,maxcycles=100) Freq           
Charge                                     I                0
Multiplicity                               I                1
Number of electrons                        I               10
Number of alpha electrons                  I                5
Number of beta electrons                   I                5
Number of basis functions                  I               59
Number of independent functions            I               59
Number of point charges in /Mol/           I                0
Number of translation vectors              I                0
Atomic numbers                             I   N=           3
           8           1           1
Nuclear charges                            R   N=           3
  8.00000000E+00  1.00000000E+00  1.00000000E+00
Current cartesian coordinates              R   N=           9
 -1.14015053E-31  3.46944695E-16  2.21300691E-01 -3.45126646E-31  1.43942790E+00
 -8.85202763E-01 -1.76279078E-16 -1.43942790E+00 -8.85202763E-01
Number of symbols in /Mol/                 I                0
Int Atom Types                             I   N=           3
           0           0           0
Force Field                                I                0
Atom Types                                 C   N=           3
                                    
MM charges                                 R   N=           3
  0.00000000E+00  0.00000000E+00  0.00000000E+00
Integer atomic weights                     I   N=           3
          16           1           1
Real atomic weights                        R   N=           3
  1.59949146E+01  1.00782504E+00  1.00782504E+00
Atom fragment info                         I   N=           3
           0           0           0
Atom residue num                           I   N=           3
           0           0           0
Nuclear spins                              I   N=           3
           0           1           1
Nuclear ZEff                               R   N=           3
 -5.60000000E+00 -1.00000000E+00 -1.00000000E+00
Nuclear ZNuc                               R   N=           3
  8.00000000E+00  1.00000000E+00  1.00000000E+00
Nuclear QMom                               R   N=           3
  0.00000000E+00  0.00000000E+00  0.00000000E+00
Nuclear GFac                               R   N=           3
  0.00000000E+00  2.79284600E+00  2.79284600E+00
MicOpt                                     I   N=           3
          -1          -1          -1
Number of residues                         I                0
Number of secondary structures             I                0
Redundant internal dimensions              I   N=           4
           3           2           1           0
Redundant internal coordinate indices      I   N=          12
           1           2           0           0           1           3
           0           0           2           1           3           0
Redundant internal coordinates             R   N=           3
  1.81557225E+00  1.81557225E+00  1.83085519E+00
ZRed-IntVec                                I   N=           3
           0           0           0
ZRed-FPVec                                 R   N=           3
  0.00000000E+00  0.00000000E+00  0.00000000E+00
ZRed-Constraint1                           R   N=           3
  1.81557225E+00  1.81557225E+00  1.83085519E+00
ZRed-Constraint2                           R   N=           3
  1.81413708E+00  1.81413707E+00  1.91113553E+00
SymInf integers                            I   N=          26
           2           4           1           1           1          -1
          -1           1          -1           1           1           1
          -1           1           0           0           0           0
           0           0           0           0           0           0
           0           0
RotTr to input orientation                 R   N=          12
 -2.14684416E-16  2.26704625E-16 -1.00000000E+00  8.16641556E-01 -5.77145189E-01
 -3.06161700E-16 -5.77145189E-01 -8.16641556E-01 -6.12323400E-17  9.75946851E+00
  4.51558407E+00  8.65070311E-17
Number of contracted shells                I               23
Number of primitive shells                 I               36
Pure/Cartesian d shells                    I                0
Pure/Cartesian f shells                    I                0
Highest angular momentum                   I                3
Largest degree of contraction              I                6
Shell types                                I   N=          23
           0           0           0           0           0           1
           1           1          -2          -2          -3           0
           0           0           1           1          -2           0
           0           0           1           1          -2
Number of primitives per shell             I   N=          23
           6           2           1           1           1           4
           1           1           1           1           1           3
           1           1           1           1           1           3
           1           1           1           1           1
Shell to atom map                          I   N=          23
           1           1           1           1           1           1
           1           1           1           1           1           2
           2           2           2           2           2           3
           3           3           3           3           3
Primitive exponents                        R   N=          36
  2.70323826E+04  4.05238714E+03  9.22327227E+02  2.61240710E+02  8.53546414E+01
  3.10350352E+01  1.22608607E+01  4.99870760E+00  1.17031082E+00  4.64747410E-01
  1.85045364E-01  6.32749548E+01  1.46270494E+01  4.45012235E+00  1.52757996E+00
  5.29351179E-01  1.74784213E-01  2.31400000E+00  6.45000000E-01  1.42800000E+00
  3.40613410E+01  5.12357460E+00  1.16466260E+00  3.27230410E-01  1.03072410E-01
  1.40700000E+00  3.88000000E-01  1.05700000E+00  3.40613410E+01  5.12357460E+00
  1.16466260E+00  3.27230410E-01  1.03072410E-01  1.40700000E+00  3.88000000E-01
  1.05700000E+00
Contraction coefficients                   R   N=          36
  5.72273352E-04  4.43532335E-03  2.30201077E-02  9.28224907E-02  2.93785000E-01
  6.74016045E-01  6.38399370E-01  3.95345871E-01  1.00000000E+00  1.00000000E+00
  1.00000000E+00  1.20183322E-02  8.30054218E-02  3.19917439E-01  7.07155429E-01
  1.00000000E+00  1.00000000E+00  1.00000000E+00  1.00000000E+00  1.00000000E+00
  2.54393072E-02  1.90085949E-01  8.52441130E-01  1.00000000E+00  1.00000000E+00
  1.00000000E+00  1.00000000E+00  1.00000000E+00  2.54393072E-02  1.90085949E-01
  8.52441130E-01  1.00000000E+00  1.00000000E+00  1.00000000E+00  1.00000000E+00
  1.00000000E+00
Coordinates of each shell                  R   N=          69
 -1.14015053E-31  3.46944695E-16  2.21300691E-01 -1.14015053E-31  3.46944695E-16
  2.21300691E-01 -1.14015053E-31  3.46944695E-16  2.21300691E-01 -1.14015053E-31
  3.46944695E-16  2.21300691E-01 -1.14015053E-31  3.46944695E-16  2.21300691E-01
 -1.14015053E-31  3.46944695E-16  2.21300691E-01 -1.14015053E-31  3.46944695E-16
  2.21300691E-01 -1.14015053E-31  3.46944695E-16  2.21300691E-01 -1.14015053E-31
  3.46944695E-16  2.21300691E-01 -1.14015053E-31  3.46944695E-16  2.21300691E-01
 -1.14015053E-31  3.46944695E-16  2.21300691E-01 -2.46519033E-31  1.43942790E+00
 -8.85202763E-01 -2.46519033E-31  1.43942790E+00 -8.85202763E-01 -2.46519033E-31
  1.43942790E+00 -8.85202763E-01 -2.46519033E-31  1.43942790E+00 -8.85202763E-01
 -2.46519033E-31  1.43942790E+00 -8.85202763E-01 -2.46519033E-31  1.43942790E+00
 -8.85202763E-01 -1.76279078E-16 -1.43942790E+00 -8.85202763E-01 -1.76279078E-16
 -1.43942790E+00 -8.85202763E-01 -1.76279078E-16 -1.43942790E+00 -8.85202763E-01
 -1.76279078E-16 -1.43942790E+00 -8.85202763E-01 -1.76279078E-16 -1.43942790E+00
 -8.85202763E-01 -1.76279078E-16 -1.43942790E+00 -8.85202763E-01
Num ILSW                                   I              100
ILSW                                       I   N=         100
           0           0           0           0           2           0
           0           0           0           0         402          -1
           5           0           0           0           2           0
           0           0           0           0           1           0
           1           0           0           0           0           0
           0           0      100000           0          -1           0
           0           0           0           0           0           0
           0           0           0           1           0           0
           0 -2000000000           1           0           0           0
           0           0           4          52           0           0
           0           0           5           0           0           0
           0           0           0           3           0           1
           0           0           0           0           0           0
           0           0           0           0           0           0
           0           0           0           0           0           0
           0           0           0           0           0           0
           0           0           0           0
Num RLSW                                   I               52
RLSW                                       R   N=          52
  8.00000000E-01  7.20000000E-01  1.00000000E+00  8.10000000E-01  2.00000000E-01
  0.00000000E+00  0.00000000E+00  1.00000000E+00  0.00000000E+00  0.00000000E+00
  0.00000000E+00  0.00000000E+00  1.00000000E+00  0.00000000E+00  0.00000000E+00
  0.00000000E+00  0.00000000E+00  1.00000000E+00  0.00000000E+00  0.00000000E+00
  0.00000000E+00  0.00000000E+00  1.00000000E+00  0.00000000E+00  0.00000000E+00
  0.00000000E+00  0.00000000E+00  1.00000000E+00  0.00000000E+00  0.00000000E+00
  0.00000000E+00  0.00000000E+00  1.00000000E+00  0.00000000E+00  0.00000000E+00
  0.00000000E+00  0.00000000E+00  0.00000000E+00  1.00000000E+00  1.00000000E+00
  0.00000000E+00  1.00000000E+00  0.00000000E+00  0.00000000E+00  0.00000000E+00
  0.00000000E+00  0.00000000E+00  0.00000000E+00  0.00000000E+00  0.00000000E+00
  0.00000000E+00  0.00000000E+00
ECP-MxAtEC                                 I           250000
ECP-MaxLECP                                I               10
ECP-MaxAtL                                 I          2250000
ECP-MxTECP                                 I         11250000
ECP-LenNCZ                                 I                0
ECP-KFirst                                 I   N=          30
           0           0           0           0           0           0
           0           0           0           0           0           0
           0           0           0           0           0           0
           0           0           0           0           0           0
           0           0           0           0           0           0
ECP-KLast                                  I   N=          30
           0           0           0           0           0           0
           0           0           0           0           0           0
           0           0           0           0           0           0
           0           0           0           0           0           0
           0           0           0           0           0           0
ECP-LMax                                   I   N=           3
           0           0           0
ECP-LPSkip                                 I   N=           3
           1           1           1
ECP-RNFroz                                 R   N=           3
  0.00000000E+00  0.00000000E+00  0.00000000E+00
ECP-NLP                                    I                0
ECP-CLP1                                   R      0.000000000000000E+00
ECP-CLP2                                   R      0.000000000000000E+00
ECP-ZLP                                    R      0.000000000000000E+00
MxBond                                     I                2
NBond                                      I   N=           3
           2           1           1
IBond                                      I   N=           6
           2           3           1           0           1           0
RBond                                      R   N=           6
  1.00000000E+00  1.00000000E+00  1.00000000E+00  0.00000000E+00  1.00000000E+00
  0.00000000E+00
Virial Ratio                               R      2.003880052683845E+00
SCF Energy                                 R     -7.646667336763153E+01
Total Energy                               R     -7.646667336763153E+01
RMS Force                                  R      2.411904947431243E-09
RMS Density                                R      6.400897702038591E-10
NImag                                      I                0
Job Status                                 I                1
Nuclear derivative order                   I                2
Thermal Energy                             R     -7.644252311019775E+01
Thermal Enthalpy                           R     -7.644157892538412E+01
Thermal Free Energy                        R     -7.646299779065001E+01
External E-field                           R   N=          35
  0.00000000E+00  0.00000000E+00  0.00000000E+00  0.00000000E+00  0.00000000E+00
  0.00000000E+00  0.00000000E+00  0.00000000E+00  0.00000000E+00  0.00000000E+00
  0.00000000E+00  0.00000000E+00  0.00000000E+00  0.00000000E+00  0.00000000E+00
  0.00000000E+00  0.00000000E+00  0.00000000E+00  0.00000000E+00  0.00000000E+00
  0.00000000E+00  0.00000000E+00  0.00000000E+00  0.00000000E+00  0.00000000E+00
  0.00000000E+00  0.00000000E+00  0.00000000E+00  0.00000000E+00  0.00000000E+00
  0.00000000E+00  0.00000000E+00  0.00000000E+00  0.00000000E+00  0.00000000E+00
IOpCl                                      I                0
IROHF                                      I                0
Alpha Orbital Energies                     R   N=          59
 -1.91269424E+01 -1.01419809E+00 -5.34674507E-01 -3.91859890E-01 -3.16949688E-01
  1.38140222E-02  9.01136630E-02  3.56915022E-01  3.97588166E-01  4.08008858E-01
  4.24147447E-01  5.33058147E-01  5.57630463E-01  6.45940290E-01  6.72769966E-01
  7.67595673E-01  9.98897088E-01  1.15929460E+00  1.22005872E+00  1.70492382E+00
  1.74672402E+00  1.78308022E+00  1.80856710E+00  1.86945652E+00  2.08563884E+00
  2.36160527E+00  2.53287696E+00  2.70037330E+00  3.05767869E+00  3.15572018E+00
  3.25768769E+00  3.26492538E+00  3.28161208E+00  3.35908249E+00  3.52151344E+00
  3.57403879E+00  3.63377944E+00  3.63721604E+00  3.98964425E+00  4.08207737E+00
  4.08493267E+00  4.14359446E+00  4.58780024E+00  4.62135672E+00  4.76298750E+00
  4.94124660E+00  5.58884054E+00  6.11372408E+00  6.38534916E+00  6.40437667E+00
  6.51542253E+00  6.54559806E+00  6.57215853E+00  6.76463669E+00  6.85474257E+00
  7.36139721E+00  7.36696652E+00  7.61317020E+00  4.35022833E+01
Alpha MO coefficients                      R   N=        3481
  4.35069765E-01  6.39639266E-01  3.40567192E-02 -1.93125621E-02  6.35432874E-03
  0.00000000E+00  0.00000000E+00 -2.08768180E-03  0.00000000E+00  0.00000000E+00
  1.99704523E-03  0.00000000E+00  0.00000000E+00 -4.05412245E-04  6.56565318E-05
  0.00000000E+00  0.00000000E+00 -4.45975655E-04  0.00000000E+00 -2.28689267E-04
  0.00000000E+00  0.00000000E+00  5.05738393E-04  0.00000000E+00  8.17663442E-05
  0.00000000E+00  0.00000000E+00  5.32247379E-05  0.00000000E+00  0.00000000E+00
  0.00000000E+00  4.87722587E-04  1.13361536E-03 -1.04015835E-03  0.00000000E+00
  1.91016557E-04 -2.54985675E-04  0.00000000E+00 -6.14251512E-04  4.26440086E-04
 -1.09114025E-04  0.00000000E+00  7.47083430E-04  3.80269567E-04  0.00000000E+00
  4.87722587E-04  1.13361536E-03 -1.04015835E-03  0.00000000E+00 -1.91016557E-04
 -2.54985675E-04  0.00000000E+00  6.14251512E-04  4.26440086E-04 -1.09114025E-04
  0.00000000E+00 -7.47083430E-04  3.80269567E-04  0.00000000E+00 -9.77492813E-02
 -2.29774744E-01  3.42377897E-01  4.07782928E-01  1.46580645E-01  0.00000000E+00
  0.00000000E+00 -8.63830637E-02  0.00000000E+00  0.00000000E+00 -5.89644719E-02
  0.00000000E+00  0.00000000E+00 -7.28642607E-03  1.32425893E-03  0.00000000E+00
  0.00000000E+00 -3.90082768E-03  0.00000000E+00  3.22532201E-03  0.00000000E+00
  0.00000000E+00 -5.54406036E-03  0.00000000E+00 -1.40894250E-04  0.00000000E+00
  0.00000000E+00  7.30181727E-04  0.00000000E+00  0.00000000E+00  0.00000000E+00
  9.59133078E-02  8.58248852E-02  7.52871390E-03  0.00000000E+00 -1.31379035E-02
  8.93220293E-03  0.00000000E+00 -1.29957331E-02  6.79877234E-03 -4.67270472E-05
  0.00000000E+00 -4.08198081E-03 -3.18750031E-03  0.00000000E+00  9.59133078E-02
  8.58248852E-02  7.52871390E-03  0.00000000E+00  1.31379035E-02  8.93220293E-03
  0.00000000E+00  1.29957331E-02  6.79877234E-03 -4.67270472E-05  0.00000000E+00
  4.08198081E-03 -3.18750031E-03  0.00000000E+00  0.00000000E+00  0.00000000E+00
  0.00000000E+00  0.00000000E+00  0.00000000E+00  0.00000000E+00  3.87271505E-01
  0.00000000E+00  0.00000000E+00  2.66868791E-01  0.00000000E+00  0.00000000E+00
  1.09143661E-01  0.00000000E+00  0.00000000E+00  0.00000000E+00 -1.17023954E-02
  0.00000000E+00  0.00000000E+00  0.00000000E+00  0.00000000E+00 -1.15255023E-02
  0.00000000E+00  0.00000000E+00  0.00000000E+00  0.00000000E+00 -8.58602266E-04
  0.00000000E+00  0.00000000E+00  0.00000000E+00 -1.88268716E-03  1.50698472E-01
  2.15523331E-01  7.00034602E-02  0.00000000E+00 -1.13509951E-02  1.43359431E-02
  0.00000000E+00 -1.33935566E-02  2.05014547E-02  2.27787365E-03  0.00000000E+00
 -6.18505193E-03 -2.82017610E-03  0.00000000E+00 -1.50698472E-01 -2.15523331E-01
 -7.00034602E-02  0.00000000E+00 -1.13509951E-02 -1.43359431E-02  0.00000000E+00
 -1.33935566E-02 -2.05014547E-02 -2.27787365E-03  0.00000000E+00 -6.18505193E-03
  2.82017610E-03  0.00000000E+00 -3.67362465E-02 -8.77971518E-02  1.34362166E-01
  2.03807015E-01  2.53860352E-01  0.00000000E+00  0.00000000E+00  4.17817662E-01
  0.00000000E+00  0.00000000E+00  3.07729762E-01  0.00000000E+00  0.00000000E+00
  2.14387518E-01 -5.87172450E-03  0.00000000E+00  0.00000000E+00  2.07781067E-03
  0.00000000E+00 -1.50262193E-02  0.00000000E+00  0.00000000E+00  1.53296301E-04
  0.00000000E+00  7.15990049E-04  0.00000000E+00  0.00000000E+00 -1.71136748E-03
  0.00000000E+00  0.00000000E+00  0.00000000E+00 -8.70387480E-02 -1.41231876E-01
 -4.66179127E-02  0.00000000E+00  1.03413395E-02  1.17324924E-03  0.00000000E+00
  2.18185911E-02  1.76450704E-02  3.35385368E-03  0.00000000E+00  4.13534810E-04
  4.07428971E-03  0.00000000E+00 -8.70387480E-02 -1.41231876E-01 -4.66179127E-02
  0.00000000E+00 -1.03413395E-02  1.17324924E-03  0.00000000E+00 -2.18185911E-02
  1.76450704E-02  3.35385368E-03  0.00000000E+00 -4.13534810E-04  4.07428971E-03
  0.00000000E+00  0.00000000E+00  0.00000000E+00  0.00000000E+00  0.00000000E+00
  0.00000000E+00  4.77205613E-01  0.00000000E+00  0.00000000E+00  3.73615181E-01
  0.00000000E+00  0.00000000E+00  3.17835473E-01  0.00000000E+00  0.00000000E+00
  0.00000000E+00 -5.43588718E-03  0.00000000E+00  0.00000000E+00  0.00000000E+00
  0.00000000E+00 -1.71246907E-02  0.00000000E+00  0.00000000E+00  0.00000000E+00
  0.00000000E+00  1.22362358E-03  0.00000000E+00  0.00000000E+00  0.00000000E+00
 -3.07605872E-03  0.00000000E+00  0.00000000E+00  0.00000000E+00  0.00000000E+00
  1.10508389E-02  0.00000000E+00  0.00000000E+00  3.42586544E-02  0.00000000E+00
  0.00000000E+00  0.00000000E+00  3.42941383E-03  0.00000000E+00  0.00000000E+00
 -5.25299722E-03  0.00000000E+00  0.00000000E+00  0.00000000E+00  1.10508389E-02
  0.00000000E+00  0.00000000E+00  3.42586544E-02  0.00000000E+00  0.00000000E+00
  0.00000000E+00  3.42941383E-03  0.00000000E+00  0.00000000E+00  5.25299722E-03
 -3.32283040E-02 -8.27682421E-02  1.66036536E-01  8.37234781E-02  1.41930672E+00
  0.00000000E+00  0.00000000E+00 -1.53391038E-01  0.00000000E+00  0.00000000E+00
 -1.87237130E-01  0.00000000E+00  0.00000000E+00 -4.29019902E-01  4.98834800E-04
  0.00000000E+00  0.00000000E+00  3.58347021E-03  0.00000000E+00  1.60750220E-02
  0.00000000E+00  0.00000000E+00 -1.88377080E-02  0.00000000E+00 -3.69668971E-04
  0.00000000E+00  0.00000000E+00  1.22645534E-03  0.00000000E+00  0.00000000E+00
  0.00000000E+00 -3.34732063E-02 -2.48018138E-01 -9.80324510E-01  0.00000000E+00
 -1.59142893E-02  8.52810639E-03  0.00000000E+00  6.49664108E-02 -3.45797223E-02
 -3.84165257E-04  0.00000000E+00  2.08294747E-03  1.41080352E-03  0.00000000E+00
 -3.34732063E-02 -2.48018138E-01 -9.80324510E-01  0.00000000E+00  1.59142893E-02
  8.52810639E-03  0.00000000E+00 -6.49664108E-02 -3.45797223E-02 -3.84165257E-04
  0.00000000E+00 -2.08294747E-03  1.41080352E-03  0.00000000E+00  0.00000000E+00
  0.00000000E+00  0.00000000E+00  0.00000000E+00  0.00000000E+00  0.00000000E+00
 -2.48359612E-01  0.00000000E+00  0.00000000E+00 -1.99887458E-01  0.00000000E+00
  0.00000000E+00 -7.50431963E-01  0.00000000E+00  0.00000000E+00  0.00000000E+00
 -3.03691536E-03  0.00000000E+00  0.00000000E+00  0.00000000E+00  0.00000000E+00
  1.42130771E-02  0.00000000E+00  0.00000000E+00  0.00000000E+00  0.00000000E+00
  1.42924216E-03  0.00000000E+00  0.00000000E+00  0.00000000E+00  7.05521690E-04
  3.29091505E-02  1.25359963E-01  1.67261684E+00  0.00000000E+00  1.45506357E-02
 -1.55916786E-02  0.00000000E+00 -3.39161363E-02  2.97207071E-02 -2.18317103E-03
  0.00000000E+00 -1.17604871E-03 -2.70343644E-03  0.00000000E+00 -3.29091505E-02
 -1.25359963E-01 -1.67261684E+00  0.00000000E+00  1.45506357E-02  1.55916786E-02
  0.00000000E+00 -3.39161363E-02 -2.97207071E-02  2.18317103E-03  0.00000000E+00
 -1.17604871E-03  2.70343644E-03  0.00000000E+00  0.00000000E+00  0.00000000E+00
  0.00000000E+00  0.00000000E+00  0.00000000E+00  0.00000000E+00 -1.26702593E-01
  0.00000000E+00  0.00000000E+00 -3.05878362E-01  0.00000000E+00  0.00000000E+00
 -1.10433481E+00  0.00000000E+00  0.00000000E+00  0.00000000E+00 -2.58791746E-02
  0.00000000E+00  0.00000000E+00  0.00000000E+00  0.00000000E+00  9.74802110E-02
  0.00000000E+00  0.00000000E+00  0.00000000E+00  0.00000000E+00 -1.09340855E-02
  0.00000000E+00  0.00000000E+00  0.00000000E+00  1.20319616E-02  1.23000325E-01
  1.38701171E+00 -5.70964579E-01  0.00000000E+00 -4.05728056E-02  2.16732340E-02
  0.00000000E+00 -3.96159200E-02 -2.74917037E-02 -4.43898632E-03  0.00000000E+00
 -2.34675673E-02 -1.12364914E-02  0.00000000E+00 -1.23000325E-01 -1.38701171E+00
  5.70964579E-01  0.00000000E+00 -4.05728056E-02 -2.16732340E-02  0.00000000E+00
 -3.96159200E-02  2.74917037E-02  4.43898632E-03  0.00000000E+00 -2.34675673E-02
  1.12364914E-02  0.00000000E+00  1.72063192E-02  3.36813139E-02  1.42163197E-01
 -1.08857831E+00 -2.00949761E+00  0.00000000E+00  0.00000000E+00 -2.81328845E-01
  0.00000000E+00  0.00000000E+00 -8.07689738E-02  0.00000000E+00  0.00000000E+00
  2.01314818E+00  1.02969001E-02  0.00000000E+00  0.00000000E+00 -1.39708363E-02
  0.00000000E+00 -4.77240558E-02  0.00000000E+00  0.00000000E+00  1.67151057E-01
  0.00000000E+00 -1.09871920E-02  0.00000000E+00  0.00000000E+00 -2.50205897E-02
  0.00000000E+00  0.00000000E+00  0.00000000E+00 -6.49716554E-03  1.46779721E+00
  3.77747432E-01  0.00000000E+00 -2.84649263E-02  2.46333367E-02  0.00000000E+00
 -4.68691787E-01  3.19274818E-01  1.19190495E-03  0.00000000E+00 -4.48170255E-02
 -3.47035590E-02  0.00000000E+00 -6.49716554E-03  1.46779721E+00  3.77747432E-01
  0.00000000E+00  2.84649263E-02  2.46333367E-02  0.00000000E+00  4.68691787E-01
  3.19274818E-01  1.19190495E-03  0.00000000E+00  4.48170255E-02 -3.47035590E-02
  0.00000000E+00  3.16576777E-02  7.43025913E-02 -7.12396826E-02 -4.22629461E-01
  7.60756016E-01  0.00000000E+00  0.00000000E+00  2.00106317E-01  0.00000000E+00
  0.00000000E+00  1.73056471E-01  0.00000000E+00  0.00000000E+00 -5.91458729E-02
 -9.73803516E-03  0.00000000E+00  0.00000000E+00 -1.26729344E-02  0.00000000E+00
  2.81191408E-02  0.00000000E+00  0.00000000E+00 -3.13786629E-02  0.00000000E+00
 -6.43276189E-03  0.00000000E+00  0.00000000E+00 -8.30016644E-03  0.00000000E+00
  0.00000000E+00  0.00000000E+00  1.28251742E-01  8.55619470E-01 -8.44143371E-01
  0.00000000E+00 -1.97028170E-02  1.27118020E-02  0.00000000E+00  3.37790644E-01
 -2.70963081E-02  1.30206009E-02  0.00000000E+00 -1.80286490E-03  6.79794376E-04
  0.00000000E+00  1.28251742E-01  8.55619470E-01 -8.44143371E-01  0.00000000E+00
  1.97028170E-02  1.27118020E-02  0.00000000E+00 -3.37790644E-01 -2.70963081E-02
  1.30206009E-02  0.00000000E+00  1.80286490E-03  6.79794376E-04  0.00000000E+00
  0.00000000E+00  0.00000000E+00  0.00000000E+00  0.00000000E+00  0.00000000E+00
 -3.16528392E-01  0.00000000E+00  0.00000000E+00 -6.91976677E-01  0.00000000E+00
  0.00000000E+00  1.26611460E+00  0.00000000E+00  0.00000000E+00  0.00000000E+00
  7.49982328E-03  0.00000000E+00  0.00000000E+00  0.00000000E+00  0.00000000E+00
 -1.21134281E-02  0.00000000E+00  0.00000000E+00  0.00000000E+00  0.00000000E+00
 -4.33584238E-04  0.00000000E+00  0.00000000E+00  0.00000000E+00  1.50277888E-03
  0.00000000E+00  0.00000000E+00  0.00000000E+00  0.00000000E+00  6.09516221E-03
  0.00000000E+00  0.00000000E+00 -3.88323120E-02  0.00000000E+00  0.00000000E+00
  0.00000000E+00 -4.06213629E-04  0.00000000E+00  0.00000000E+00  1.54197365E-03
  0.00000000E+00  0.00000000E+00  0.00000000E+00  6.09516221E-03  0.00000000E+00
  0.00000000E+00 -3.88323120E-02  0.00000000E+00  0.00000000E+00  0.00000000E+00
 -4.06213629E-04  0.00000000E+00  0.00000000E+00 -1.54197365E-03  0.00000000E+00
  0.00000000E+00  0.00000000E+00  0.00000000E+00  0.00000000E+00  0.00000000E+00
 -3.52734907E-01  0.00000000E+00  0.00000000E+00 -4.14929467E-02  0.00000000E+00
  0.00000000E+00  2.54322905E+00  0.00000000E+00  0.00000000E+00  0.00000000E+00
  1.86449998E-02  0.00000000E+00  0.00000000E+00  0.00000000E+00  0.00000000E+00
 -2.82667579E-01  0.00000000E+00  0.00000000E+00  0.00000000E+00  0.00000000E+00
  1.52166122E-02  0.00000000E+00  0.00000000E+00  0.00000000E+00 -1.15302466E-02
  6.02752947E-02 -8.19478726E-01 -1.89643446E+00  0.00000000E+00  3.03081927E-02
 -1.65325218E-02  0.00000000E+00  5.26389954E-01 -4.67023262E-01  2.35491272E-04
  0.00000000E+00  4.83606070E-02  3.16519532E-02  0.00000000E+00 -6.02752947E-02
  8.19478726E-01  1.89643446E+00  0.00000000E+00  3.03081927E-02  1.65325218E-02
  0.00000000E+00  5.26389954E-01  4.67023262E-01 -2.35491272E-04  0.00000000E+00
  4.83606070E-02 -3.16519532E-02  0.00000000E+00  4.68354798E-02  1.00325811E-01
 -1.91036568E-02 -1.30305875E+00  4.95884810E+00  0.00000000E+00  0.00000000E+00
  4.25155716E-02  0.00000000E+00  0.00000000E+00 -3.48703125E-01  0.00000000E+00
  0.00000000E+00 -8.37778501E-01  1.00561950E-02  0.00000000E+00  0.00000000E+00
  2.37376276E-02  0.00000000E+00 -1.88522132E-02  0.00000000E+00  0.00000000E+00
 -1.57558505E-01  0.00000000E+00  1.31425221E-02  0.00000000E+00  0.00000000E+00
  1.79022098E-02  0.00000000E+00  0.00000000E+00  0.00000000E+00  2.20786858E-02
 -1.23898402E+00 -9.95897825E-01  0.00000000E+00  2.34250248E-02 -2.13972280E-03
  0.00000000E+00  2.21765090E-01 -5.61925104E-01 -1.93228318E-02  0.00000000E+00
  3.87122631E-02  1.54277477E-02  0.00000000E+00  2.20786858E-02 -1.23898402E+00
 -9.95897825E-01  0.00000000E+00 -2.34250248E-02 -2.13972280E-03  0.00000000E+00
 -2.21765090E-01 -5.61925104E-01 -1.93228318E-02  0.00000000E+00 -3.87122631E-02
  1.54277477E-02  0.00000000E+00  1.39017820E-02  2.90642578E-02 -3.99328637E-02
 -3.46561793E-01  3.74862606E+00  0.00000000E+00  0.00000000E+00 -8.49308950E-02
  0.00000000E+00  0.00000000E+00 -6.88220496E-01  0.00000000E+00  0.00000000E+00
 -1.75973856E+00 -3.24410394E-02  0.00000000E+00  0.00000000E+00  8.05708889E-04
  0.00000000E+00  1.03698691E-01  0.00000000E+00  0.00000000E+00 -3.85939273E-02
  0.00000000E+00 -3.68149209E-03  0.00000000E+00  0.00000000E+00  2.21544913E-02
  0.00000000E+00  0.00000000E+00  0.00000000E+00  7.01120314E-03 -1.82735900E+00
 -4.16817952E-01  0.00000000E+00  8.35377206E-03 -4.70628253E-02  0.00000000E+00
  7.97785751E-01  3.95793107E-01  3.25639215E-02  0.00000000E+00  1.14317463E-02
  5.75147854E-02  0.00000000E+00  7.01120314E-03 -1.82735900E+00 -4.16817952E-01
  0.00000000E+00 -8.35377206E-03 -4.70628253E-02  0.00000000E+00 -7.97785751E-01
  3.95793107E-01  3.25639215E-02  0.00000000E+00 -1.14317463E-02  5.75147854E-02
  0.00000000E+00  0.00000000E+00  0.00000000E+00  0.00000000E+00  0.00000000E+00
  0.00000000E+00  0.00000000E+00  0.00000000E+00  0.00000000E+00  0.00000000E+00
  0.00000000E+00  0.00000000E+00  0.00000000E+00  0.00000000E+00  0.00000000E+00
  0.00000000E+00  0.00000000E+00  0.00000000E+00  0.00000000E+00  2.63312443E-02
  0.00000000E+00  0.00000000E+00  0.00000000E+00  0.00000000E+00 -5.64295871E-03
  0.00000000E+00  0.00000000E+00  0.00000000E+00  0.00000000E+00  1.38577794E-02
  0.00000000E+00  0.00000000E+00  0.00000000E+00  0.00000000E+00  0.00000000E+00
 -4.77630991E-02  0.00000000E+00  0.00000000E+00  8.25457270E-01  0.00000000E+00
  0.00000000E+00  0.00000000E+00  2.40603352E-02  0.00000000E+00  0.00000000E+00
 -1.22860336E-02  0.00000000E+00  0.00000000E+00  0.00000000E+00  4.77630991E-02
  0.00000000E+00  0.00000000E+00 -8.25457270E-01  0.00000000E+00  0.00000000E+00