 Entering Gaussian System, Link 0=gdv
 Input=iop_test.gjf
 Output=iop_test.log
 Initial command:
 /home/emanuele/chemical_software//gdv/l1.exe "/home/emanuele/chemical_software/scratch/Gau-685889.inp" -scrdir="/home/emanuele/chemical_software/scratch/"
 Entering Link 1 = /home/emanuele/chemical_software//gdv/l1.exe PID=    685891.
  
 Copyright (c) 1988-2020, Gaussian, Inc.  All Rights Reserved.
  
 This is the private, development version of
 the Gaussian(R) DV system of programs. It is based on
 the Gaussian(R) 16 system (copyright 2016, Gaussian, Inc.),
 the Gaussian(R) 09 system (copyright 2009, Gaussian, Inc.),
 the Gaussian(R) 03 system (copyright 2003, Gaussian, Inc.),
 the Gaussian(R) 98 system (copyright 1998, Gaussian, Inc.),
 the Gaussian(R) 94 system (copyright 1995, Gaussian, Inc.),
 the Gaussian 92(TM) system (copyright 1992, Gaussian, Inc.),
 the Gaussian 90(TM) system (copyright 1990, Gaussian, Inc.),
 the Gaussian 88(TM) system (copyright 1988, Gaussian, Inc.),
 the Gaussian 86(TM) system (copyright 1986, Carnegie Mellon
 University), and the Gaussian 82(TM) system (copyright 1983,
 Carnegie Mellon University). Gaussian is a federally registered
 trademark of Gaussian, Inc.
  
 This software contains proprietary and confidential information,
 including trade secrets, belonging to Gaussian, Inc.
  
 This software is provided under written license and may be
 used, copied, transmitted, or stored only in accord with that
 written license.
  
 The following legend is applicable only to US Government
 contracts under FAR:
  
                    RESTRICTED RIGHTS LEGEND
  
 Use, reproduction and disclosure by the US Government is
 subject to restrictions as set forth in subparagraphs (a)
 and (c) of the Commercial Computer Software - Restricted
 Rights clause in FAR 52.227-19.
  
 Gaussian, Inc.
 340 Quinnipiac St., Bldg. 40, Wallingford CT 06492
  
  
 ---------------------------------------------------------------
 Warning -- This program may not be used in any manner that
 competes with the business of Gaussian, Inc. or will provide
 assistance to any competitor of Gaussian, Inc.  The licensee
 of this program is prohibited from giving any competitor of
 Gaussian, Inc. access to this program.  By using this program,
 the user acknowledges that Gaussian, Inc. is engaged in the
 business of creating and licensing software in the field of
 computational chemistry and represents and warrants to the
 licensee that it is not a competitor of Gaussian, Inc. and that
 it will not use this program in any manner prohibited above.
 ---------------------------------------------------------------
  

 Cite this work as:
 Gaussian Development Version, Revision J.14,
 M. J. Frisch, G. W. Trucks, H. B. Schlegel, G. E. Scuseria, 
 M. A. Robb, J. R. Cheeseman, G. Scalmani, V. Barone, 
 G. A. Petersson, H. Nakatsuji, X. Li, A. V. Marenich, M. Caricato, 
 J. Bloino, B. G. Janesko, J. Zheng, R. Gomperts, B. Mennucci, 
 H. P. Hratchian, J. V. Ortiz, A. F. Izmaylov, J. L. Sonnenberg, 
 D. Williams-Young, F. Ding, F. Lipparini, F. Egidi, J. Goings, 
 B. Peng, A. Petrone, T. Henderson, D. Ranasinghe, V. G. Zakrzewski, 
 J. Gao, N. Rega, G. Zheng, W. Liang, M. Hada, M. Ehara, K. Toyota, 
 R. Fukuda, J. Hasegawa, M. Ishida, T. Nakajima, Y. Honda, O. Kitao, 
 H. Nakai, T. Vreven, K. Throssell, J. A. Montgomery, Jr., 
 J. E. Peralta, F. Ogliaro, M. J. Bearpark, J. J. Heyd, 
 E. N. Brothers, K. N. Kudin, V. N. Staroverov, T. A. Keith, 
 R. Kobayashi, J. Normand, K. Raghavachari, A. P. Rendell, 
 J. C. Burant, S. S. Iyengar, J. Tomasi, M. Cossi, J. M. Millam, 
 M. Klene, C. Adamo, R. Cammi, J. W. Ochterski, R. L. Martin, 
 K. Morokuma, O. Farkas, J. B. Foresman, and D. J. Fox, 
 Gaussian, Inc., Wallingford CT, 2020.
 
 ******************************************
 Gaussian DV:  ES64L-GDVRevJ.14 29-Dec-2020
                31-Jan-2022 
 ******************************************
 %nprocs=2
 Will use up to    2 processors via shared memory.
 %chk=iop_test.chk
 ----------------------------------------------------------------------
 #P B3LYP/def2TZVPP Geom=Connectivity opt=(calcall,tight,maxstep=7,maxc
 ycles=100) Freq iop(4/33=3, 7/33=1)
 ----------------------------------------------------------------------
 1/6=100,7=10,8=7,10=4,18=20,19=15,26=3,37=210000000,38=1,57=2/1,3;
 2/9=110,12=2,40=1/2;
 3/5=44,7=202,11=2,25=1,30=1,71=2,74=-5,140=1/1,2,3;
 4/33=3/1;
 5/5=2,38=5,134=7/2;
 8/6=4,10=90,11=11/1;
 11/6=1,8=1,9=11,15=111,16=1/1,2,10;
 10/6=1/2;
 6/7=2,8=2,9=2,10=2,18=1,28=1/1;
 7/10=1,25=1,33=1/1,2,3,16;
 1/6=100,7=10,8=7,10=4,18=20,19=15,26=3/3(3);
 2/9=110/2;
 7/8=1,9=1,25=1,33=1,44=-1/16;
 99//99;
 2/9=110/2;
 3/5=44,7=202,11=2,25=1,30=1,71=2,74=-5,140=1/1,2,3;
 4/5=5,16=3,33=3,69=1/1;
 5/5=2,38=5,134=7/2;
 8/6=4,10=90,11=11/1;
 11/6=1,8=1,9=11,15=111,16=1/1,2,10;
 10/6=1/2;
 7/10=1,25=1,33=1/1,2,3,16;
 1/6=100,7=10,8=7,10=4,18=20,19=15,26=3/3(-8);
 2/9=110/2;
 6/7=2,8=2,9=2,10=2,18=1,19=2,28=1/1;
 7/8=1,9=1,25=1,33=1,44=-1/16;
 99//99;
 Leave Link    1 at Mon Jan 31 15:13:27 2022, MaxMem=           0 cpu:               0.0 elap:               0.0
 (Enter /home/emanuele/chemical_software//gdv/l101.exe)
 -------------------
 Title Card Required
 -------------------
 Symbolic Z-matrix:
 Charge =  0 Multiplicity = 1
 O                     5.10901   2.31105   0. 
 H                     6.06901   2.31105   0. 
 H                     4.78856   3.21598   0. 
 
 ITRead=  0  0  0
 MicOpt= -1 -1 -1
 DXMax1 from symmetrization= 1.13D-08
 NAtoms=      3 NQM=        3 NQMF=       0 NMMI=      0 NMMIF=      0
                NMic=       0 NMicF=      0.
                    Isotopes and Nuclear Properties:
 (Nuclear quadrupole moments (NQMom) in fm**2, nuclear magnetic moments (NMagM)
  in nuclear magnetons)

  Atom         1           2           3
 IAtWgt=          16           1           1
 AtmWgt=  15.9949146   1.0078250   1.0078250
 NucSpn=           0           1           1
 AtZEff=  -0.0000000  -0.0000000  -0.0000000
 NQMom=    0.0000000   0.0000000   0.0000000
 NMagM=    0.0000000   2.7928460   2.7928460
 AtZNuc=   8.0000000   1.0000000   1.0000000
 Leave Link  101 at Mon Jan 31 15:13:27 2022, MaxMem=   104857600 cpu:               0.2 elap:               0.1
 (Enter /home/emanuele/chemical_software//gdv/l103.exe)

 GradGradGradGradGradGradGradGradGradGradGradGradGradGradGradGradGradGrad
 Berny optimization.
 Initialization pass.
                           ----------------------------
                           !    Initial Parameters    !
                           ! (Angstroms and Degrees)  !
 --------------------------                            --------------------------
 ! Name  Definition              Value          Derivative Info.                !
 --------------------------------------------------------------------------------
 ! R1    R(1,2)                  0.96           calculate D2E/DX2 analytically  !
 ! R2    R(1,3)                  0.96           calculate D2E/DX2 analytically  !
 ! A1    A(2,1,3)              109.5            calculate D2E/DX2 analytically  !
 --------------------------------------------------------------------------------
 Trust Radius=7.00D-02 FncErr=1.00D-07 GrdErr=1.00D-06 EigMax=2.50D+02 EigMin=1.00D-04
 Number of steps in this run=    100 maximum allowed number of steps=    100.
 GradGradGradGradGradGradGradGradGradGradGradGradGradGradGradGradGradGrad

 Leave Link  103 at Mon Jan 31 15:13:27 2022, MaxMem=   104857600 cpu:               0.0 elap:               0.0
 (Enter /home/emanuele/chemical_software//gdv/l202.exe)
                          Input orientation:                          
 ---------------------------------------------------------------------
 Center     Atomic      Atomic             Coordinates (Angstroms)
 Number     Number       Type             X           Y           Z
 ---------------------------------------------------------------------
      1          8           0        5.109012    2.311046   -0.000000
      2          1           0        6.069012    2.311046   -0.000000
      3          1           0        4.788557    3.215982    0.000000
 ---------------------------------------------------------------------
                    Distance matrix (angstroms):
                    1          2          3
     1  O    0.000000
     2  H    0.960000   0.000000
     3  H    0.960000   1.567952   0.000000
 Stoichiometry    H2O
 Framework group  C2V[C2(O),SGV(H2)]
 Deg. of freedom     2
 Full point group                 C2V     NOp   4
 Largest Abelian subgroup         C2V     NOp   4
 Largest concise Abelian subgroup C2      NOp   2
                         Standard orientation:                         
 ---------------------------------------------------------------------
 Center     Atomic      Atomic             Coordinates (Angstroms)
 Number     Number       Type             X           Y           Z
 ---------------------------------------------------------------------
      1          8           0        0.000000   -0.000000    0.110812
      2          1           0       -0.000000    0.783976   -0.443248
      3          1           0       -0.000000   -0.783976   -0.443248
 ---------------------------------------------------------------------
 Rotational constants (GHZ):         919.6759688         407.9403309         282.5913776
 Leave Link  202 at Mon Jan 31 15:13:27 2022, MaxMem=   104857600 cpu:               0.0 elap:               0.0
 (Enter /home/emanuele/chemical_software//gdv/l301.exe)
 Standard basis: def2TZVPP (5D, 7F)
 Ernie: Thresh=  0.10000D-02 Tol=  0.10000D-05 Strict=F.
 There are    28 symmetry adapted cartesian basis functions of A1  symmetry.
 There are     7 symmetry adapted cartesian basis functions of A2  symmetry.
 There are    12 symmetry adapted cartesian basis functions of B1  symmetry.
 There are    19 symmetry adapted cartesian basis functions of B2  symmetry.
 There are    24 symmetry adapted basis functions of A1  symmetry.
 There are     7 symmetry adapted basis functions of A2  symmetry.
 There are    11 symmetry adapted basis functions of B1  symmetry.
 There are    17 symmetry adapted basis functions of B2  symmetry.
    59 basis functions,    85 primitive gaussians,    66 cartesian basis functions
     5 alpha electrons        5 beta electrons
       nuclear repulsion energy         9.1571160303 Hartrees.
 IExCor=    4002 DFT=T Ex+Corr=B3LYP ScaHFX=  0.200000
 ScaDFX=  0.800000  0.720000  1.000000  0.810000  1.000000  0.000000
 ScaDFX=  0.000000  0.000000  0.000000  0.000000  0.000000  0.000000
 IRadAn=      5 IRanWt=     -1 IRanGd=            0 ICorTp=0 IEmpDi=  4
 NAtoms=    3 NActive=    3 NUniq=    2 SFac= 2.25D+00 NAtFMM=   60 NAOKFM=F Big=F
 Integral buffers will be    131072 words long.
 Raffenetti 2 integral format.
 Two-electron integral symmetry is turned on.
 Leave Link  301 at Mon Jan 31 15:13:27 2022, MaxMem=   104857600 cpu:               0.1 elap:               0.0
 (Enter /home/emanuele/chemical_software//gdv/l302.exe)
 NPDir=0 NMtPBC=     1 NCelOv=     1 NCel=       1 NClECP=     1 NCelD=      1
         NCelK=      1 NCelE2=     1 NClLst=     1 CellRange=     0.0.
 One-electron integrals computed using PRISM.
 One-electron integral symmetry used in STVInt
   4 Symmetry operations used in ECPInt.
 ECPInt:  NShTT=     276 NPrTT=     694 LenC2=     277 LenP2D=     681.
 LDataN:  DoStor=T MaxTD1= 6 Len=  172
 NBasis=    59 RedAO= T EigKep=  2.21D-03  NBF=    24     7    11    17
 NBsUse=    59 1.00D-06 EigRej= -1.00D+00 NBFU=    24     7    11    17
 Precomputing XC quadrature grid using
 IXCGrd= 4 IRadAn=           5 IRanWt=          -1 IRanGd=           0 AccXCQ= 0.00D+00.
 Generated NRdTot=       0 NPtTot=       69274 NUsed=           0 NTot=          64
 NSgBfM=    66    66    66    66    66 MxSgAt=     3 MxSgA2=     3 SizInc=   0.000
 NMBTot=      687 MaxBatPerAtom=       83 MaxMicBPerAtom=      231.
 Leave Link  302 at Mon Jan 31 15:13:27 2022, MaxMem=   104857600 cpu:               0.1 elap:               0.1
 (Enter /home/emanuele/chemical_software//gdv/l303.exe)
 DipDrv:  MaxL=1.
 Leave Link  303 at Mon Jan 31 15:13:27 2022, MaxMem=   104857600 cpu:               0.0 elap:               0.0
 (Enter /home/emanuele/chemical_software//gdv/l401.exe)
 Initial guess wavefunction:
 SetAtRh:  ITypeU=  14 NETotI=      10 ICharg=  0 NETot=      10.
 StAtR1:  I=    1 I1=    1 IA=  8 C=   8.0 OKShel=TTT
                                                  SSP
                                                  224
 StAtR1:  I=    2 I1=    2 IA=  1 C=   1.0 OKShel=T
                                                  S
                                                  1
 StAtR1:  I=    3 I1=    3 IA=  1 C=   1.0 OKShel=T
                                                  S
                                                  1
          I=    1 IA=  8 I1=    1 NAtG=12 NE=   8.000 C=   8.000 Err= 3.76D-12
          I=    2 IA=  1 I1=    2 NAtG=10 NE=   1.000 C=   1.000 Err=-1.35D-12
          I=    3 IA=  1 I1=    3 NAtG=10 NE=   1.000 C=   1.000 Err=-1.35D-12
 ShPair: Thresh= 1.00D-12 NBox=     0 BxSize= 0.00D+00 RnKept= 2.96D+00
         NSMCal=                  276 NSMKep=                 276
 ExpMin= 1.03D-01 ExpMax= 2.70D+04 ExpMxC= 9.22D+02 IAcc=3 IRadAn=         5 AccDes= 0.00D+00
 ReadGW:  IGet=1 IStart=           1 Next=           1 LGW=           0.
 Using stored XC quadrature information.
 IGWInf( 1) =          64 (NGWInf)
 IGWInf( 2) =           3 (NAtomA)
 IGWInf( 3) =           5 (IRadAn)
 IGWInf( 4) =          -1 (IRanWt)
 IGWInf( 5) =           0 (IRanGd)
 IGWInf( 6) =           2 (IRType)
 IGWInf( 7) =           0 (NRdTot)
 IGWInf( 8) =           0 (NGWTot)
 IGWInf( 9) =       66120 (LGWBtD)
 IGWInf(10) =           0 (NAtBtD)
 IGWInf(11) =           0 (NIRBtD)
 IGWInf(12) =           0 (NRRBtD)
 IGWInf(13) =           1 (NClRep)
 IGWInf(14) =           0 (ICntr3)
 IGWInf(15) =           0 (IPFlag)
 IGWInf(16) =           0 (IGet)  
 IGWInf(17) =           0         
 IGWInf(18) =          66         
 IGWInf(19) =          66         
 IGWInf(20) =          66         
 IGWInf(21) =          66         
 IGWInf(22) =          66         
 IGWInf(23) =           3         
 IGWInf(24) =           3         
 IGWInf(25) =           0         
 IGWInf(26) =           0         
 IGWInf(27) =           0         
 IGWInf(28) =           0         
 IGWInf(29) =           0         
 IGWInf(30) =           0         
 IGWInf(31) =           0         
 IGWInf(32) =           0         
 IGWInf(33) =         687 (NMBTot)
 IGWInf(34) =       69274 (NPtMB) 
 IGWInf(35) =          83 (MaxBA) 
 IGWInf(36) =         231 (MaxMBA)
 IGWInf(37) =           0         
 IGWInf(38) =           0         
 IGWInf(39) =           0         
 IGWInf(40) =           0         
 IGWInf(41) =           0         
 IGWInf(42) =           0         
 IGWInf(43) =           0         
 IGWInf(44) =           0         
 IGWInf(45) =           0         
 IGWInf(46) =           0         
 IGWInf(47) =           0         
 IGWInf(48) =           0         
 IGWInf(49) =           0         
 IGWInf(50) =           0         
 IGWInf(51) =           0         
 IGWInf(52) =           0         
 IGWInf(53) =           0         
 IGWInf(54) =           0         
 IGWInf(55) =           0         
 IGWInf(56) =           0         
 IGWInf(57) =           0         
 IGWInf(58) =           0         
 IGWInf(59) =           0         
 IGWInf(60) =           0         
 IGWInf(61) =           0         
 IGWInf(62) =           0         
 IGWInf(63) =           0         
 IGWInf(64) =           0         
 IAtBtD: 
              1            2            3
 Harris functional with IExCor= 4002 and IRadAn=       5 diagonalized for initial guess.
 HarFok:  IExCor=    4002 AccDes= 0.00D+00 IRadAn=         5 IDoV= 1 UseB2=F ITyADJ=14 ICtDFT=  3500011
 ScaDFX=  1.000000  1.000000  1.000000  1.000000  1.000000  1.000000
 ScaDFX=  1.000000  1.000000  1.000000  1.000000  1.000000  1.000000
 Pruned (  99, 590) grid will be used in numerical quadrature.
 NAtomA=         3 IGW02=         3 IRadAn=         5 IGW03=         5
 IRanWt=        -1 IGW04=        -1 IRadGd=         0 IGW05=         0
 IRType=         2 IGW06=         2 NClRep=         1 IGW13=         1
 IGW14=         0 IGW15=               0
 QuadM1: IPartL= -1 IPartT=  -1 ICntrl=  11 NBas6D=   66 NMtPBC=   1 NDimBl=1 NNH=1
         DoE=T DoVAB=T DoD1E=F DoD2E=F DoCPKS=F DoNuFx=F DoMgFx=F CSGTau=F DoHyp=F IPKSDn=0 DoChi=F
         DoPolD=F DoGmx=F DoGmPx=F DoGmPe=F PeGmx=F DoGxPT=F DoHir=F DoEl2=F DoVarG=F DoVarX=F
         NAtoms=    3 ICnBeg=    0 ICnEnd=    0 NMat0=   1 NFrqR1=   0 NZP=     0 NZV=     0
         NTT6D=    2211 NMtFkD=     0 NDPol=     0 NMatP=   1 NMatG=   0
         NMatQ=   0 NMtD1P=   0 NMtD1Q=   0 NMatV=   1 NMatVx=   0 ND1E=   0
         LenExc= 1 LenP=    2211 LenG=       0 LenQ=       0 LenD1P=       0 LenD1Q=       0
         LenVAB=    2211 LenVx=       0 LenD1E=     0 LenD2E=       0 LenVN=       0 LenVNx=       0
 SetAtRh:  ITypeU=  13 NETotI=      10 ICharg=  0 NETot=      10.
 StAtR1:  I=    1 I1=    1 IA=  8 C=   8.0 OKShel=TTT
                                                  SSP
                                                  224
 StAtR1:  I=    2 I1=    2 IA=  1 C=   1.0 OKShel=T
                                                  S
                                                  1
 StAtR1:  I=    3 I1=    3 IA=  1 C=   1.0 OKShel=T
                                                  S
                                                  1
          I=    1 IA=  8 I1=    1 NAtG=11 NE=   8.000 C=   8.000 Err= 8.93D-12
          I=    2 IA=  1 I1=    2 NAtG= 9 NE=   1.000 C=   1.000 Err=-2.15D-12
          I=    3 IA=  1 I1=    3 NAtG= 9 NE=   1.000 C=   1.000 Err=-2.15D-12
 IPart= -1 IRanGd=          0 ScrnBf=T ScrnGd=T RCrit=4.00D+00 DoMicB=T.
 CalDSu-InSpLW:  IPartL=    0 NPrtUS=    2 NPrtUL=    1 DoSpLW=F IThBeg=    0 IThEnd=    1 NThAct=    2.
 CalDSu:  NPrtUS=   2 ThrOK=T IAlg=2 DoDPD=F LenP=        2211 LenD1P=             0 GPUOK=F
          ISkipM=0 DoSpLW=F IThBeg=    0 IThEnd=    1.
 QuadM1: IPartL= -1 IPartT=   0 ICntrl=  11 NBas6D=   66 NMtPBC=   1 NDimBl=1 NNH=1
         DoE=T DoVAB=T DoD1E=F DoD2E=F DoCPKS=F DoNuFx=F DoMgFx=F CSGTau=F DoHyp=F IPKSDn=0 DoChi=F
         DoPolD=F DoGmx=F DoGmPx=F DoGmPe=F PeGmx=F DoGxPT=F DoHir=F DoEl2=F DoVarG=F DoVarX=F
         NAtoms=    3 ICnBeg=    0 ICnEnd=    0 NMat0=   1 NFrqR1=   0 NZP=     0 NZV=     0
         NTT6D=    2211 NMtFkD=     0 NDPol=     0 NMatP=   1 NMatG=   0
         NMatQ=   0 NMtD1P=   0 NMtD1Q=   0 NMatV=   1 NMatVx=   0 ND1E=   0
         LenExc= 1 LenP=    2211 LenG=       0 LenQ=       0 LenD1P=       0 LenD1Q=       0
         LenVAB=    2211 LenVx=       0 LenD1E=     0 LenD2E=       0 LenVN=       0 LenVNx=       0
 IPart=  0 IRanGd=          0 ScrnBf=T ScrnGd=T RCrit=4.00D+00 DoMicB=T.
 QuadM1: IPartL= -1 IPartT=   1 ICntrl=  11 NBas6D=   66 NMtPBC=   1 NDimBl=1 NNH=1
         DoE=T DoVAB=T DoD1E=F DoD2E=F DoCPKS=F DoNuFx=F DoMgFx=F CSGTau=F DoHyp=F IPKSDn=0 DoChi=F
         DoPolD=F DoGmx=F DoGmPx=F DoGmPe=F PeGmx=F DoGxPT=F DoHir=F DoEl2=F DoVarG=F DoVarX=F
         NAtoms=    3 ICnBeg=    0 ICnEnd=    0 NMat0=   1 NFrqR1=   0 NZP=     0 NZV=     0
         NTT6D=    2211 NMtFkD=     0 NDPol=     0 NMatP=   1 NMatG=   0
         NMatQ=   0 NMtD1P=   0 NMtD1Q=   0 NMatV=   1 NMatVx=   0 ND1E=   0
         LenExc= 1 LenP=    2211 LenG=       0 LenQ=       0 LenD1P=       0 LenD1Q=       0
         LenVAB=    2211 LenVx=       0 LenD1E=     0 LenD2E=       0 LenVN=       0 LenVNx=       0
 IPart=  1 IRanGd=          0 ScrnBf=T ScrnGd=T RCrit=4.00D+00 DoMicB=T.
 CutRad = 1000.00    CtRdIn =    0.00    XCrit =  15.00   ICut = 0
 Pruned (  99, 590) grid will be used in numerical quadrature.
 CutRad = 1000.00    CtRdIn =    0.00    XCrit =  15.00   ICut = 0
 IPart=  0 Atom number   1 atomic number  8 has       22510 grid points.
 At   1 B   1: 100.0% Sh 100.0 % Bf    1 runs, min   66 max   66 av   66.0
 IPart=  0 Atom   1 batch    1 overlaps    3 atoms,    23 shells and     3 DB shells.   NGrid=      2408
 Pruned (  99, 590) grid will be used in numerical quadrature.
 IPart=  1 Atom number   1 atomic number  8 has       22510 grid points.
 At   1 B   2: 100.0% Sh 100.0 % Bf    1 runs, min   66 max   66 av   66.0
 IPart=  1 Atom   1 batch    2 overlaps    3 atoms,    23 shells and     3 DB shells.   NGrid=      2522
 Symmetry reduced    86 angular points to    28 for atom    1.
 Symmetry reduced   194 angular points to    57 for atom    1.
 At   1 B   3: 100.0% Sh 100.0 % Bf    1 runs, min   66 max   66 av   66.0
 IPart=  1 Atom   1 batch    3 overlaps    3 atoms,    23 shells and     3 DB shells.   NGrid=      2114
 At   1 B   4: 100.0% Sh 100.0 % Bf    1 runs, min   66 max   66 av   66.0
 IPart=  0 Atom   1 batch    4 overlaps    3 atoms,    23 shells and     3 DB shells.   NGrid=      1180
 Symmetry reduced   302 angular points to    86 for atom    1.
 Symmetry reduced   590 angular points to   162 for atom    1.
 At   1 B   5: 100.0% Sh 100.0 % Bf    1 runs, min   66 max   66 av   66.0
 IPart=  0 Atom   1 batch    5 overlaps    3 atoms,    23 shells and     3 DB shells.   NGrid=      1180
 At   1 B   6: 100.0% Sh 100.0 % Bf    1 runs, min   66 max   66 av   66.0
 IPart=  1 Atom   1 batch    6 overlaps    3 atoms,    23 shells and     3 DB shells.   NGrid=      1180
 Symmetry reduced   590 angular points to   162 for atom    1.
 At   1 B   7:  95.7% Sh  98.5 % Bf    2 runs, min    1 max   64 av   32.5
 IPart=  0 Atom   1 batch    7 overlaps    3 atoms,    22 shells and     3 DB shells.   NGrid=      1180
 At   1 B   8:  95.7% Sh  98.5 % Bf    2 runs, min    1 max   64 av   32.5
 IPart=  1 Atom   1 batch    8 overlaps    3 atoms,    22 shells and     3 DB shells.   NGrid=      1180
 At   1 B   9:  95.7% Sh  98.5 % Bf    2 runs, min    1 max   64 av   32.5
 IPart=  0 Atom   1 batch    9 overlaps    3 atoms,    22 shells and     3 DB shells.   NGrid=      1180
 At   1 B  10:  95.7% Sh  98.5 % Bf    2 runs, min    1 max   64 av   32.5
 IPart=  1 Atom   1 batch   10 overlaps    3 atoms,    22 shells and     3 DB shells.   NGrid=      1180
 At   1 B  11:  95.7% Sh  98.5 % Bf    2 runs, min    1 max   64 av   32.5
 IPart=  0 Atom   1 batch   11 overlaps    3 atoms,    22 shells and     3 DB shells.   NGrid=      1180
 At   1 B  12:  91.3% Sh  97.0 % Bf    2 runs, min    1 max   63 av   32.0
 IPart=  1 Atom   1 batch   12 overlaps    3 atoms,    21 shells and     3 DB shells.   NGrid=       590
 At   1 B  13:  91.3% Sh  97.0 % Bf    2 runs, min    1 max   63 av   32.0
 IPart=  0 Atom   1 batch   13 overlaps    3 atoms,    21 shells and     3 DB shells.   NGrid=       604
 Symmetry reduced   302 angular points to    86 for atom    1.
 At   1 B  14:  91.3% Sh  97.0 % Bf    2 runs, min    1 max   63 av   32.0
 IPart=  1 Atom   1 batch   14 overlaps    3 atoms,    21 shells and     3 DB shells.   NGrid=       604
 Symmetry reduced   302 angular points to    86 for atom    1.
 At   1 B  15:  87.0% Sh  87.9 % Bf    3 runs, min    1 max   46 av   19.3
 IPart=  0 Atom   1 batch   15 overlaps    3 atoms,    20 shells and     3 DB shells.   NGrid=       604
 At   1 B  16:  82.6% Sh  83.3 % Bf    4 runs, min    1 max   46 av   13.8
 IPart=  1 Atom   1 batch   16 overlaps    3 atoms,    19 shells and     3 DB shells.   NGrid=       604
 At   1 B  17:  73.9% Sh  66.7 % Bf    5 runs, min    1 max   30 av    8.8
 IPart=  0 Atom   1 batch   17 overlaps    3 atoms,    17 shells and     3 DB shells.   NGrid=       604
 At   1 B  18:  43.5% Sh  27.3 % Bf    7 runs, min    1 max    6 av    2.6
 IPart=  0 Atom   1 batch   18 overlaps    3 atoms,    10 shells and     3 DB shells.   NGrid=       604
 At   1 B  19:  34.8% Sh  21.2 % Bf    6 runs, min    1 max    3 av    2.3
 IPart=  1 Atom   1 batch   19 overlaps    3 atoms,     8 shells and     3 DB shells.   NGrid=       604
 At   1 B  20:  13.0% Sh   7.6 % Bf    3 runs, min    1 max    3 av    1.7
 IPart=  0 Atom   1 batch   20 overlaps    3 atoms,     3 shells and     2 DB shells.   NGrid=       604
 At   1 B  21:   8.7% Sh   3.0 % Bf    2 runs, min    1 max    1 av    1.0
 IPart=  1 Atom   1 batch   21 overlaps    3 atoms,     2 shells and     0 DB shells.   NGrid=       604
 Pruned (  99, 590) grid will be used in numerical quadrature.
 IPart=  1 Atom number   3 atomic number  1 has       21956 grid points.
 At   3 B   1:  95.7% Sh  98.5 % Bf    2 runs, min    1 max   64 av   32.5
 IPart=  1 Atom   3 batch    1 overlaps    3 atoms,    22 shells and     3 DB shells.   NGrid=      2838
 Pruned (  99, 590) grid will be used in numerical quadrature.
 IPart=  0 Atom number   3 atomic number  1 has       21956 grid points.
 At   3 B   2:  95.7% Sh  98.5 % Bf    2 runs, min    1 max   64 av   32.5
 IPart=  0 Atom   3 batch    2 overlaps    3 atoms,    22 shells and     3 DB shells.   NGrid=      1552
 Symmetry reduced    86 angular points to    49 for atom    3.
 Symmetry reduced   194 angular points to   105 for atom    3.
 At   3 B   3: 100.0% Sh 100.0 % Bf    1 runs, min   66 max   66 av   66.0
 IPart=  0 Atom   3 batch    3 overlaps    3 atoms,    23 shells and     3 DB shells.   NGrid=      2416
 Symmetry reduced   302 angular points to   161 for atom    3.
 At   3 B   4: 100.0% Sh 100.0 % Bf    1 runs, min   66 max   66 av   66.0
 IPart=  1 Atom   3 batch    4 overlaps    3 atoms,    23 shells and     3 DB shells.   NGrid=      1180
 Symmetry reduced   590 angular points to   309 for atom    3.
 At   3 B   5: 100.0% Sh 100.0 % Bf    1 runs, min   66 max   66 av   66.0
 IPart=  0 Atom   3 batch    5 overlaps    3 atoms,    23 shells and     3 DB shells.   NGrid=      1180
 Symmetry reduced   590 angular points to   309 for atom    3.
 At   3 B   6: 100.0% Sh 100.0 % Bf    1 runs, min   66 max   66 av   66.0
 IPart=  1 Atom   3 batch    6 overlaps    3 atoms,    23 shells and     3 DB shells.   NGrid=      1180
 At   3 B   7: 100.0% Sh 100.0 % Bf    1 runs, min   66 max   66 av   66.0
 IPart=  0 Atom   3 batch    7 overlaps    3 atoms,    23 shells and     3 DB shells.   NGrid=      1180
 At   3 B   8: 100.0% Sh 100.0 % Bf    1 runs, min   66 max   66 av   66.0
 IPart=  1 Atom   3 batch    8 overlaps    3 atoms,    23 shells and     3 DB shells.   NGrid=      1180
 At   3 B   9: 100.0% Sh 100.0 % Bf    1 runs, min   66 max   66 av   66.0
 IPart=  0 Atom   3 batch    9 overlaps    3 atoms,    23 shells and     3 DB shells.   NGrid=      1180
 At   3 B  10: 100.0% Sh 100.0 % Bf    1 runs, min   66 max   66 av   66.0
 IPart=  1 Atom   3 batch   10 overlaps    3 atoms,    23 shells and     3 DB shells.   NGrid=      1180
 At   3 B  11:  95.7% Sh  98.5 % Bf    2 runs, min    1 max   64 av   32.5
 IPart=  0 Atom   3 batch   11 overlaps    3 atoms,    22 shells and     3 DB shells.   NGrid=      1180
 At   3 B  12:  95.7% Sh  98.5 % Bf    2 runs, min    1 max   64 av   32.5
 IPart=  0 Atom   3 batch   12 overlaps    3 atoms,    22 shells and     3 DB shells.   NGrid=      1180
 At   3 B  13:  95.7% Sh  98.5 % Bf    2 runs, min    1 max   64 av   32.5
 IPart=  1 Atom   3 batch   13 overlaps    3 atoms,    22 shells and     3 DB shells.   NGrid=       604
 Symmetry reduced   302 angular points to   161 for atom    3.
 At   3 B  14:  91.3% Sh  97.0 % Bf    2 runs, min    1 max   63 av   32.0
 IPart=  1 Atom   3 batch   14 overlaps    3 atoms,    21 shells and     3 DB shells.   NGrid=       604
 At   3 B  15:  78.3% Sh  81.8 % Bf    5 runs, min    1 max   31 av   10.8
 IPart=  0 Atom   3 batch   15 overlaps    3 atoms,    18 shells and     3 DB shells.   NGrid=       604
 Symmetry reduced   302 angular points to   161 for atom    3.
 At   3 B  16:  60.9% Sh  51.5 % Bf    7 runs, min    1 max   15 av    4.9
 IPart=  0 Atom   3 batch   16 overlaps    3 atoms,    14 shells and     3 DB shells.   NGrid=       604
 At   3 B  17:  47.8% Sh  36.4 % Bf    8 runs, min    1 max    6 av    3.0
 IPart=  1 Atom   3 batch   17 overlaps    3 atoms,    11 shells and     3 DB shells.   NGrid=       604
 At   3 B  18:  26.1% Sh  15.2 % Bf    5 runs, min    1 max    3 av    2.0
 IPart=  0 Atom   3 batch   18 overlaps    3 atoms,     6 shells and     3 DB shells.   NGrid=       604
 At   3 B  19:  13.0% Sh   7.6 % Bf    3 runs, min    1 max    3 av    1.7
 IPart=  1 Atom   3 batch   19 overlaps    3 atoms,     3 shells and     2 DB shells.   NGrid=       604
 At   3 B  20:   4.3% Sh   1.5 % Bf    1 runs, min    1 max    1 av    1.0
 IPart=  0 Atom   3 batch   20 overlaps    3 atoms,     1 shells and     0 DB shells.   NGrid=       302
 IPart=  0         9108 of         9609 points in      22 batches and       84 microbatches, Max-NSigAt=       3 Max-NSgAt2=       3
 CalDSu-ThDecC:  IPartSL=    0    0 NPrtUSL=    2    1 IThBeg=    0 IThEnd=    1 CPU=   -1 GPU=   -1 NThAct=    2.
 IPart=  1         8091 of         8542 points in      19 batches and       76 microbatches, Max-NSigAt=       3 Max-NSgAt2=       3
 CalDSu-ThDecC:  IPartSL=    1    0 NPrtUSL=    2    1 IThBeg=    0 IThEnd=    1 CPU=   -1 GPU=   -1 NThAct=    1.
 Requested info about the electron count:
 NE=   10 NElCor=    0 El error=1.25D-08 rel=1.25D-09 Tolerance=1.00D-03
 Shell     2     absolute error=3.62D-08              Tolerance=1.20D-02
 Shell     2       signed error=3.62D-08              Tolerance=1.00D-01
 CnvPC1: ToCart=F Square=F ASymm=F DoDens=F IPureD=0 IPureF=0.
 SetAtRh:  ITypeU=  14 NETotI=      10 ICharg=  0 NETot=      10.
 StAtR1:  I=    1 I1=    1 IA=  8 C=   8.0 OKShel=TTT
                                                  SSP
                                                  224
 StAtR1:  I=    2 I1=    2 IA=  1 C=   1.0 OKShel=T
                                                  S
                                                  1
 StAtR1:  I=    3 I1=    3 IA=  1 C=   1.0 OKShel=T
                                                  S
                                                  1
          I=    1 IA=  8 I1=    1 NAtG=12 NE=   8.000 C=   8.000 Err= 3.76D-12
          I=    2 IA=  1 I1=    2 NAtG=10 NE=   1.000 C=   1.000 Err=-1.35D-12
          I=    3 IA=  1 I1=    3 NAtG=10 NE=   1.000 C=   1.000 Err=-1.35D-12
 FoFCou: FMM=F IPFlag=           0 FMFlag=      100000 FMFlg1=           0
         NFxFlg=           0 DoJE=T BraDBF=F KetDBF=T FulRan=T
         wScrn=  0.000000 ICntrl=       500 IOpCl=  0 I1Cent=   200000004 NGrid=           0
         NMat0=    1 NMatS0=      1 NMatT0=    0 NMatD0=    1 NMtDS0=    0 NMtDT0=    0
 Petite list used in FoFCou.
 FoFCou:  KetSym=T NOpSet=  4 NOpAb=4 NOp=  4.
 FoFCou:  CnvScl= 1.00D+00 Thresh= 1.00D-12 IAcrcy=      10.
 ShPair: Thresh= 1.00D-12 NBox=     0 BxSize= 0.00D+00 RnKept= 2.96D+00
         NSMCal=                  276 NSMKep=                 276
 FoFCou: LinMIO=F DoNuc=F BraDBF=F KetDBF=T HaveP=T PDBF=T HaveZ=F HaveW=F
         NIJTC =      10 NIJTAt=       0 NIJTCD=       1 NIJTT =      11
         IJTBeg=       1 IJTEnd=      10 KLTBeg=      11 KLTEnd=      11
         IPTBeg=      11 IPTEnd=      11 IPTBCv=      11 IPTECv=      11
         IZTBeg=       1 IZTEnd=      10 IZTBCv=       1 IZTECv=      10
         IWTBeg=      11 IWTEnd=      11 IWTBCv=      11 IWTECv=      11
         INTBeg=       1 INTEnd=       0 IFTBCv=       1 IFTECv=      10
 Entering DenIrr
 DenIrr was handed   104842118 working-precision words and   279 shell-pairs
 Leaving DenIrr, iEnd w/o den=       25851 nHerm=        4556.
 CoulSu-InSpLW:  IPartL=    0 NPrtUS=    2 NPrtUL=    1 DoSpLW=F IThBeg=    0 IThEnd=    1 NThAct=    2.
 CoulSu:  IncTry=  1024 NBBP=            828 NTPThr=   100 NPartT=    2 Incr=           4 LDynOK=F GPUOK=F.
 CoulSu:  NPrtUS=   2 ThrOK=T IAlg=1 LenDen=        4556 LWGrdD=           0 DoCopy=T ISkipM=0
          DoSpLW=F IThBeg=    0 IThEnd=    1.
 CoulSu:  IPart=    0 IPartR=    0 CPU=   -1 GPU=   -1.
 CoulSu:  IPart=    1 IPartR=    1 CPU=   -1 GPU=   -1.
 Enter PrismC:  IPart=  0 JobTyp=20 DoJE=T Cont=T.
 PrismC:  IPart=     0 DynPar=F LinDyn=F Incr=           4 UseFst=F UseS4=T ISplat=2.
 PrismC was handed    52395869 working-precision words and   276 shell-pairs
 Enter PrismC:  IPart=  1 JobTyp=20 DoJE=T Cont=T.
 PrismC:  IPart=     1 DynPar=F LinDyn=F Incr=           4 UseFst=F UseS4=T ISplat=2.
 PrismC was handed    52395869 working-precision words and   276 shell-pairs
 IPart=  0 NShTot=         276 NShNF=         276 NShFF=           0 MinMC=      47
           NShCPU=         276 NBCPU=         276 AvBCPU=         1.0
           NShGPU=           0 NBGPU=           0 AvBGPU=         0.0
 CoulSu-ThDecC:  IPartSL=    0    0 NPrtUSL=    2    1 IThBeg=    0 IThEnd=    1 CPU=   -1 GPU=   -1 NThAct=    2.
 IPart=  1 NShTot=         276 NShNF=         276 NShFF=           0 MinMC=      47
           NShCPU=         276 NBCPU=         276 AvBCPU=         1.0
           NShGPU=           0 NBGPU=           0 AvBGPU=         0.0
 CoulSu-ThDecC:  IPartSL=    1    0 NPrtUSL=    2    1 IThBeg=    0 IThEnd=    1 CPU=   -1 GPU=   -1 NThAct=    1.
 CoulSu:  NxtVal=              9 LenVP=       52395870 MinMC=      47.
 Entering FocIrr
 FocIrr was handed   104807156 working-precision words and   276 shell-pairs
 Leaving FocIrr
 Entering DenIrr
 DenIrr was handed   104842118 working-precision words and   279 shell-pairs
 Leaving DenIrr, iEnd w/o den=       34809 nHerm=        4780.
 CoulSu-InSpLW:  IPartL=    0 NPrtUS=    2 NPrtUL=    1 DoSpLW=F IThBeg=    0 IThEnd=    1 NThAct=    2.
 CoulSu:  IncTry=  1024 NBBP=            828 NTPThr=   100 NPartT=    2 Incr=           4 LDynOK=F GPUOK=F.
 CoulSu:  NPrtUS=   2 ThrOK=T IAlg=1 LenDen=        4780 LWGrdD=           0 DoCopy=T ISkipM=0
          DoSpLW=F IThBeg=    0 IThEnd=    1.
 CoulSu:  IPart=    0 IPartR=    0 CPU=   -1 GPU=   -1.
 CoulSu:  IPart=    1 IPartR=    1 CPU=   -1 GPU=   -1.
 Enter PrismC:  IPart=  0 JobTyp=20 DoJE=T Cont=F.
 PrismC:  IPart=     0 DynPar=F LinDyn=F Incr=           4 UseFst=F UseS4=T ISplat=2.
 Enter PrismC:  IPart=  1 JobTyp=20 DoJE=T Cont=F.
 PrismC was handed    52390942 working-precision words and   276 shell-pairs
 PrismC:  IPart=     1 DynPar=F LinDyn=F Incr=           4 UseFst=F UseS4=T ISplat=2.
 PrismC was handed    52390942 working-precision words and   276 shell-pairs
 IPart=  0 NShTot=           0 NShNF=           0 NShFF=           0 MinMC=      28
           NShCPU=           0 NBCPU=           0 AvBCPU=         0.0
           NShGPU=           0 NBGPU=           0 AvBGPU=         0.0
 CoulSu-ThDecC:  IPartSL=    0    0 NPrtUSL=    2    1 IThBeg=    0 IThEnd=    1 CPU=   -1 GPU=   -1 NThAct=    2.
 IPart=  1 NShTot=           0 NShNF=           0 NShFF=           0 MinMC=      28
           NShCPU=           0 NBCPU=           0 AvBCPU=         0.0
           NShGPU=           0 NBGPU=           0 AvBGPU=         0.0
 CoulSu-ThDecC:  IPartSL=    1    0 NPrtUSL=    2    1 IThBeg=    0 IThEnd=    1 CPU=   -1 GPU=   -1 NThAct=    1.
 CoulSu:  NxtVal=              9 LenVP=       52390943 MinMC=      28.
 Entering FocIrr
 FocIrr was handed   104797750 working-precision words and   276 shell-pairs
 Leaving FocIrr
 FoFCou: FMM=F IPFlag=           0 FMFlag=      100000 FMFlg1=           0
         NFxFlg=           0 DoJE=T BraDBF=T KetDBF=T FulRan=T
         wScrn=  0.000000 ICntrl=       500 IOpCl=  0 I1Cent=   200000006 NGrid=           0
         NMat0=    1 NMatS0=      1 NMatT0=    0 NMatD0=    1 NMtDS0=    0 NMtDT0=    0
 Petite list used in FoFCou.
 FoFCou:  KetSym=T NOpSet=  4 NOpAb=4 NOp=  4.
 FoFCou:  CnvScl= 1.00D+00 Thresh= 1.00D-12 IAcrcy=      10.
 FoFCou: LinMIO=F DoNuc=F BraDBF=T KetDBF=T HaveP=T PDBF=T HaveZ=F HaveW=F
         NIJTC =       0 NIJTAt=       0 NIJTCD=       1 NIJTT =       1
         IJTBeg=       1 IJTEnd=       1 KLTBeg=       1 KLTEnd=       1
         IPTBeg=       1 IPTEnd=       1 IPTBCv=       1 IPTECv=       1
         IZTBeg=       1 IZTEnd=       0 IZTBCv=       1 IZTECv=       1
         IWTBeg=       1 IWTEnd=       1 IWTBCv=       1 IWTECv=       1
         INTBeg=       1 INTEnd=       0 IFTBCv=       1 IFTECv=       1
 Entering DenIrr
 DenIrr was handed   104842118 working-precision words and     3 shell-pairs
 Leaving DenIrr, iEnd w/o den=        2209 nHerm=           3.
 CoulSu-InSpLW:  IPartL=    0 NPrtUS=    2 NPrtUL=    1 DoSpLW=F IThBeg=    0 IThEnd=    1 NThAct=    2.
 CoulSu:  IncTry=  1024 NBBP=              9 NTPThr=   100 NPartT=    2 Incr=           1 LDynOK=F GPUOK=F.
 CoulSu:  NPrtUS=   2 ThrOK=T IAlg=1 LenDen=           3 LWGrdD=           0 DoCopy=T ISkipM=0
          DoSpLW=F IThBeg=    0 IThEnd=    1.
 CoulSu:  IPart=    0 IPartR=    0 CPU=   -1 GPU=   -1.
 CoulSu:  IPart=    1 IPartR=    1 CPU=   -1 GPU=   -1.
 Enter PrismC:  IPart=  0 JobTyp=20 DoJE=T Cont=T.
 Enter PrismC:  IPart=  1 JobTyp=20 DoJE=T Cont=T.
 PrismC:  IPart=     0 DynPar=F LinDyn=F Incr=           1 UseFst=F UseS4=T ISplat=2.
 PrismC:  IPart=     1 DynPar=F LinDyn=F Incr=           1 UseFst=F UseS4=T ISplat=2.
 PrismC was handed    52419504 working-precision words and     3 shell-pairs
 PrismC was handed    52419504 working-precision words and     3 shell-pairs
 IPart=  0 NShTot=           3 NShNF=           3 NShFF=           0 MinMC=     138
           NShCPU=           3 NBCPU=           3 AvBCPU=         1.0
           NShGPU=           0 NBGPU=           0 AvBGPU=         0.0
 CoulSu-ThDecC:  IPartSL=    0    0 NPrtUSL=    2    1 IThBeg=    0 IThEnd=    1 CPU=   -1 GPU=   -1 NThAct=    2.
 IPart=  1 NShTot=           3 NShNF=           3 NShFF=           0 MinMC=     138
           NShCPU=           3 NBCPU=           3 AvBCPU=         1.0
           NShGPU=           0 NBGPU=           0 AvBGPU=         0.0
 CoulSu-ThDecC:  IPartSL=    1    0 NPrtUSL=    2    1 IThBeg=    0 IThEnd=    1 CPU=   -1 GPU=   -1 NThAct=    1.
 CoulSu:  NxtVal=              3 LenVP=       52419505 MinMC=     138.
 Entering FocIrr
 FocIrr was handed   104839904 working-precision words and     3 shell-pairs
 Leaving FocIrr
 Entering DenIrr
 DenIrr was handed   104842118 working-precision words and     3 shell-pairs
 Leaving DenIrr, iEnd w/o den=        2267 nHerm=          32.
 CoulSu-InSpLW:  IPartL=    0 NPrtUS=    2 NPrtUL=    1 DoSpLW=F IThBeg=    0 IThEnd=    1 NThAct=    2.
 CoulSu:  IncTry=  1024 NBBP=              9 NTPThr=   100 NPartT=    2 Incr=           1 LDynOK=F GPUOK=F.
 CoulSu:  NPrtUS=   2 ThrOK=T IAlg=1 LenDen=          32 LWGrdD=           0 DoCopy=T ISkipM=0
          DoSpLW=F IThBeg=    0 IThEnd=    1.
 CoulSu:  IPart=    0 IPartR=    0 CPU=   -1 GPU=   -1.
 CoulSu:  IPart=    1 IPartR=    1 CPU=   -1 GPU=   -1.
 Enter PrismC:  IPart=  0 JobTyp=20 DoJE=T Cont=F.
 Enter PrismC:  IPart=  1 JobTyp=20 DoJE=T Cont=F.
 PrismC:  IPart=     0 DynPar=F LinDyn=F Incr=           1 UseFst=F UseS4=T ISplat=2.
 PrismC:  IPart=     1 DynPar=F LinDyn=F Incr=           1 UseFst=F UseS4=T ISplat=2.
 PrismC was handed    52419417 working-precision words and     3 shell-pairs
 PrismC was handed    52419417 working-precision words and     3 shell-pairs
 IPart=  0 NShTot=           0 NShNF=           0 NShFF=           0 MinMC=     124
           NShCPU=           0 NBCPU=           0 AvBCPU=         0.0
           NShGPU=           0 NBGPU=           0 AvBGPU=         0.0
 CoulSu-ThDecC:  IPartSL=    0    0 NPrtUSL=    2    1 IThBeg=    0 IThEnd=    1 CPU=   -1 GPU=   -1 NThAct=    2.
 IPart=  1 NShTot=           0 NShNF=           0 NShFF=           0 MinMC=     124
           NShCPU=           0 NBCPU=           0 AvBCPU=         0.0
           NShGPU=           0 NBGPU=           0 AvBGPU=         0.0
 CoulSu-ThDecC:  IPartSL=    1    0 NPrtUSL=    2    1 IThBeg=    0 IThEnd=    1 CPU=   -1 GPU=   -1 NThAct=    1.
 CoulSu:  NxtVal=              3 LenVP=       52419418 MinMC=     124.
 Entering FocIrr
 FocIrr was handed   104839788 working-precision words and     3 shell-pairs
 Leaving FocIrr
 FoFCou EC=  22.6059656462     ENF=  22.6059656462    
 IB=1 NBFU=   24 NOccSy=    0
 Diag=  -2.25114  -0.64096  -2.47847   0.93830   1.42478
 Diag= -11.00982   1.95220   3.51160   0.79830   4.30741
 Diag=   4.27158   2.16882   2.42751   5.40457   5.55860
 Diag=   3.30192  20.65520   9.57414   3.44691   3.75801
 Diag=  13.41638   4.29666   3.76459   3.29833
 IB=2 NBFU=    7 NOccSy=    0
 Diag=   1.45790   2.50662   3.78263   3.98747   5.46571
 Diag=   3.65277   4.52737
 IB=3 NBFU=   11 NOccSy=    0
 Diag=   0.07856   1.75925   1.69308   3.22559   4.41301
 Diag=   3.30395   3.37102   5.10752   3.61277   2.02950
 Diag=   4.08471
 IB=4 NBFU=   17 NOccSy=    0
 Diag=  -0.43383   1.24719   0.99616   2.57667   2.99925
 Diag=   3.63612   2.87643   4.13239   3.15078   3.05087
 Diag=   4.70692   4.81465   4.04000   1.89095   4.54431
 Diag=   1.79908   3.25521
 IAlgDg is returning  0.
 IAlgDg is returning  0.
 IAlgDg is returning  0.
 DiagDN:  BShift=  1.00D+00
 IAlgDg is returning  0.
 Eigenvalues and eigenvectors of Harris matrix:
 Alpha MOs:
                           1         2         3         4         5
     Eigenvalues --   -18.97932  -1.05037  -0.60245  -0.46791  -0.40207
   1                    0.43472  -0.10307   0.00000  -0.03188   0.00000
   2                    0.63909  -0.24031   0.00000  -0.07509   0.00000
   3                    0.03742   0.37005   0.00000   0.11381   0.00000
   4                   -0.02271   0.43468   0.00000   0.19405   0.00000
   5                    0.00770   0.13075   0.00000   0.18642   0.00000
   6                    0.00000   0.00000   0.00000   0.00000   0.51606
   7                    0.00000   0.00000   0.43474   0.00000   0.00000
   8                   -0.00149  -0.08200   0.00000   0.46983   0.00000
   9                    0.00000   0.00000   0.00000   0.00000   0.40028
  10                    0.00000   0.00000   0.28627   0.00000   0.00000
  11                    0.00166  -0.05151   0.00000   0.34117   0.00000
  12                    0.00000   0.00000   0.00000   0.00000   0.25269
  13                    0.00000   0.00000   0.10315   0.00000   0.00000
  14                   -0.00039  -0.00405   0.00000   0.18475   0.00000
  15                   -0.00000   0.00062   0.00000  -0.00459   0.00000
  16                    0.00000   0.00000   0.00000   0.00000  -0.00434
  17                    0.00000   0.00000  -0.01034   0.00000   0.00000
  18                   -0.00055  -0.00402   0.00000   0.00231   0.00000
  19                    0.00000   0.00000   0.00000   0.00000   0.00000
  20                   -0.00003   0.00211   0.00000  -0.01127   0.00000
  21                    0.00000   0.00000   0.00000   0.00000  -0.01169
  22                    0.00000   0.00000  -0.00584   0.00000   0.00000
  23                    0.00067  -0.00387   0.00000  -0.00177   0.00000
  24                    0.00000   0.00000   0.00000   0.00000   0.00000
  25                    0.00005  -0.00010   0.00000   0.00081   0.00000
  26                    0.00000   0.00000   0.00000   0.00000   0.00082
  27                    0.00000   0.00000  -0.00142   0.00000   0.00000
  28                    0.00004   0.00053   0.00000  -0.00078   0.00000
  29                    0.00000   0.00000   0.00000   0.00000   0.00000
  30                    0.00000   0.00000   0.00000   0.00000  -0.00266
  31                    0.00000   0.00000  -0.00110   0.00000   0.00000
  32                    0.00051   0.09010   0.14518  -0.08178   0.00000
  33                    0.00126   0.07032   0.18078  -0.11887   0.00000
  34                   -0.00127   0.00395   0.03612  -0.02273   0.00000
  35                    0.00000   0.00000   0.00000   0.00000   0.01106
  36                    0.00026  -0.01350  -0.01375   0.01183   0.00000
  37                   -0.00022   0.00871   0.01490   0.00107   0.00000
  38                    0.00000   0.00000   0.00000   0.00000   0.02408
  39                   -0.00068  -0.01172  -0.01635   0.02098   0.00000
  40                    0.00052   0.00694   0.02085   0.00788   0.00000
  41                    0.00000  -0.00021   0.00159   0.00339   0.00000
  42                    0.00000   0.00000   0.00000   0.00000   0.00322
  43                    0.00079  -0.00410  -0.00657   0.00099   0.00000
  44                    0.00049  -0.00315  -0.00323   0.00412   0.00000
  45                    0.00000   0.00000   0.00000   0.00000  -0.00483
  46                    0.00051   0.09010  -0.14518  -0.08178   0.00000
  47                    0.00126   0.07032  -0.18078  -0.11887   0.00000
  48                   -0.00127   0.00395  -0.03612  -0.02273   0.00000
  49                    0.00000   0.00000   0.00000   0.00000   0.01106
  50                   -0.00026   0.01350  -0.01375  -0.01183   0.00000
  51                   -0.00022   0.00871  -0.01490   0.00107   0.00000
  52                    0.00000   0.00000   0.00000   0.00000   0.02408
  53                    0.00068   0.01172  -0.01635  -0.02098   0.00000
  54                    0.00052   0.00694  -0.02085   0.00788   0.00000
  55                    0.00000  -0.00021  -0.00159   0.00339   0.00000
  56                    0.00000   0.00000   0.00000   0.00000   0.00322
  57                   -0.00079   0.00410  -0.00657  -0.00099   0.00000
  58                    0.00049  -0.00315   0.00323   0.00412   0.00000
  59                    0.00000   0.00000   0.00000   0.00000   0.00483
                           6         7         8         9        10
     Eigenvalues --    -0.03667   0.03374   0.28555   0.29712   0.32124
   1                   -0.03941   0.00000  -0.00000   0.00252   0.03319
   2                   -0.09664   0.00000  -0.00000   0.00008   0.07452
   3                    0.18789   0.00000  -0.00000   0.13726   0.00286
   4                    0.20701   0.00000  -0.00000  -0.73586  -0.87733
   5                    1.21997   0.00000  -0.00000  -1.43276  -0.23651
   6                   -0.00000   0.00000  -0.00000  -0.00000  -0.00000
   7                   -0.00000  -0.28367  -0.12161  -0.00000  -0.00000
   8                   -0.15348   0.00000  -0.00000  -0.34343   0.01522
   9                   -0.00000   0.00000  -0.00000  -0.00000  -0.00000
  10                   -0.00000  -0.24038  -0.31597  -0.00000  -0.00000
  11                   -0.17786   0.00000  -0.00000  -0.21194   0.08876
  12                   -0.00000   0.00000  -0.00000  -0.00000  -0.00000
  13                   -0.00000  -0.64482  -0.99931  -0.00000  -0.00000
  14                   -0.37044   0.00000  -0.00000   1.58531   0.86462
  15                    0.00063   0.00000  -0.00000   0.01137  -0.00529
  16                   -0.00000   0.00000  -0.00000  -0.00000  -0.00000
  17                   -0.00000  -0.00516  -0.02654  -0.00000  -0.00000
  18                    0.00473   0.00000  -0.00000  -0.00186  -0.01937
  19                   -0.00000   0.00000  -0.00000  -0.00000  -0.00000
  20                    0.01056   0.00000  -0.00000  -0.04031   0.00693
  21                   -0.00000   0.00000  -0.00000  -0.00000  -0.00000
  22                   -0.00000  -0.00053   0.06308  -0.00000  -0.00000
  23                   -0.01334   0.00000  -0.00000   0.13721   0.03809
  24                   -0.00000   0.00000  -0.00000  -0.00000  -0.00000
  25                    0.00003   0.00000  -0.00000  -0.00565  -0.01072
  26                   -0.00000   0.00000  -0.00000  -0.00000  -0.00000
  27                   -0.00000   0.00161  -0.00820  -0.00000  -0.00000
  28                    0.00130   0.00000  -0.00000  -0.01541  -0.01734
  29                   -0.00000   0.00000  -0.00000  -0.00000  -0.00000
  30                   -0.00000   0.00000  -0.00000  -0.00000  -0.00000
  31                   -0.00000   0.00049   0.01102  -0.00000  -0.00000
  32                   -0.06143   0.06491   0.13682  -0.08448   0.12602
  33                   -0.31249   0.23054   1.36141   0.57883   1.39234
  34                   -0.88102   1.44265  -0.70913   0.64405  -0.59937
  35                   -0.00000   0.00000  -0.00000  -0.00000  -0.00000
  36                   -0.01490   0.01372  -0.04056  -0.01041  -0.02996
  37                    0.00672  -0.01480   0.01926   0.01558   0.02506
  38                   -0.00000   0.00000  -0.00000  -0.00000  -0.00000
  39                    0.05979  -0.02381  -0.05407  -0.48118   0.02985
  40                   -0.02972   0.02456  -0.02729   0.18147   0.14822
  41                   -0.00063  -0.00216  -0.00671  -0.00822   0.01067
  42                   -0.00000   0.00000  -0.00000  -0.00000  -0.00000
  43                    0.00261  -0.00166  -0.02154  -0.02795  -0.02469
  44                    0.00211  -0.00239  -0.01195  -0.02837  -0.01597
  45                   -0.00000   0.00000  -0.00000  -0.00000  -0.00000
  46                   -0.06143  -0.06491  -0.13682  -0.08448   0.12602
  47                   -0.31249  -0.23054  -1.36141   0.57883   1.39234
  48                   -0.88102  -1.44265   0.70913   0.64405  -0.59937
  49                   -0.00000   0.00000  -0.00000  -0.00000  -0.00000
  50                    0.01490   0.01372  -0.04056   0.01041   0.02996
  51                    0.00672   0.01480  -0.01926   0.01558   0.02506
  52                   -0.00000   0.00000  -0.00000  -0.00000  -0.00000
  53                   -0.05979  -0.02381  -0.05407   0.48118  -0.02985
  54                   -0.02972  -0.02456   0.02729   0.18147   0.14822
  55                   -0.00063   0.00216   0.00671  -0.00822   0.01067
  56                   -0.00000   0.00000  -0.00000  -0.00000  -0.00000
  57                   -0.00261  -0.00166  -0.02154   0.02795   0.02469
  58                    0.00211   0.00239   0.01195  -0.02837  -0.01597
  59                   -0.00000   0.00000  -0.00000  -0.00000  -0.00000
                          11        12        13        14        15
     Eigenvalues --     0.32477   0.43822   0.47391   0.59044   0.59385
   1                   -0.00000  -0.00000   0.04831   0.00000   0.00950
   2                   -0.00000  -0.00000   0.10599   0.00000   0.02040
   3                   -0.00000  -0.00000  -0.09232   0.00000  -0.06085
   4                   -0.00000  -0.00000  -1.12882   0.00000  -0.12081
   5                   -0.00000  -0.00000   5.34276   0.00000   3.40864
   6                   -0.31809  -0.00000   0.00000   0.00000   0.00000
   7                   -0.00000  -0.34874   0.00000   0.00000   0.00000
   8                   -0.00000  -0.00000   0.06118   0.00000  -0.07994
   9                   -0.61910  -0.00000   0.00000   0.00000   0.00000
  10                   -0.00000  -0.00754   0.00000   0.00000   0.00000
  11                   -0.00000  -0.00000  -0.37946   0.00000  -0.63758
  12                    1.26015  -0.00000   0.00000   0.00000   0.00000
  13                   -0.00000   2.63100   0.00000   0.00000   0.00000
  14                   -0.00000  -0.00000  -1.04037   0.00000  -1.71157
  15                   -0.00000  -0.00000   0.00793   0.00000  -0.03251
  16                    0.00538  -0.00000   0.00000   0.00000   0.00000
  17                   -0.00000   0.01675   0.00000   0.00000   0.00000
  18                   -0.00000  -0.00000   0.02379   0.00000  -0.00050
  19                   -0.00000  -0.00000   0.00000   0.02795   0.00000
  20                   -0.00000  -0.00000  -0.01192   0.00000   0.03831
  21                   -0.01277  -0.00000   0.00000   0.00000   0.00000
  22                   -0.00000  -0.25711   0.00000   0.00000   0.00000
  23                   -0.00000  -0.00000  -0.17339   0.00000  -0.02757
  24                   -0.00000  -0.00000   0.00000   0.03007   0.00000
  25                   -0.00000  -0.00000   0.01392   0.00000  -0.00091
  26                   -0.00013  -0.00000   0.00000   0.00000   0.00000
  27                   -0.00000   0.01261   0.00000   0.00000   0.00000
  28                   -0.00000  -0.00000   0.02181   0.00000   0.02167
  29                   -0.00000  -0.00000   0.00000   0.01209   0.00000
  30                    0.00100  -0.00000   0.00000   0.00000   0.00000
  31                   -0.00000  -0.01291   0.00000   0.00000   0.00000
  32                   -0.00000   0.07068   0.03351   0.00000   0.00059
  33                   -0.00000  -0.83246  -1.40753   0.00000  -1.75804
  34                   -0.00000  -1.95252  -1.12688   0.00000  -0.37365
  35                    0.00872  -0.00000   0.00000  -0.04041   0.00000
  36                   -0.00000   0.03243   0.02497   0.00000   0.00459
  37                   -0.00000  -0.01221  -0.01075   0.00000  -0.04682
  38                   -0.03315  -0.00000   0.00000   0.79362   0.00000
  39                   -0.00000   0.48099   0.37179   0.00000   0.82143
  40                   -0.00000  -0.39063  -0.52656   0.00000   0.45649
  41                   -0.00000   0.00477  -0.01420   0.00000   0.03464
  42                   -0.00009  -0.00000   0.00000   0.02502   0.00000
  43                   -0.00000   0.04526   0.04507   0.00000   0.00588
  44                   -0.00000   0.03088   0.02573   0.00000   0.06227
  45                    0.00149  -0.00000   0.00000  -0.01437   0.00000
  46                   -0.00000  -0.07068   0.03351   0.00000   0.00059
  47                   -0.00000   0.83246  -1.40753   0.00000  -1.75804
  48                   -0.00000   1.95252  -1.12688   0.00000  -0.37365
  49                    0.00872  -0.00000   0.00000   0.04041   0.00000
  50                   -0.00000   0.03243  -0.02497   0.00000  -0.00459
  51                   -0.00000   0.01221  -0.01075   0.00000  -0.04682
  52                   -0.03315  -0.00000   0.00000  -0.79362   0.00000
  53                   -0.00000   0.48099  -0.37179   0.00000  -0.82143
  54                   -0.00000   0.39063  -0.52656   0.00000   0.45649
  55                   -0.00000  -0.00477  -0.01420   0.00000   0.03464
  56                   -0.00009  -0.00000   0.00000  -0.02502   0.00000
  57                   -0.00000   0.04526  -0.04507   0.00000  -0.00588
  58                   -0.00000  -0.03088   0.02573   0.00000   0.06227
  59                   -0.00149  -0.00000   0.00000  -0.01437   0.00000
                          16        17        18        19        20
     Eigenvalues --     0.70564   0.92226   1.07134   1.14575   1.56568
   1                    0.00000  -0.00000  -0.02819   0.00000   0.00000
   2                    0.00000  -0.00000  -0.05443   0.00000   0.00000
   3                    0.00000  -0.00000  -0.44579   0.00000   0.00000
   4                    0.00000  -0.00000   4.04485   0.00000   0.00000
   5                    0.00000  -0.00000   3.72324   0.00000   0.00000
   6                   -0.07235  -0.00000  -0.00000   0.00000  -0.07514
   7                    0.00000   0.05175  -0.00000  -0.20300   0.00000
   8                    0.00000  -0.00000  -0.15950   0.00000   0.00000
   9                   -0.22791  -0.00000  -0.00000   0.00000  -0.08913
  10                    0.00000   0.33887  -0.00000  -2.13506   0.00000
  11                    0.00000  -0.00000  -1.75657   0.00000   0.00000
  12                   -0.86359  -0.00000  -0.00000   0.00000  -0.65031
  13                    0.00000   1.59900  -0.00000  -1.13577   0.00000
  14                    0.00000  -0.00000  -0.88401   0.00000   0.00000
  15                    0.00000  -0.00000   0.00067   0.00000   0.00000
  16                   -0.02111  -0.00000  -0.00000   0.00000   0.00262
  17                    0.00000  -0.00278  -0.00000  -0.01801   0.00000
  18                    0.00000  -0.00000   0.01375   0.00000   0.00000
  19                    0.00000  -0.00000  -0.00000   0.00000   0.00000
  20                    0.00000  -0.00000  -0.01725   0.00000   0.00000
  21                   -0.09425  -0.00000  -0.00000   0.00000   1.12813
  22                    0.00000  -0.06878  -0.00000   0.25037   0.00000
  23                    0.00000  -0.00000  -0.21966   0.00000   0.00000
  24                    0.00000  -0.00000  -0.00000   0.00000   0.00000
  25                    0.00000  -0.00000   0.03241   0.00000   0.00000
  26                   -0.00235  -0.00000  -0.00000   0.00000  -0.00922
  27                    0.00000   0.00076  -0.00000  -0.01518   0.00000
  28                    0.00000  -0.00000   0.06572   0.00000   0.00000
  29                    0.00000  -0.00000  -0.00000   0.00000   0.00000
  30                    0.01305  -0.00000  -0.00000   0.00000  -0.00013
  31                    0.00000  -0.00919  -0.00000   0.02862   0.00000
  32                    0.00000   0.00466  -0.03019   0.12656   0.00000
  33                    0.00000  -0.90504  -3.01284   2.22176   0.00000
  34                    0.00000  -0.32266  -0.63781   1.06413   0.00000
  35                   -0.05464  -0.00000  -0.00000   0.00000  -0.02635
  36                    0.00000   0.05036   0.03874  -0.00888   0.00000
  37                    0.00000   0.03495  -0.02409   0.00533   0.00000
  38                    0.94730  -0.00000  -0.00000   0.00000   0.68590
  39                    0.00000  -0.53472   1.98004  -1.87252   0.00000
  40                    0.00000  -1.01032  -1.36449   1.36440   0.00000
  41                    0.00000  -0.01592  -0.00883  -0.00918   0.00000
  42                    0.00126  -0.00000  -0.00000   0.00000   0.06656
  43                    0.00000   0.01515   0.14026  -0.13944   0.00000
  44                    0.00000   0.00875   0.12823  -0.08133   0.00000
  45                   -0.03651  -0.00000  -0.00000   0.00000   0.01441
  46                    0.00000  -0.00466  -0.03019  -0.12656   0.00000
  47                    0.00000   0.90504  -3.01284  -2.22176   0.00000
  48                    0.00000   0.32266  -0.63781  -1.06413   0.00000
  49                   -0.05464  -0.00000  -0.00000   0.00000  -0.02635
  50                    0.00000   0.05036  -0.03874  -0.00888   0.00000
  51                    0.00000  -0.03495  -0.02409  -0.00533   0.00000
  52                    0.94730  -0.00000  -0.00000   0.00000   0.68590
  53                    0.00000  -0.53472  -1.98004  -1.87252   0.00000
  54                    0.00000   1.01032  -1.36449  -1.36440   0.00000
  55                    0.00000   0.01592  -0.00883   0.00918   0.00000
  56                    0.00126  -0.00000  -0.00000   0.00000   0.06656
  57                    0.00000   0.01515  -0.14026  -0.13944   0.00000
  58                    0.00000  -0.00875   0.12823   0.08133   0.00000
  59                    0.03651  -0.00000  -0.00000   0.00000  -0.01441
                          21        22        23        24        25
     Eigenvalues --     1.58666   1.63339   1.65888   1.67980   1.99436
   1                    0.00000  -0.00000  -0.00033  -0.00750   0.03290
   2                    0.00000  -0.00000   0.01264  -0.01790   0.10964
   3                    0.00000  -0.00000  -0.63447  -0.04496  -1.03575
   4                    0.00000  -0.00000   3.36385   0.64086   3.14542
   5                    0.00000  -0.00000   4.17319   3.47423   1.19403
   6                    0.00000  -0.00000  -0.00000   0.00000   0.00000
   7                   -0.08645  -0.00000  -0.00000   0.00000   0.00000
   8                    0.00000  -0.00000  -0.06202  -0.30443   0.39818
   9                    0.00000  -0.00000  -0.00000   0.00000   0.00000
  10                   -2.57237  -0.00000  -0.00000   0.00000   0.00000
  11                    0.00000  -0.00000  -1.41831  -0.39882  -1.55444
  12                    0.00000  -0.00000  -0.00000   0.00000   0.00000
  13                   -2.16977  -0.00000  -0.00000   0.00000   0.00000
  14                    0.00000  -0.00000  -1.23205  -1.69018  -0.75297
  15                    0.00000  -0.00000  -0.00262   0.00877   0.00977
  16                    0.00000  -0.00000  -0.00000   0.00000   0.00000
  17                    0.00794  -0.00000  -0.00000   0.00000   0.00000
  18                    0.00000  -0.00000  -0.01568   0.00089  -0.01694
  19                    0.00000   0.00459  -0.00000   0.00000   0.00000
  20                    0.00000  -0.00000  -0.52462   1.02560   0.64413
  21                    0.00000  -0.00000  -0.00000   0.00000   0.00000
  22                    1.76557  -0.00000  -0.00000   0.00000   0.00000
  23                    0.00000  -0.00000  -1.40985  -0.65133   0.12800
  24                    0.00000   1.24168  -0.00000   0.00000   0.00000
  25                    0.00000  -0.00000   0.08756  -0.00427   0.08342
  26                    0.00000  -0.00000  -0.00000   0.00000   0.00000
  27                   -0.09057  -0.00000  -0.00000   0.00000   0.00000
  28                    0.00000  -0.00000   0.15659   0.01043   0.16670
  29                    0.00000  -0.01507  -0.00000   0.00000   0.00000
  30                    0.00000  -0.00000  -0.00000   0.00000   0.00000
  31                    0.09630  -0.00000  -0.00000   0.00000   0.00000
  32                   -0.36201  -0.00000   0.43604  -0.07817   0.71863
  33                    4.42877  -0.00000  -4.07381  -1.97868  -2.67962
  34                    0.36766  -0.00000  -0.19292  -0.46367   0.27223
  35                    0.00000   0.04897  -0.00000   0.00000   0.00000
  36                   -0.17348  -0.00000   0.20214  -0.01771   0.14920
  37                    0.15421  -0.00000  -0.06857  -0.02850  -0.17579
  38                    0.00000  -0.65359  -0.00000   0.00000   0.00000
  39                   -1.76736  -0.00000   1.14930   0.98138   0.93141
  40                    1.13806  -0.00000  -1.24968  -0.01576  -0.06835
  41                   -0.02159  -0.00000  -0.03681   0.03782  -0.01834
  42                    0.00000   0.01111  -0.00000   0.00000   0.00000
  43                   -0.21855  -0.00000   0.19152   0.04559   0.10968
  44                   -0.13813  -0.00000   0.12582   0.00517   0.21087
  45                    0.00000   0.05668  -0.00000   0.00000   0.00000
  46                    0.36201  -0.00000   0.43604  -0.07817   0.71863
  47                   -4.42877  -0.00000  -4.07381  -1.97868  -2.67962
  48                   -0.36766  -0.00000  -0.19292  -0.46367   0.27223
  49                    0.00000  -0.04897  -0.00000   0.00000   0.00000
  50                   -0.17348  -0.00000  -0.20214   0.01771  -0.14920
  51                   -0.15421  -0.00000  -0.06857  -0.02850  -0.17579
  52                    0.00000   0.65359  -0.00000   0.00000   0.00000
  53                   -1.76736  -0.00000  -1.14930  -0.98138  -0.93141
  54                   -1.13806  -0.00000  -1.24968  -0.01576  -0.06835
  55                    0.02159  -0.00000  -0.03681   0.03782  -0.01834
  56                    0.00000  -0.01111  -0.00000   0.00000   0.00000
  57                   -0.21855  -0.00000  -0.19152  -0.04559  -0.10968
  58                    0.13813  -0.00000   0.12582   0.00517   0.21087
  59                    0.00000   0.05668  -0.00000   0.00000   0.00000
                          26        27        28        29        30
     Eigenvalues --     2.17731   2.29423   2.46015   2.97551   3.04557
   1                   -0.00000   0.00000  -0.09238  -0.00000   0.05988
   2                   -0.00000   0.00000  -0.30401  -0.00000   0.21066
   3                   -0.00000   0.00000   1.89280  -0.00000  -2.01231
   4                   -0.00000   0.00000  -2.20517  -0.00000   5.39324
   5                   -0.00000   0.00000   3.49353  -0.00000   1.65327
   6                   -0.00000  -1.17895   0.00000   0.03489  -0.00000
   7                   -0.74725   0.00000   0.00000  -0.00000  -0.00000
   8                   -0.00000   0.00000   0.84629  -0.00000   0.50235
   9                   -0.00000   1.67145   0.00000  -0.11080  -0.00000
  10                    2.49106   0.00000   0.00000  -0.00000  -0.00000
  11                   -0.00000   0.00000  -1.61217  -0.00000  -2.08929
  12                   -0.00000  -0.55437   0.00000   0.19982  -0.00000
  13                   -0.23061   0.00000   0.00000  -0.00000  -0.00000
  14                   -0.00000   0.00000  -0.32653  -0.00000  -0.46837
  15                   -0.00000   0.00000   0.01045  -0.00000   0.02347
  16                   -0.00000  -0.00433   0.00000  -0.03666  -0.00000
  17                   -0.00260   0.00000   0.00000  -0.00000  -0.00000
  18                   -0.00000   0.00000  -0.01178  -0.00000  -0.01249
  19                   -0.00000   0.00000   0.00000  -0.00000  -0.00000
  20                   -0.00000   0.00000   0.13855  -0.00000  -0.29108
  21                   -0.00000  -0.11412   0.00000  -0.30593  -0.00000
  22                    0.05459   0.00000   0.00000  -0.00000  -0.00000
  23                   -0.00000   0.00000  -0.34839  -0.00000  -0.59254
  24                   -0.00000   0.00000   0.00000  -0.00000  -0.00000
  25                   -0.00000   0.00000  -0.00154  -0.00000  -0.06659
  26                   -0.00000   0.00184   0.00000  -0.12185  -0.00000
  27                    0.07907   0.00000   0.00000  -0.00000  -0.00000
  28                   -0.00000   0.00000  -0.00185  -0.00000   0.05652
  29                   -0.00000   0.00000   0.00000  -0.00000  -0.00000
  30                   -0.00000  -0.00087   0.00000  -0.10667  -0.00000
  31                   -0.11429   0.00000   0.00000  -0.00000  -0.00000
  32                    0.63556   0.00000  -0.03748  -0.00000  -0.18522
  33                   -2.23795   0.00000  -1.18677  -0.00000  -2.62354
  34                    0.60624   0.00000  -0.44665  -0.00000  -0.12430
  35                   -0.00000   0.08121   0.00000   0.21287  -0.00000
  36                    0.20295   0.00000  -0.03148  -0.00000   0.02999
  37                   -0.11157   0.00000  -0.04513  -0.00000  -0.05690
  38                   -0.00000  -0.23436   0.00000  -0.21441  -0.00000
  39                    0.66774   0.00000   0.56248  -0.00000   1.33722
  40                   -0.64794   0.00000  -0.16914  -0.00000  -0.94243
  41                    0.05311   0.00000  -0.00090  -0.00000   0.14907
  42                   -0.00000  -0.01055   0.00000   0.55590  -0.00000
  43                    0.22689   0.00000   0.01780  -0.00000   0.52514
  44                    0.04862   0.00000   0.00360  -0.00000  -0.24714
  45                   -0.00000  -0.00039   0.00000   0.31045  -0.00000
  46                   -0.63556   0.00000  -0.03748  -0.00000  -0.18522
  47                    2.23795   0.00000  -1.18677  -0.00000  -2.62354
  48                   -0.60624   0.00000  -0.44665  -0.00000  -0.12430
  49                   -0.00000   0.08121   0.00000   0.21287  -0.00000
  50                    0.20295   0.00000   0.03148  -0.00000  -0.02999
  51                    0.11157   0.00000  -0.04513  -0.00000  -0.05690
  52                   -0.00000  -0.23436   0.00000  -0.21441  -0.00000
  53                    0.66774   0.00000  -0.56248  -0.00000  -1.33722
  54                    0.64794   0.00000  -0.16914  -0.00000  -0.94243
  55                   -0.05311   0.00000  -0.00090  -0.00000   0.14907
  56                   -0.00000  -0.01055   0.00000   0.55590  -0.00000
  57                    0.22689   0.00000  -0.01780  -0.00000  -0.52514
  58                   -0.04862   0.00000   0.00360  -0.00000  -0.24714
  59                   -0.00000   0.00039   0.00000  -0.31045  -0.00000
                          31        32        33        34        35
     Eigenvalues --     3.10343   3.10572   3.13061   3.22708   3.37381
   1                   -0.00000  -0.00000   0.05274   0.00000   0.00000
   2                   -0.00000  -0.00000   0.17412   0.00000   0.00000
   3                   -0.00000  -0.00000  -1.56452   0.00000   0.00000
   4                   -0.00000  -0.00000   4.23116   0.00000   0.00000
   5                   -0.00000  -0.00000   0.93259   0.00000   0.00000
   6                   -0.00000  -0.00000  -0.00000   0.00000   0.00000
   7                   -0.75837  -0.00000  -0.00000  -0.32425  -0.00621
   8                   -0.00000  -0.00000   0.39564   0.00000   0.00000
   9                   -0.00000  -0.00000  -0.00000   0.00000   0.00000
  10                    3.03638  -0.00000  -0.00000   1.31740   0.00690
  11                   -0.00000  -0.00000  -1.83668   0.00000   0.00000
  12                   -0.00000  -0.00000  -0.00000   0.00000   0.00000
  13                    0.53206  -0.00000  -0.00000   0.16602   0.75141
  14                   -0.00000  -0.00000  -0.18954   0.00000   0.00000
  15                   -0.00000  -0.00000  -0.01299   0.00000   0.00000
  16                   -0.00000  -0.00000  -0.00000   0.00000   0.00000
  17                   -0.06443  -0.00000  -0.00000  -0.12088   0.02864
  18                   -0.00000  -0.00000  -0.07928   0.00000   0.00000
  19                   -0.00000   0.06275  -0.00000   0.00000   0.00000
  20                   -0.00000  -0.00000   0.27332   0.00000   0.00000
  21                   -0.00000  -0.00000  -0.00000   0.00000   0.00000
  22                   -0.74803  -0.00000  -0.00000  -0.49415  -0.43114
  23                   -0.00000  -0.00000  -0.63111   0.00000   0.00000
  24                   -0.00000  -0.00530  -0.00000   0.00000   0.00000
  25                   -0.00000  -0.00000   0.04066   0.00000   0.00000
  26                   -0.00000  -0.00000  -0.00000   0.00000   0.00000
  27                   -0.04841  -0.00000  -0.00000   0.01075  -0.17203
  28                   -0.00000  -0.00000  -0.06872   0.00000   0.00000
  29                   -0.00000  -0.13552  -0.00000   0.00000   0.00000
  30                   -0.00000  -0.00000  -0.00000   0.00000   0.00000
  31                    0.08742  -0.00000  -0.00000  -0.02364  -0.08087
  32                   -0.34008  -0.00000  -0.47189  -0.41631  -0.07563
  33                   -2.15709  -0.00000  -1.54929  -0.71111  -0.43658
  34                   -0.33721  -0.00000  -0.15792  -0.34471  -0.17585
  35                   -0.00000   0.45124  -0.00000   0.00000   0.00000
  36                   -0.02379  -0.00000  -0.18705  -0.39229   0.47039
  37                    0.15592  -0.00000   0.03300   0.08285   0.56713
  38                   -0.00000  -0.25857  -0.00000   0.00000   0.00000
  39                    1.28918  -0.00000   1.14899   0.89146  -0.25299
  40                   -1.06755  -0.00000  -0.67066  -0.47073  -0.50101
  41                   -0.33090  -0.00000  -0.10137   0.33660   0.30805
  42                   -0.00000  -0.39022  -0.00000   0.00000   0.00000
  43                    0.03859  -0.00000   0.03365   0.45124  -0.05455
  44                    0.40546  -0.00000   0.55615  -0.07877   0.05810
  45                   -0.00000  -0.41419  -0.00000   0.00000   0.00000
  46                    0.34008  -0.00000  -0.47189   0.41631   0.07563
  47                    2.15709  -0.00000  -1.54929   0.71111   0.43658
  48                    0.33721  -0.00000  -0.15792   0.34471   0.17585
  49                   -0.00000  -0.45124  -0.00000   0.00000   0.00000
  50                   -0.02379  -0.00000   0.18705  -0.39229   0.47039
  51                   -0.15592  -0.00000   0.03300  -0.08285  -0.56713
  52                   -0.00000   0.25857  -0.00000   0.00000   0.00000
  53                    1.28918  -0.00000  -1.14899   0.89146  -0.25299
  54                    1.06755  -0.00000  -0.67066   0.47073   0.50101
  55                    0.33090  -0.00000  -0.10137  -0.33660  -0.30805
  56                   -0.00000   0.39022  -0.00000   0.00000   0.00000
  57                    0.03859  -0.00000  -0.03365   0.45124  -0.05455
  58                   -0.40546  -0.00000   0.55615   0.07877  -0.05810
  59                   -0.00000  -0.41419  -0.00000   0.00000   0.00000
                          36        37        38        39        40
     Eigenvalues --     3.47050   3.50875   3.51559   3.88560   3.95656
   1                    0.00046   0.00000   0.00000   0.00000  -0.00000
   2                    0.00666   0.00000   0.00000   0.00000  -0.00000
   3                    0.00454   0.00000   0.00000   0.00000  -0.00000
   4                   -0.53418   0.00000   0.00000   0.00000  -0.00000
   5                    0.13548   0.00000   0.00000   0.00000  -0.00000
   6                   -0.00000   0.00000   0.13725   0.00000  -0.10296
   7                   -0.00000   0.00000   0.00000   0.00000  -0.00000
   8                   -0.05425   0.00000   0.00000   0.00000  -0.00000
   9                   -0.00000   0.00000  -0.05945   0.00000   1.09406
  10                   -0.00000   0.00000   0.00000   0.00000  -0.00000
  11                   -0.08504   0.00000   0.00000   0.00000  -0.00000
  12                   -0.00000   0.00000   0.45352   0.00000   0.08378
  13                   -0.00000   0.00000   0.00000   0.00000  -0.00000
  14                   -0.37008   0.00000   0.00000   0.00000  -0.00000
  15                   -0.00819   0.00000   0.00000   0.00000  -0.00000
  16                   -0.00000   0.00000  -0.03707   0.00000   0.07252
  17                   -0.00000   0.00000   0.00000   0.00000  -0.00000
  18                   -0.00006   0.00000   0.00000   0.00000  -0.00000
  19                   -0.00000   0.01275   0.00000  -0.10576  -0.00000
  20                    0.28039   0.00000   0.00000   0.00000  -0.00000
  21                   -0.00000   0.00000   0.04891   0.00000  -0.77756
  22                   -0.00000   0.00000   0.00000   0.00000  -0.00000
  23                    0.20072   0.00000   0.00000   0.00000  -0.00000
  24                   -0.00000  -0.15592   0.00000   1.07398  -0.00000
  25                   -0.16481   0.00000   0.00000   0.00000  -0.00000
  26                   -0.00000   0.00000   0.13569   0.00000  -0.15929
  27                   -0.00000   0.00000   0.00000   0.00000  -0.00000
  28                   -0.01723   0.00000   0.00000   0.00000  -0.00000
  29                   -0.00000  -0.18595   0.00000   0.09279  -0.00000
  30                   -0.00000   0.00000  -0.17839   0.00000   0.13829
  31                   -0.00000   0.00000   0.00000   0.00000  -0.00000
  32                    0.07573   0.00000   0.00000   0.00000  -0.00000
  33                    0.02087   0.00000   0.00000   0.00000  -0.00000
  34                    0.01995   0.00000   0.00000   0.00000  -0.00000
  35                   -0.00000   0.71281   0.83154   0.02934  -0.01270
  36                   -0.35491   0.00000   0.00000   0.00000  -0.00000
  37                   -0.62406   0.00000   0.00000   0.00000  -0.00000
  38                   -0.00000  -0.46638  -0.65748  -0.53681  -0.52249
  39                    0.17368   0.00000   0.00000   0.00000  -0.00000
  40                    0.67542   0.00000   0.00000   0.00000  -0.00000
  41                    0.44506   0.00000   0.00000   0.00000  -0.00000
  42                   -0.00000   0.24231  -0.25627  -0.71232  -0.38966
  43                   -0.22547   0.00000   0.00000   0.00000  -0.00000
  44                    0.07170   0.00000   0.00000   0.00000  -0.00000
  45                   -0.00000   0.38962   0.03692   0.58457   0.80093
  46                    0.07573   0.00000   0.00000   0.00000  -0.00000
  47                    0.02087   0.00000   0.00000   0.00000  -0.00000
  48                    0.01995   0.00000   0.00000   0.00000  -0.00000
  49                   -0.00000  -0.71281   0.83154  -0.02934  -0.01270
  50                    0.35491   0.00000   0.00000   0.00000  -0.00000
  51                   -0.62406   0.00000   0.00000   0.00000  -0.00000
  52                   -0.00000   0.46638  -0.65748   0.53681  -0.52249
  53                   -0.17368   0.00000   0.00000   0.00000  -0.00000
  54                    0.67542   0.00000   0.00000   0.00000  -0.00000
  55                    0.44506   0.00000   0.00000   0.00000  -0.00000
  56                   -0.00000  -0.24231  -0.25627   0.71232  -0.38966
  57                    0.22547   0.00000   0.00000   0.00000  -0.00000
  58                    0.07170   0.00000   0.00000   0.00000  -0.00000
  59                   -0.00000   0.38962  -0.03692   0.58457  -0.80093
                          41        42        43        44        45
     Eigenvalues --     3.96248   3.99075   4.42868   4.48036   4.59553
   1                    0.02618  -0.00000  -0.00000   0.01433   0.00000
   2                    0.12520  -0.00000  -0.00000   0.05336   0.00000
   3                   -1.30175  -0.00000  -0.00000  -0.34330   0.00000
   4                    1.55316  -0.00000  -0.00000  -0.17834   0.00000
   5                   -0.57850  -0.00000  -0.00000  -0.21734   0.00000
   6                   -0.00000  -0.00000  -0.00000   0.00000   0.00000
   7                   -0.00000   0.31459  -0.53739   0.00000  -0.08190
   8                    0.26872  -0.00000  -0.00000   0.29137   0.00000
   9                   -0.00000  -0.00000  -0.00000   0.00000   0.00000
  10                   -0.00000  -0.63857  -1.45612   0.00000   3.65977
  11                   -0.31984  -0.00000  -0.00000  -0.92471   0.00000
  12                   -0.00000  -0.00000  -0.00000   0.00000   0.00000
  13                   -0.00000   0.24643  -0.78250   0.00000   0.86717
  14                    0.12497  -0.00000  -0.00000  -0.01179   0.00000
  15                    0.04511  -0.00000  -0.00000  -0.10818   0.00000
  16                   -0.00000  -0.00000  -0.00000   0.00000   0.00000
  17                   -0.00000  -0.09943  -0.16475   0.00000   0.26136
  18                    0.11683  -0.00000  -0.00000  -0.05204   0.00000
  19                   -0.00000  -0.00000  -0.00000   0.00000   0.00000
  20                   -0.34666  -0.00000  -0.00000   1.10698   0.00000
  21                   -0.00000  -0.00000  -0.00000   0.00000   0.00000
  22                   -0.00000   0.81476   0.63473   0.00000  -1.74995
  23                   -0.79756  -0.00000  -0.00000   0.72513   0.00000
  24                   -0.00000  -0.00000  -0.00000   0.00000   0.00000
  25                   -0.04804  -0.00000  -0.00000   0.34577   0.00000
  26                   -0.00000  -0.00000  -0.00000   0.00000   0.00000
  27                   -0.00000  -0.01213  -0.19442   0.00000  -0.12092
  28                   -0.27191  -0.00000  -0.00000  -0.29169   0.00000
  29                   -0.00000  -0.00000  -0.00000   0.00000   0.00000
  30                   -0.00000  -0.00000  -0.00000   0.00000   0.00000
  31                   -0.00000  -0.16505   0.30992   0.00000   0.25819
  32                   -0.23513   0.22957  -0.16385   0.00168  -0.52198
  33                   -0.30164   0.51889   2.35416   0.17619  -3.08613
  34                    0.24748  -0.12934   0.35223   0.06355  -0.02638
  35                   -0.00000  -0.00000  -0.00000   0.00000   0.00000
  36                    0.49678  -0.01101   0.00479   0.29820   0.79197
  37                   -0.42994   0.57100   0.11669   0.32870  -0.44936
  38                   -0.00000  -0.00000  -0.00000   0.00000   0.00000
  39                   -0.37909  -0.56358  -1.52702   0.03338   1.08030
  40                    0.02703  -0.48971   0.73635   0.48581  -1.05984
  41                   -0.37779  -0.56638  -0.09105   0.76689  -0.07348
  42                   -0.00000  -0.00000  -0.00000   0.00000   0.00000
  43                   -0.32635   0.36452  -0.54340  -0.37808   0.72301
  44                   -0.23490  -0.28830  -0.86714   0.08518   0.07950
  45                   -0.00000  -0.00000  -0.00000   0.00000   0.00000
  46                   -0.23513  -0.22957   0.16385   0.00168   0.52198
  47                   -0.30164  -0.51889  -2.35416   0.17619   3.08613
  48                    0.24748   0.12934  -0.35223   0.06355   0.02638
  49                   -0.00000  -0.00000  -0.00000   0.00000   0.00000
  50                   -0.49678  -0.01101   0.00479  -0.29820   0.79197
[...]
    X=             -0.0000    Y=             -0.0000    Z=             -1.9428  Tot=              1.9428
 Quadrupole moment (field-independent basis, Debye-Ang):
   XX=             -7.5242   YY=             -4.3781   ZZ=             -6.3205
   XY=              0.0000   XZ=              0.0000   YZ=              0.0000
 Traceless Quadrupole moment (field-independent basis, Debye-Ang):
   XX=             -1.4500   YY=              1.6962   ZZ=             -0.2462
   XY=              0.0000   XZ=              0.0000   YZ=              0.0000
 Octapole moment (field-independent basis, Debye-Ang**2):
  XXX=              0.0000  YYY=             -0.0000  ZZZ=             -1.1290  XYY=             -0.0000
  XXY=              0.0000  XXZ=             -0.2890  XZZ=              0.0000  YZZ=              0.0000
  YYZ=             -1.2856  XYZ=             -0.0000
 Hexadecapole moment (field-independent basis, Debye-Ang**3):
 XXXX=             -6.3758 YYYY=             -6.3546 ZZZZ=             -7.2223 XXXY=             -0.0000
 XXXZ=             -0.0000 YYYX=             -0.0000 YYYZ=              0.0000 ZZZX=             -0.0000
 ZZZY=             -0.0000 XXYY=             -2.4327 XXZZ=             -2.3183 YYZZ=             -1.9427
 XXYZ=              0.0000 YYXZ=              0.0000 ZZXY=             -0.0000
 N-N= 9.160008703910D+00 E-N=-1.992291039772D+02  KE= 7.617112538814D+01
 Symmetry A1   KE= 6.794717101620D+01
 Symmetry A2   KE=-3.077494600107D-21
 Symmetry B1   KE= 4.558047897453D+00
 Symmetry B2   KE= 3.665906474483D+00
  Exact polarizability:       6.019      -0.000       8.659       0.000      -0.000       7.581
 Approx polarizability:       6.689       0.000      11.002       0.000       0.000       9.444
 No NMR shielding tensors so no spin-rotation constants.
 Leave Link  601 at Mon Jan 31 15:13:47 2022, MaxMem=   104857600 cpu:               0.1 elap:               0.1
 (Enter /home/emanuele/chemical_software//gdv/l701.exe)
 ... and contract with generalized density number  0.
 Compute integral second derivatives.
   4 Symmetry operations used in ECPInt.
 ECPInt:  NShTT=     276 NPrTT=     694 LenC2=     277 LenP2D=     681.
 LDataN:  DoStor=T MaxTD1= 8 Len=  415
 Leave Link  701 at Mon Jan 31 15:13:47 2022, MaxMem=   104857600 cpu:               0.2 elap:               0.1
 (Enter /home/emanuele/chemical_software//gdv/l702.exe)
 L702 exits ... SP integral derivatives will be done elsewhere.
 Leave Link  702 at Mon Jan 31 15:13:47 2022, MaxMem=   104857600 cpu:               0.0 elap:               0.0
 (Enter /home/emanuele/chemical_software//gdv/l703.exe)
 Integral derivatives from FoFJK, PRISM(SPDF).
 Compute integral second derivatives, UseDBF=F ICtDFT=           0.
 Calling FoFJK, ICntrl=    100127 FMM=F ISym2X=1 I1Cent= 0 IOpClX= 0 NMat=1 NMatS=1 NMatT=0.
 FoFJK:  IHMeth= 1 ICntrl=  100127 DoSepK=F KAlg= 0 I1Cent=           0 FoldK=F
 IRaf=         0 NMat=       1 IRICut=       1 DoRegI=T DoRafI=F ISym2E= 1 IDoP0=0 IntGTp=1.
 FoFCou: FMM=F IPFlag=           0 FMFlag=      100000 FMFlg1=         800
         NFxFlg=           0 DoJE=F BraDBF=F KetDBF=F FulRan=T
         wScrn=  0.000000 ICntrl=    100127 IOpCl=  0 I1Cent=           0 NGrid=           0
         NMat0=    1 NMatS0=      1 NMatT0=    0 NMatD0=    1 NMtDS0=    0 NMtDT0=    0
 Petite list used in FoFCou.
 Leave Link  703 at Mon Jan 31 15:13:48 2022, MaxMem=   104857600 cpu:               1.8 elap:               0.9
 (Enter /home/emanuele/chemical_software//gdv/l716.exe)
 Dipole        =-3.60681453D-17-2.85077694D-16-7.64363976D-01
 Polarizability= 6.01876504D+00-8.47303940D-13 8.65936591D+00
                 6.75472225D-13-4.29114822D-12 7.58117233D+00
 Full mass-weighted force constant matrix:
 Low frequencies ---   -0.0019   -0.0019   -0.0007   12.8286   13.0121   13.2960
 Low frequencies --- 1632.7820 3810.2269 3913.1444
 Diagonal vibrational polarizability:
        0.0000000       0.0861776       0.7131842
 Harmonic frequencies (cm**-1), IR intensities (KM/Mole), Raman scattering
 activities (A**4/AMU), depolarization ratios for plane and unpolarized
 incident light, reduced masses (AMU), force constants (mDyne/A),
 and normal coordinates:
                      1                      2                      3
                     A1                     A1                     B2
 Frequencies --   1632.7820              3810.2269              3913.1444
 Red. masses --      1.0833                 1.0446                 1.0823
 Frc consts  --      1.7016                 8.9351                 9.7641
 IR Inten    --     69.8191                 4.5361                49.0358
  Atom  AN      X      Y      Z        X      Y      Z        X      Y      Z
     1   8    -0.00   0.00  -0.07     0.00   0.00   0.05    -0.00  -0.07   0.00
     2   1     0.00   0.42   0.56     0.00   0.59  -0.39     0.00   0.56  -0.43
     3   1     0.00  -0.42   0.56    -0.00  -0.59  -0.39     0.00   0.56   0.43

 -------------------
 - Thermochemistry -
 -------------------
 Temperature   298.150 Kelvin.  Pressure      1.00000 Atm.
 Atom     1 has atomic number  8 and mass  15.99491
 Atom     2 has atomic number  1 and mass   1.00783
 Atom     3 has atomic number  1 and mass   1.00783
 Molecular mass:    18.01056 amu.
 Principal axes and moments of inertia in atomic units:
                                 1                 2                 3
     Eigenvalues --            2.191671          4.176332          6.368002
           X                   0.000000          0.000000          1.000000
           Y                   1.000000          0.000000         -0.000000
           Z                  -0.000000          1.000000         -0.000000
 This molecule is an asymmetric top.
 Rotational symmetry number  2.
 Rotational temperatures (Kelvin)     39.51959    20.73923    13.60143
 Rotational constants (GHZ):         823.45458   432.13551   283.40775
 Zero-point vibrational energy      55962.2 (Joules/Mol)
                                   13.37529 (Kcal/Mol)
 Vibrational temperatures:   2349.21  5482.07  5630.14
          (Kelvin)
 
 Zero-point correction=                           0.021315 (Hartree/Particle)
 Thermal correction to Energy=                    0.024150
 Thermal correction to Enthalpy=                  0.025094
 Thermal correction to Gibbs Free Energy=         0.003676
 Sum of electronic and zero-point Energies=            -76.445358
 Sum of electronic and thermal Energies=               -76.442523
 Sum of electronic and thermal Enthalpies=             -76.441579
 Sum of electronic and thermal Free Energies=          -76.462998
 
                     E (Thermal)             CV                S
                      KCal/Mol        Cal/Mol-Kelvin    Cal/Mol-Kelvin
 Total                   15.155              6.008             45.080
 Electronic               0.000              0.000              0.000
 Translational            0.889              2.981             34.608
 Rotational               0.889              2.981             10.465
 Vibrational             13.377              0.047              0.007
                       Q            Log10(Q)             Ln(Q)
 Total Bot       0.203870D-01         -1.690647         -3.892858
 Total V=0       0.129871D+09          8.113512         18.682051
 Vib (Bot)       0.157039D-09         -9.803994        -22.574530
 Vib (V=0)       0.100038D+01          0.000164          0.000379
 Electronic      0.100000D+01          0.000000          0.000000
 Translational   0.300431D+07          6.477745         14.915559
 Rotational      0.432118D+02          1.635602          3.766114
 
                                                         Title Card Required
                                                             IR Spectrum
 
     3   3                                                                      1                                                    
     9   8                                                                      6                                                    
     1   1                                                                      3                                                    
     3   0                                                                      3                                                    
 
     X   X                                                                      X                                                    
     X                                                                          X                                                    
     X                                                                          X                                                    
     X                                                                          X                                                    
     X                                                                          X                                                    
     X                                                                          X                                                    
     X                                                                          X                                                    
     X                                                                          X                                                    
     X                                                                          X                                                    
     X                                                                          X                                                    
     X                                                                          X                                                    
     X                                                                          X                                                    
     X                                                                          X                                                    
     X                                                                          X                                                    
                                                                                X                                                    
                                                                                X                                                    
                                                                                X                                                    
                                                                                X                                                    
                                                                                X                                                    
                                                                                X                                                    
 
 ***** Axes restored to original set *****
 -------------------------------------------------------------------
 Center     Atomic                   Forces (Hartrees/Bohr)
 Number     Number              X              Y              Z
 -------------------------------------------------------------------
      1        8           0.000000003    0.000000004   -0.000000000
      2        1           0.000000001   -0.000000004   -0.000000000
      3        1          -0.000000004   -0.000000000    0.000000000
 -------------------------------------------------------------------
 Cartesian Forces:  Max     0.000000004 RMS     0.000000002
 Force constants in Cartesian coordinates: 
                1             2             3             4             5 
      1  0.603624D+00
      2 -0.108516D+00  0.526769D+00
      3  0.000000D+00  0.000000D+00  0.119758D-04
      4 -0.519859D+00  0.720430D-02  0.000000D+00  0.536473D+00
      5 -0.531173D-01 -0.453374D-01  0.000000D+00  0.272174D-02  0.476203D-01
      6  0.000000D+00  0.000000D+00 -0.598789D-05  0.000000D+00  0.000000D+00
      7 -0.837649D-01  0.101312D+00  0.000000D+00 -0.166139D-01  0.503955D-01
      8  0.161633D+00 -0.481431D+00  0.000000D+00 -0.992604D-02 -0.228294D-02
      9  0.000000D+00  0.000000D+00 -0.598789D-05  0.000000D+00  0.000000D+00
                6             7             8             9 
      6  0.613230D-05
      7  0.000000D+00  0.100379D+00
      8  0.000000D+00 -0.151707D+00  0.483714D+00
      9  0.000000D+00  0.000000D+00  0.000000D+00  0.613230D-05
 FormGI is forming the generalized inverse of G from B-inverse, IUseBI=4.
 Force constants in internal coordinates: 
                1             2             3 
      1  0.535906D+00
      2 -0.525266D-02  0.535906D+00
      3  0.306603D-01  0.306603D-01  0.158836D+00
 Leave Link  716 at Mon Jan 31 15:13:48 2022, MaxMem=   104857600 cpu:               0.0 elap:               0.0
 (Enter /home/emanuele/chemical_software//gdv/l103.exe)

 GradGradGradGradGradGradGradGradGradGradGradGradGradGradGradGradGradGrad
 Berny optimization.
 Internal  Forces:  Max     0.000000007 RMS     0.000000004
 Search for a local minimum.
 Step number   1 out of a maximum of    2
 All quantities printed in internal units (Hartrees-Bohrs-Radians)
 Second derivative matrix not updated -- analytic derivatives used.
 The second derivative matrix:
                          R1        R2        A1
           R1           0.53591
           R2          -0.00525   0.53591
           A1           0.03066   0.03066   0.15884
 ITU=  0
     Eigenvalues ---    0.15385   0.53564   0.54116
 Angle between quadratic step and forces=  90.00 degrees.
 Linear search not attempted -- first point.
 Iteration  1 RMS(Cart)=  0.00000002 RMS(Int)=  0.00000000
 ITry= 1 IFail=0 DXMaxC= 2.54D-08 DCOld= 1.00D+10 DXMaxT= 7.00D-02 DXLimC= 3.00D+00 Rises=F
 ClnCor:  largest displacement from symmetrization is 3.97D-15 for atom     3.
 Variable       Old X    -DE/DX   Delta X   Delta X   Delta X     New X
                                 (Linear)    (Quad)   (Total)
    R1        1.81557   0.00000   0.00000  -0.00000  -0.00000   1.81557
    R2        1.81557   0.00000   0.00000  -0.00000  -0.00000   1.81557
    A1        1.83086   0.00000   0.00000   0.00000   0.00000   1.83086
         Item               Value     Threshold  Converged?
 Maximum Force            0.000000     0.000015     YES
 RMS     Force            0.000000     0.000010     YES
 Maximum Displacement     0.000000     0.000060     YES
 RMS     Displacement     0.000000     0.000040     YES
 Predicted change in Energy=-1.479795D-16
 Optimization completed.
    -- Stationary point found.
                           ----------------------------
                           !   Optimized Parameters   !
                           ! (Angstroms and Degrees)  !
 --------------------------                            --------------------------
 ! Name  Definition              Value          Derivative Info.                !
 --------------------------------------------------------------------------------
 ! R1    R(1,2)                  0.9608         -DE/DX =    0.0                 !
 ! R2    R(1,3)                  0.9608         -DE/DX =    0.0                 !
 ! A1    A(2,1,3)              104.9003         -DE/DX =    0.0                 !
 --------------------------------------------------------------------------------
 GradGradGradGradGradGradGradGradGradGradGradGradGradGradGradGradGradGrad

 Leave Link  103 at Mon Jan 31 15:13:48 2022, MaxMem=   104857600 cpu:               0.0 elap:               0.0
 (Enter /home/emanuele/chemical_software//gdv/l9999.exe)

 ----------------------------------------------------------------------

 Electric dipole moment (input orientation):
 (Debye = 10**-18 statcoulomb cm , SI units = C m)
                  (au)            (Debye)         (10**-30 SI)
   Tot        0.764364D+00      0.194282D+01      0.648055D+01
   x          0.441149D+00      0.112129D+01      0.374022D+01
   y          0.624211D+00      0.158659D+01      0.529228D+01
   z          0.000000D+00      0.000000D+00      0.000000D+00

 Dipole polarizability, Alpha (input orientation).
 (esu units = cm**3 , SI units = C**2 m**2 J**-1)
 Alpha(0;0):
               (au)            (10**-24 esu)      (10**-40 SI)
   iso        0.741977D+01      0.109950D+01      0.122335D+01
   aniso      0.229961D+01      0.340767D+00      0.379154D+00
   xx         0.830022D+01      0.122997D+01      0.136852D+01
   yx        -0.508175D+00     -0.753038D-01     -0.837867D-01
   yy         0.794031D+01      0.117663D+01      0.130918D+01
   zx         0.000000D+00      0.000000D+00      0.000000D+00
   zy         0.000000D+00      0.000000D+00      0.000000D+00
   zz         0.601877D+01      0.891889D+00      0.992360D+00

 ----------------------------------------------------------------------

 Dipole orientation:
     8          4.38033458         -3.09571441          9.09894321
     1          5.55583122         -3.92647330         10.20544666
     1          3.20483794         -2.26495552         10.20544666

 Electric dipole moment (dipole orientation):
 (Debye = 10**-18 statcoulomb cm , SI units = C m)
                  (au)            (Debye)         (10**-30 SI)
   Tot        0.764364D+00      0.194282D+01      0.648055D+01
   x          0.000000D+00      0.000000D+00      0.000000D+00
   y          0.000000D+00      0.000000D+00      0.000000D+00
   z          0.764364D+00      0.194282D+01      0.648055D+01

 Dipole polarizability, Alpha (dipole orientation).
 (esu units = cm**3 , SI units = C**2 m**2 J**-1)
 Alpha(0;0):
               (au)            (10**-24 esu)      (10**-40 SI)
   iso        0.741977D+01      0.109950D+01      0.122335D+01
   aniso      0.229961D+01      0.340767D+00      0.379154D+00
   xx         0.777979D+01      0.115285D+01      0.128271D+01
   yx        -0.124457D+01     -0.184426D+00     -0.205202D+00
   yy         0.689834D+01      0.102223D+01      0.113738D+01
   zx         0.000000D+00      0.000000D+00      0.000000D+00
   zy         0.000000D+00      0.000000D+00      0.000000D+00
   zz         0.758117D+01      0.112341D+01      0.124997D+01

 ----------------------------------------------------------------------

 Test job not archived.
 1\1\GINC-COOLER-MASTER-U2\Freq\RB3LYP\def2TZVPP\H2O1\EMANUELE\31-Jan-2
 022\0\\#P Geom=AllCheck Guess=TCheck SCRF=Check Test GenChk RB3LYP/def
 2TZVPP Freq\\Title Card Required\\0,1\O,5.0969004196,2.2939095126,0.\H
 ,6.0568859775,2.3324642062,0.\H,4.8127939074,3.2117015508,0.\\Version=
 ES64L-GDVRevJ.14\State=1-A1\HF=-76.4666734\RMSD=6.401e-10\RMSF=2.412e-
 09\ZeroPoint=0.0213149\Thermal=0.0241503\ETot=-76.4425231\HTot=-76.441
 5789\GTot=-76.4629978\Dipole=0.441149,0.6242114,0.\DipoleDeriv=-0.4354
 384,0.0641166,0.,0.0641166,-0.3900286,0.,0.,0.,-0.6907939,0.1463987,-0
 .0522453,0.,-0.0623832,0.2663348,0.,0.,0.,0.3453969,0.2890397,-0.01187
 13,0.,-0.0017334,0.1236938,0.,0.,0.,0.3453969\Polar=8.3002233,-0.50817
 5,7.9403149,0.,0.,6.018765\Quadrupole=0.7800345,0.2979748,-1.0780094,-
 0.6806473,0.,0.\PG=C02V [C2(O1),SGV(H2)]\NImag=0\\0.60362391,-0.108516
 05,0.52676881,0.,0.,0.00001198,-0.51985900,0.00720430,0.,0.53647293,-0
 .05311726,-0.04533736,0.,0.00272174,0.04762030,0.,0.,-0.00000599,0.,0.
 ,0.00000613,-0.08376491,0.10131175,0.,-0.01661394,0.05039553,0.,0.1003
 7885,0.16163332,-0.48143145,0.,-0.00992604,-0.00228294,0.,-0.15170728,
 0.48371439,0.,0.,-0.00000599,0.,0.,-0.00000014,0.,0.,0.00000613\\0.,0.
 ,0.,0.,0.,0.,0.,0.,0.\\\@


 Sometimes the fool who rushes in gets the job done.
                                    -- Al Bernstein
 Job cpu time:       0 days  0 hours  0 minutes  8.2 seconds.
 Elapsed time:       0 days  0 hours  0 minutes  4.1 seconds.
 File lengths (MBytes):  RWF=      6 Int=      0 D2E=      0 Chk=      2 Scr=      1
 Normal termination of Gaussian DV at Mon Jan 31 15:13:48 2022.
