Title Card Required                                                     
Freq      AMBER                                                       ZDO                 
Number of atoms                            I                3
Info1-9                                    I   N=           9
          18          18           0           0           0         100
           6           8        1101
Full Title                                 C   N=           2
Title Card Required     
Route                                      C   N=           5
#P Amber=(print,SoftOnly) Geom=Connectivity Freq=intmodes   
Charge                                     I                0
Multiplicity                               I                1
Number of electrons                        I                4
Number of alpha electrons                  I                2
Number of beta electrons                   I                2
Number of basis functions                  I                0
Number of independent functions            I                0
Number of point charges in /Mol/           I                0
Number of translation vectors              I                0
Atomic numbers                             I   N=           3
           8           1           1
Nuclear charges                            R   N=           3
  2.00000000E+00  1.00000000E+00  1.00000000E+00
Current cartesian coordinates              R   N=           9
 -1.44829932E-31  5.55111512E-16  2.09404098E-01 -1.47911420E-31  1.48149973E+00
 -8.37616390E-01 -1.81431390E-16 -1.48149973E+00 -8.37616390E-01
Number of symbols in /Mol/                 I                0
Int Atom Types                             I   N=           3
    20001021    20001030    20001030
Force Field                                I                2
Atom Types                                 C   N=           3
AMB-OW      AMB-HW      AMB-HW      
MM charges                                 R   N=           3
 -0.00000000E+00  0.00000000E+00  0.00000000E+00
Integer atomic weights                     I   N=           3
          16           1           1
Real atomic weights                        R   N=           3
  1.59949146E+01  1.00782504E+00  1.00782504E+00
Atom fragment info                         I   N=           3
           0           0           0
Atom residue num                           I   N=           3
           0           0           0
Nuclear spins                              I   N=           3
           0           1           1
Nuclear ZEff                               R   N=           3
 -6.00000000E+00 -1.00000000E+00 -1.00000000E+00
Nuclear ZNuc                               R   N=           3
  8.00000000E+00  1.00000000E+00  1.00000000E+00
Nuclear QMom                               R   N=           3
  0.00000000E+00  0.00000000E+00  0.00000000E+00
Nuclear GFac                               R   N=           3
  0.00000000E+00  2.79284600E+00  2.79284600E+00
MicOpt                                     I   N=           3
          -1          -1          -1
Number of residues                         I                0
Number of secondary structures             I                0
Redundant internal dimensions              I   N=           4
           3           2           1           0
Redundant internal coordinate indices      I   N=          12
           1           2           0           0           1           3
           0           0           2           1           3           0
Redundant internal coordinates             R   N=           3
  1.81413708E+00  1.81413708E+00  1.91113553E+00
ZRed-IntVec                                I   N=           3
           0           0           0
ZRed-FPVec                                 R   N=           3
  0.00000000E+00  0.00000000E+00  0.00000000E+00
ZRed-Constraint1                           R   N=           3
  1.81413708E+00  1.81413708E+00  1.91113553E+00
ZRed-Constraint2                           R   N=           3
  0.00000000E+00  0.00000000E+00  0.00000000E+00
SymInf integers                            I   N=          26
           2           4           1           1           1          -1
          -1           1          -1           1           1           1
          -1           1           0           0           0           0
           0           0           0           0           0           0
           0           0
RotTr to input orientation                 R   N=          12
 -2.14684416E-16  2.26704625E-16 -1.00000000E+00  8.16641556E-01 -5.77145189E-01
 -3.06161700E-16 -5.77145189E-01 -8.16641556E-01 -6.12323400E-17  9.77548932E+00
  4.53825300E+00  1.81431389E-17
Number of contracted shells                I                3
Number of primitive shells                 I                3
Pure/Cartesian d shells                    I                0
Pure/Cartesian f shells                    I                0
Highest angular momentum                   I                0
Largest degree of contraction              I                1
Shell types                                I   N=           3
           0           0           0
Number of primitives per shell             I   N=           3
           1           1           1
Shell to atom map                          I   N=           3
           1           2           3
Primitive exponents                        R   N=           3
  1.00000000E+00  1.00000000E+00  1.00000000E+00
Contraction coefficients                   R   N=           3
  1.00000000E+00  1.00000000E+00  1.00000000E+00
Coordinates of each shell                  R   N=           9
 -1.44829932E-31  5.55111512E-16  2.09404098E-01 -1.47911420E-31  1.48149973E+00
 -8.37616390E-01 -1.81431390E-16 -1.48149973E+00 -8.37616390E-01
Num ILSW                                   I              100
ILSW                                       I   N=         100
           0           0           0           0           0           0
           0           0           0           0           0          -1
           5           0           0           0           2           0
           0           0           0           0           1           0
           1           0           0           0           0           0
           0           0      100000           0          -1           0
           0           0           0           0           0           0
           0           0           0         101           0           0
           0 -2000000000           1           0           0           0
           0           0           4          65           0           0
           0           0           0           0           0           0
           0           0           0           3           0           1
           0           0           0           0           0           0
           0           0           0           0           0           0
           0           0           0           0           0           0
           0           0           0           0           0           0
           0           0           0           0
Num RLSW                                   I               65
RLSW                                       R   N=          65
  1.00000000E+00  1.00000000E+00  1.00000000E+00  1.00000000E+00  1.00000000E+00
  0.00000000E+00  0.00000000E+00  1.00000000E+00  0.00000000E+00  0.00000000E+00
  0.00000000E+00  0.00000000E+00  1.00000000E+00  0.00000000E+00  0.00000000E+00
  0.00000000E+00  0.00000000E+00  1.00000000E+00  0.00000000E+00  0.00000000E+00
  0.00000000E+00  0.00000000E+00  1.00000000E+00  0.00000000E+00  0.00000000E+00
  0.00000000E+00  0.00000000E+00  1.00000000E+00  0.00000000E+00  0.00000000E+00
  0.00000000E+00  0.00000000E+00  1.00000000E+00  0.00000000E+00  0.00000000E+00
  0.00000000E+00  0.00000000E+00  0.00000000E+00  1.00000000E+00  1.00000000E+00
  0.00000000E+00  1.00000000E+00  0.00000000E+00  0.00000000E+00  0.00000000E+00
  0.00000000E+00  0.00000000E+00  0.00000000E+00  0.00000000E+00  0.00000000E+00
  0.00000000E+00  0.00000000E+00  1.00000000E+00  1.00000000E+00  1.00000000E+00
  1.00000000E+00  0.00000000E+00  0.00000000E+00  0.00000000E+00  0.00000000E+00
  0.00000000E+00  0.00000000E+00  0.00000000E+00  0.00000000E+00  0.00000000E+00
MxBond                                     I                2
NBond                                      I   N=           3
           2           1           1
IBond                                      I   N=           6
           2           3           1           0           1           0
RBond                                      R   N=           6
  1.00000000E+00  1.00000000E+00  1.00000000E+00  0.00000000E+00  1.00000000E+00
  0.00000000E+00
Virial Ratio                               R      0.000000000000000E+00
SCF Energy                                 R      1.027200278010276E-05
Total Energy                               R      1.027200278010276E-05
RMS Force                                  R      1.018928682240894E-04
NImag                                      I                0
Job Status                                 I                1
Nuclear derivative order                   I                2
Thermal Energy                             R      5.864389452515478E-03
Thermal Enthalpy                           R      6.808574266159848E-03
Thermal Free Energy                        R     -1.791603458006682E-02
External E-field                           R   N=         105
  0.00000000E+00  0.00000000E+00  0.00000000E+00  0.00000000E+00  0.00000000E+00
  0.00000000E+00  0.00000000E+00  0.00000000E+00  0.00000000E+00  0.00000000E+00
  0.00000000E+00  0.00000000E+00  0.00000000E+00  0.00000000E+00  0.00000000E+00
  0.00000000E+00  0.00000000E+00  0.00000000E+00  0.00000000E+00  0.00000000E+00
  0.00000000E+00  0.00000000E+00  0.00000000E+00  0.00000000E+00  0.00000000E+00
  0.00000000E+00  0.00000000E+00  0.00000000E+00  0.00000000E+00  0.00000000E+00
  0.00000000E+00  0.00000000E+00  0.00000000E+00  0.00000000E+00  0.00000000E+00
  0.00000000E+00  0.00000000E+00  0.00000000E+00  0.00000000E+00  0.00000000E+00
  0.00000000E+00  0.00000000E+00  0.00000000E+00  0.00000000E+00  0.00000000E+00
  0.00000000E+00  0.00000000E+00  0.00000000E+00  0.00000000E+00  0.00000000E+00
  0.00000000E+00  0.00000000E+00  0.00000000E+00  0.00000000E+00  0.00000000E+00
  0.00000000E+00  0.00000000E+00  0.00000000E+00  0.00000000E+00  0.00000000E+00
  0.00000000E+00  0.00000000E+00  0.00000000E+00  0.00000000E+00  0.00000000E+00
  0.00000000E+00  0.00000000E+00  0.00000000E+00  0.00000000E+00  0.00000000E+00
  0.00000000E+00  0.00000000E+00  0.00000000E+00  0.00000000E+00  0.00000000E+00
  0.00000000E+00  0.00000000E+00  0.00000000E+00  0.00000000E+00  0.00000000E+00
  0.00000000E+00  0.00000000E+00  0.00000000E+00  0.00000000E+00  0.00000000E+00
  0.00000000E+00  0.00000000E+00  0.00000000E+00  0.00000000E+00  0.00000000E+00
  0.00000000E+00  0.00000000E+00  0.00000000E+00  0.00000000E+00  0.00000000E+00
  0.00000000E+00  0.00000000E+00  0.00000000E+00  0.00000000E+00  0.00000000E+00
  0.00000000E+00  0.00000000E+00  0.00000000E+00  0.00000000E+00  0.00000000E+00
IOpCl                                      I                0
IROHF                                      I                0
Grdnt Energy                               R      1.027200278010276E-05
Grdnt NVar                                 I                3
Grdnt IGetFC                               I                4
Internal Forces                            R   N=           3
  1.09648585E-06  1.09648585E-06 -2.55869746E-04
Internal Force Constants                   R   N=           6
  8.92507706E-04  5.42101086E-19  8.92507706E-04 -6.50521303E-19 -2.38524478E-18
  3.18720287E-03
Optimization MaxStp                        I                2
Optimization MaxJob                        I                1
Optimization Job offset                    I                0
Optimization Num results per geometry      I                2
Optimization Num geometry variables        I                9
Optimization Reference Energy              R      0.000000000000000E+00
Opt point       1 Results for each geome   R   N=           2
  1.02720028E-05  0.00000000E+00
Opt point       1 Geometries               R   N=           9
 -1.44829932E-31  5.55111512E-16  2.09404098E-01 -1.47911420E-31  1.48149973E+00
 -8.37616390E-01 -1.81431390E-16 -1.48149973E+00 -8.37616390E-01
Opt point       1 Gradient at each geome   R   N=           9
 -2.00686033E-20  7.04731412E-19 -2.31627381E-04  1.49638937E-20  8.05063471E-05
  1.15813691E-04  5.10470964E-21 -8.05063471E-05  1.15813691E-04
Optimization Number of geometries          I   N=           1
           1
MMPar NCPar                                I   N=          16
          -1           5           3         303           4           3
          10           6          18           6           4          95
           6           5           0           2
MMPar IPrt                                 I   N=          18
           6           2           6           2           0           0
           0           0           0           0           0           0
           0           0           0           0           0           0
MMPar ICnvrt                               I   N=           6
           6           2           0           0           0           0
MMPar ICntr                                I   N=           4
           0           0           0           0
MMPar IList                                I   N=          97
           0           0           0           0           0           0
           0           0           0           0           0           0
           0           0           0           0           0           0
           0           0           0           0           0           0
           0           0           0           0           0           0
           0           0           0           0           0           0
           0           0           0           0           0           0
           0           0           0           0           0           0
           0           0           0           0           0           0
           0           0           0           0           0           0
           0           0           0           0           0           0
           0           0           0           0           0           0
           0           0           0           0           0           0
           0           0           0           0           0           0
           0           0           0           0           0           0
           0           0           0           0           0           5
           0
MMPar AtL                                  L   N=           3
TTT
MMPar ChL                                  L   N=           3
FFF
MMPar Q                                    R   N=           3
 -0.00000000E+00  0.00000000E+00  0.00000000E+00
MMPar IAType                               I   N=           6
          21          30          30           0           0           0
MMPar IAtTpT                               I   N=           3
           0    20001021    20001030
MMPar IUserT                               I   N=           3
           0           0           0
MMPar SymbT                                H   N=           3
*       OW      HW      
MMPar StepD                                I   N=          95
           0           0           0           0           0           0
           0           0           0           0           0           0
           0           0           0           0           0           0
           0           0           0           0           0           0
           0           0           0           0           0           0
           0           0           0           0           0           0
           0           0           0           0           0           0
           0           0           0           0           0           0
           0           0           0           0           0           0
           0           0           0           0           0           0
           0           0           0           0           0           0
           0           0           0           0           0           0
           0           0           0           0           0           0
           0           0           0           0           0           0
           0           0           0           0           0           0
           0           0           0           0           0
MMPar ICorL                                I   N=          50
    20001021    20001030           0           0           0           0
           0           0           0          10    20001030    20001021
    20001030           0           0           0           0           0
           0          20           1           2           0           0
           0           0           0           0           0          10
           1           3           0           0           0           0
           0           0           0          10           2           1
           3           0           0           0           0           0
           0          20
MMPar RCorL                                R   N=          30
  1.00000000E+00  9.60650118E-01  0.00000000E+00  0.00000000E+00  0.00000000E+00
  0.00000000E+00  1.00000000E+00  1.04900275E+02  0.00000000E+00  0.00000000E+00
  0.00000000E+00  0.00000000E+00  4.46253853E-04  1.81536562E+00  0.00000000E+00
  0.00000000E+00  0.00000000E+00  0.00000000E+00  4.46253853E-04  1.81536562E+00
  0.00000000E+00  0.00000000E+00  0.00000000E+00  0.00000000E+00  1.59360144E-03
  1.83085519E+00  0.00000000E+00  0.00000000E+00  0.00000000E+00  0.00000000E+00
MMPar Table                                R   N=          15
  0.00000000E+00  0.00000000E+00  0.00000000E+00  0.00000000E+00  0.00000000E+00
  0.00000000E+00  0.00000000E+00  0.00000000E+00  0.00000000E+00  0.00000000E+00
  0.00000000E+00  0.00000000E+00  0.00000000E+00  0.00000000E+00  0.00000000E+00
ONIOM Charges                              I   N=          16
           0           0           0           0           0           0
           0           0           0           0           0           0
           0           0           0           0
ONIOM Multiplicities                       I   N=          16
           1           0           0           0           0           0
           0           0           0           0           0           0
           0           0           0           0
Atom Layers                                I   N=           3
           1           1           1
Atom Modifiers                             I   N=           3
           0           0           0
Int Atom Modified Types                    I   N=           3
           0           0           0
Force Field                                I                0
Atom Modified Types                        C   N=           3
                                    
Link Atoms                                 I   N=           3
           0           0           0
Atom Modified MM Charges                   R   N=           3
  0.00000000E+00  0.00000000E+00  0.00000000E+00
Link Distances                             R   N=          12
  0.00000000E+00  0.00000000E+00  0.00000000E+00  0.00000000E+00  0.00000000E+00
  0.00000000E+00  0.00000000E+00  0.00000000E+00  0.00000000E+00  0.00000000E+00
  0.00000000E+00  0.00000000E+00
Cartesian Gradient                         R   N=           9
 -2.00686033E-20  7.04731412E-19 -2.31627381E-04  1.49638937E-20  8.05063471E-05
  1.15813691E-04  5.10470964E-21 -8.05063471E-05  1.15813691E-04
Cartesian Force Constants                  R   N=          45
 -2.21225261E-04  7.74394422E-20  1.04345680E-03  3.07143277E-19  1.19262239E-18
  3.32375452E-03  1.10612631E-04 -2.40741243E-35 -1.82105329E-19 -2.81357578E-05
 -7.90939585E-20 -5.21728402E-04 -4.65990519E-04  5.42491570E-20  8.44310060E-04
 -1.26207245E-19  4.46894458E-04 -1.66187726E-03  9.10526643E-20  9.54803067E-06
  1.01602608E-03  1.10612631E-04 -7.74394422E-20 -1.25037949E-19 -8.24768729E-05
  2.48448015E-20  3.51545810E-20 -2.81357578E-05  1.65451631E-21 -5.21728402E-04
  4.65990519E-04 -5.42491570E-20 -3.22581657E-04 -4.56442488E-04  5.25946407E-20
  8.44310060E-04 -1.80936032E-19 -4.46894458E-04 -1.66187726E-03  9.10526643E-20
  4.56442488E-04  6.45851184E-04  8.98833678E-20 -9.54803067E-06  1.01602608E-03
Dipole Moment                              R   N=           3
  0.00000000E+00  0.00000000E+00  0.00000000E+00
Number of Normal Modes                     I                3
Vib-LE2Fix                                 I               14
Vib-NDFDPol                                I                0
Vib-NumROA                                 I                0
Vib-NDim                                   I                3
Vib-NDim0                                  I                3
Vib-LFlags                                 I                8
Vib-IFlags                                 I   N=          24
           0           0           1           0           0           0
           0           0           0           0           2           0
           0           0           0           0           0           0
           3           0           0           0           0           0
Vib-AtMass                                 R   N=           3
  1.59949146E+01  1.00782504E+00  1.00782504E+00
Vib-E2                                     R   N=          42
  1.54635960E+02  1.58510322E+02  2.36109107E+02  1.03050993E+00  1.08676974E+00
  1.09886603E+00  1.45185543E-02  1.60880289E-02  3.60927878E-02  0.00000000E+00
  0.00000000E+00  0.00000000E+00  0.00000000E+00  0.00000000E+00  0.00000000E+00
  0.00000000E+00  0.00000000E+00  0.00000000E+00  0.00000000E+00  0.00000000E+00
  0.00000000E+00  0.00000000E+00  0.00000000E+00  0.00000000E+00  0.00000000E+00
  0.00000000E+00  0.00000000E+00  1.00000000E+02  1.00000000E+02  1.00000000E+02
  0.00000000E+00  0.00000000E+00  0.00000000E+00  0.00000000E+00  0.00000000E+00
  0.00000000E+00  0.00000000E+00  0.00000000E+00  0.00000000E+00  0.00000000E+00
  0.00000000E+00  0.00000000E+00
Vib-Modes                                  R   N=          27
  3.37083076E-18  2.08166817E-17  3.89053831E-02  1.21677474E-17  6.35554879E-01
 -3.08728330E-01 -6.56652774E-17 -6.35554879E-01 -3.08728330E-01 -4.44409871E-18
 -7.25776397E-02  4.16333634E-17 -2.46519033E-32  5.75929903E-01 -4.07027013E-01
  7.05310713E-17  5.75929903E-01  4.07027013E-01 -6.75285001E-18 -4.85722573E-17
 -7.79399014E-02  7.43009041E-17  3.38294916E-01  6.18481395E-01  3.28717256E-17
 -3.38294916E-01  6.18481395E-01
ClPar MaxAn                                I              200
ClPar NIntPar                              I               12
ClPar NRealPar                             I               16
ClPar NBits                                I               30
ClPar LenBitVec                            I                1
ClPar Read BitMap                          I   N=         200
           0           0           0           0           0           0
           0           0           0           0           0           0
           0           0           0           0           0           0
           0           0           0           0           0           0
           0           0           0           0           0           0
           0           0           0           0           0           0
           0           0           0           0           0           0
           0           0           0           0           0           0
           0           0           0           0           0           0
           0           0           0           0           0           0
           0           0           0           0           0           0
           0           0           0           0           0           0
           0           0           0           0           0           0
           0           0           0           0           0           0
           0           0           0           0           0           0
           0           0           0           0           0           0
           0           0           0           0           0           0
           0           0           0           0           0           0
           0           0           0           0           0           0
           0           0           0           0           0           0
           0           0           0           0           0           0
           0           0           0           0           0           0
           0           0           0           0           0           0
           0           0           0           0           0           0
           0           0           0           0           0           0
           0           0           0           0           0           0
           0           0           0           0           0           0
           0           0           0           0           0           0
           0           0           0           0           0           0
           0           0           0           0           0           0
           0           0           0           0           0           0
           0           0           0           0           0           0
           0           0           0           0           0           0
           0           0
ClPar Default BitMap                       I   N=         200
      516096      516096      516096      516096      516096      516096
      516096      516096      516096      516096      516096      516096
      516096      516096      516096      516096      516096      516096
      516096      516096      516096      516096      516096      516096
      516096      516096      516096      516096      516096      516096
      516096      516096      516096      516096      516096      516096
      516096      516096      516096      516096      516096      516096
      516096      516096      516096      516096      516096      516096
      516096      516096      516096      516096      516096      516096
      516096      516096      516096      516096      516096      516096
      516096      516096      516096      516096      516096      516096
      516096      516096      516096      516096      516096      516096
      516096      516096      516096      516096      516096      516096
      516096      516096      516096      516096      516096      516096
      516096      516096      122880      122880      122880      122880
      122880      122880      122880      122880      122880      122880
      122880      122880      122880      122880      122880      122880
      122880      122880      122880      122880      122880      122880
      122880      122880      122880      122880      122880      122880
      122880      122880      122880      122880      122880      122880
      122880      122880      122880      122880      122880      122880
      122880      122880      122880      122880      122880      122880
      122880      122880      122880      122880      122880      122880
      122880      122880      122880      122880      122880      122880
      122880      122880      122880      122880      122880      122880
      122880      122880      122880      122880      122880      122880
      122880      122880      122880      122880      122880      122880
      122880      122880      122880      122880      122880      122880
      122880      122880      122880      122880      122880      122880
      122880      122880      122880      122880      122880      122880
      122880      122880      122880      122880      122880      122880
      122880      122880      122880      122880      122880      122880
      122880      122880      122880      122880      122880      122880
      122880      122880
ClPar Int Params                           I   N=        2400
           0           0           0           0           0           0
           0           0           0           0           0           0
           0           0           0           0           0           0
           0           0           0           0           0           0
           0           0           0           0           0           0
           0           0           0           0           0           0
           0           0           0           0           0           0
           0           0           0           0           0           0
           0           0           0           0           0           0
           0           0           0           0           0           0
           0           0           0           0           0           0
           0           0           0           0           0           0
           0           0           0           0           0           0
           0           0           0           0           0           0
           0           0           0           0           0           0
           0           0           0           0           0           0
           0           0           0           0           0           0
           0           0           0           0           0           0
           0           0           0           0           0           0
           0           0           0           0           0           0
           0           0           0           0           0           0
           0           0           0           0           0           0
           0           0           0           0           0           0