 Entering Gaussian System, Link 0=g16
 Input=nb_zmat.gjf
 Output=nb_zmat.log
 Initial command:
 /home/emanuele/chemical_software//g16/l1.exe "/home/emanuele/chemical_software/scratch/Gau-4368.inp" -scrdir="/home/emanuele/chemical_software/scratch/"
 Entering Link 1 = /home/emanuele/chemical_software//g16/l1.exe PID=      4370.
  
 Copyright (c) 1988-2019, Gaussian, Inc.  All Rights Reserved.
  
 This is part of the Gaussian(R) 16 program.  It is based on
 the Gaussian(R) 09 system (copyright 2009, Gaussian, Inc.),
 the Gaussian(R) 03 system (copyright 2003, Gaussian, Inc.),
 the Gaussian(R) 98 system (copyright 1998, Gaussian, Inc.),
 the Gaussian(R) 94 system (copyright 1995, Gaussian, Inc.),
 the Gaussian 92(TM) system (copyright 1992, Gaussian, Inc.),
 the Gaussian 90(TM) system (copyright 1990, Gaussian, Inc.),
 the Gaussian 88(TM) system (copyright 1988, Gaussian, Inc.),
 the Gaussian 86(TM) system (copyright 1986, Carnegie Mellon
 University), and the Gaussian 82(TM) system (copyright 1983,
 Carnegie Mellon University). Gaussian is a federally registered
 trademark of Gaussian, Inc.
  
 This software contains proprietary and confidential information,
 including trade secrets, belonging to Gaussian, Inc.
  
 This software is provided under written license and may be
 used, copied, transmitted, or stored only in accord with that
 written license.
  
 The following legend is applicable only to US Government
 contracts under FAR:
  
                    RESTRICTED RIGHTS LEGEND
  
 Use, reproduction and disclosure by the US Government is
 subject to restrictions as set forth in subparagraphs (a)
 and (c) of the Commercial Computer Software - Restricted
 Rights clause in FAR 52.227-19.
  
 Gaussian, Inc.
 340 Quinnipiac St., Bldg. 40, Wallingford CT 06492
  
  
 ---------------------------------------------------------------
 Warning -- This program may not be used in any manner that
 competes with the business of Gaussian, Inc. or will provide
 assistance to any competitor of Gaussian, Inc.  The licensee
 of this program is prohibited from giving any competitor of
 Gaussian, Inc. access to this program.  By using this program,
 the user acknowledges that Gaussian, Inc. is engaged in the
 business of creating and licensing software in the field of
 computational chemistry and represents and warrants to the
 licensee that it is not a competitor of Gaussian, Inc. and that
 it will not use this program in any manner prohibited above.
 ---------------------------------------------------------------
  

 Cite this work as:
 Gaussian 16, Revision C.01,
 M. J. Frisch, G. W. Trucks, H. B. Schlegel, G. E. Scuseria, 
 M. A. Robb, J. R. Cheeseman, G. Scalmani, V. Barone, 
 G. A. Petersson, H. Nakatsuji, X. Li, M. Caricato, A. V. Marenich, 
 J. Bloino, B. G. Janesko, R. Gomperts, B. Mennucci, H. P. Hratchian, 
 J. V. Ortiz, A. F. Izmaylov, J. L. Sonnenberg, D. Williams-Young, 
 F. Ding, F. Lipparini, F. Egidi, J. Goings, B. Peng, A. Petrone, 
 T. Henderson, D. Ranasinghe, V. G. Zakrzewski, J. Gao, N. Rega, 
 G. Zheng, W. Liang, M. Hada, M. Ehara, K. Toyota, R. Fukuda, 
 J. Hasegawa, M. Ishida, T. Nakajima, Y. Honda, O. Kitao, H. Nakai, 
 T. Vreven, K. Throssell, J. A. Montgomery, Jr., J. E. Peralta, 
 F. Ogliaro, M. J. Bearpark, J. J. Heyd, E. N. Brothers, K. N. Kudin, 
 V. N. Staroverov, T. A. Keith, R. Kobayashi, J. Normand, 
 K. Raghavachari, A. P. Rendell, J. C. Burant, S. S. Iyengar, 
 J. Tomasi, M. Cossi, J. M. Millam, M. Klene, C. Adamo, R. Cammi, 
 J. W. Ochterski, R. L. Martin, K. Morokuma, O. Farkas, 
 J. B. Foresman, and D. J. Fox, Gaussian, Inc., Wallingford CT, 2019.
 
 ******************************************
 Gaussian 16:  ES64L-G16RevC.01  3-Jul-2019
                 2-Dec-2021 
 ******************************************
 %nprocs=2
 Will use up to    2 processors via shared memory.
 %chk=nb_zmat.chk
 ----------------------------------------------------------------------
 #p opt=(calcall,tight,maxstep=7,maxcycles=100) freq amber=softfirst ge
 om=connectivity
 ----------------------------------------------------------------------
 1/6=100,7=10,8=7,10=4,18=4000020,19=15,38=1,56=2,57=2,64=203/1,3;
 2/9=110,12=2,17=6,18=5,40=1/2;
 3/5=30,11=9,25=1,30=1,41=10300000,43=2,71=2,140=1/1;
 4/20=11,22=1002,24=3,68=10/2;
 7/25=1,44=-1/16;
 1/6=100,7=10,8=7,10=4,18=4000020,19=15,64=203/3(3);
 2/9=110/2;
 7/8=1,9=1,25=1,44=-1/16;
 99//99;
 2/9=110/2;
 3/5=30,11=9,25=1,30=1,41=10300000,43=2,71=2,140=1/1;
 4/16=2,20=11,22=1002,24=3,68=10/2;
 7/25=1,44=-1/16;
 1/6=100,7=10,8=7,10=4,18=4000020,19=15,64=203/3(-4);
 2/9=110/2;
 7/8=1,9=1,25=1,44=-1/16;
 99//99;
 Leave Link    1 at Thu Dec  2 10:10:05 2021, MaxMem=           0 cpu:               0.0 elap:               0.0
 (Enter /home/emanuele/chemical_software//g16/l101.exe)
 -------------------
 Title Card Required
 -------------------
 Symbolic Z-matrix:
 Charge =  0 Multiplicity = 1
 O-OW
 H-HW                 1    B1
 H-HW                 1    B2       2    A1
       Variables:
  B1                    0.96                     
  B2                    0.96                     
  A1                  109.5                      
 
 ITRead=  3  3  3
 MicOpt=  0  0  0
 NAtoms=      3 NQM=        0 NQMF=       0 NMMI=      0 NMMIF=      0
                NMic=       3 NMicF=      0.
                    Isotopes and Nuclear Properties:
 (Nuclear quadrupole moments (NQMom) in fm**2, nuclear magnetic moments (NMagM)
  in nuclear magnetons)

  Atom         1           2           3
 IAtWgt=          16           1           1
 AtmWgt=  15.9949146   1.0078250   1.0078250
 NucSpn=           0           1           1
 AtZEff=  -0.0000000  -0.0000000  -0.0000000
 NQMom=    0.0000000   0.0000000   0.0000000
 NMagM=    0.0000000   2.7928460   2.7928460
 AtZNuc=   8.0000000   1.0000000   1.0000000
 Generating MM parameters.
 Read MM parameter file:
 Include all MM classes

 MM sanity checks:
 All charges sum to:                0.00000000
 Charges of atoms sum to:           0.00000000
 MMInit generated parameter data with length LenPar=         541.
 Leave Link  101 at Thu Dec  2 10:10:05 2021, MaxMem=   104857600 cpu:               0.3 elap:               0.1
 (Enter /home/emanuele/chemical_software//g16/l103.exe)

 GradGradGradGradGradGradGradGradGradGradGradGradGradGradGradGradGradGrad
 Berny optimization.
 Initialization pass.
 No Z-matrix variables, so optimization will use Cartesian coordinates.
 Trust Radius=7.00D-02 FncErr=1.00D-07 GrdErr=1.00D-07 EigMax=2.50D+02 EigMin=1.00D-04
 Number of steps in this run=      2 maximum allowed number of steps=      2.
 GradGradGradGradGradGradGradGradGradGradGradGradGradGradGradGradGradGrad

 Leave Link  103 at Thu Dec  2 10:10:05 2021, MaxMem=   104857600 cpu:               0.0 elap:               0.0
 (Enter /home/emanuele/chemical_software//g16/l202.exe)
                          Input orientation:                          
 ---------------------------------------------------------------------
 Center     Atomic      Atomic             Coordinates (Angstroms)
 Number     Number       Type             X           Y           Z
 ---------------------------------------------------------------------
      1          8    20001021        0.000000    0.000000    0.000000
      2          1    20001030        0.000000    0.000000    0.960000
      3          1    20001030        0.904936    0.000000   -0.320455
 ---------------------------------------------------------------------
                    Distance matrix (angstroms):
                    1          2          3
     1  O    0.000000
     2  H    0.960000   0.000000
     3  H    0.960000   1.567952   0.000000
 Stoichiometry    H2O
 Framework group  C2V[C2(O),SGV(H2)]
 Deg. of freedom     2
 Full point group                 C2V     NOp   4
 Largest Abelian subgroup         C2V     NOp   4
 Largest concise Abelian subgroup C2      NOp   2
                         Standard orientation:                         
 ---------------------------------------------------------------------
 Center     Atomic      Atomic             Coordinates (Angstroms)
 Number     Number       Type             X           Y           Z
 ---------------------------------------------------------------------
      1          8    20001021       -0.000000    0.000000    0.110812
      2          1    20001030        0.000000    0.783976   -0.443248
      3          1    20001030       -0.000000   -0.783976   -0.443248
 ---------------------------------------------------------------------
 Rotational constants (GHZ):         919.6759603         407.9403322         282.5913774
 Leave Link  202 at Thu Dec  2 10:10:05 2021, MaxMem=   104857600 cpu:               0.0 elap:               0.0
 (Enter /home/emanuele/chemical_software//g16/l301.exe)
 Standard basis: Dummy (5D, 7F)
 There are     2 symmetry adapted cartesian basis functions of A1  symmetry.
 There are     0 symmetry adapted cartesian basis functions of A2  symmetry.
 There are     0 symmetry adapted cartesian basis functions of B1  symmetry.
 There are     1 symmetry adapted cartesian basis functions of B2  symmetry.
 There are     2 symmetry adapted basis functions of A1  symmetry.
 There are     0 symmetry adapted basis functions of A2  symmetry.
 There are     0 symmetry adapted basis functions of B1  symmetry.
 There are     1 symmetry adapted basis functions of B2  symmetry.
     3 basis functions,     3 primitive gaussians,     3 cartesian basis functions
     2 alpha electrons        2 beta electrons
       nuclear repulsion energy         2.5424008897 Hartrees.
 IExCor=    0 DFT=F Ex=HF Corr=None ExCW=0 ScaHFX=  1.000000
 ScaDFX=  1.000000  1.000000  1.000000  1.000000 ScalE2=  1.000000  1.000000
 IRadAn=      5 IRanWt=     -1 IRanGd=            0 ICorTp=0 IEmpDi=  4
 NAtoms=    3 NActive=    3 NUniq=    2 SFac= 2.25D+00 NAtFMM=   60 NAOKFM=F Big=F
 Integral buffers will be    131072 words long.
 Raffenetti 1 integral format.
 Two-electron integral symmetry is turned on.
 Leave Link  301 at Thu Dec  2 10:10:05 2021, MaxMem=   104857600 cpu:               0.1 elap:               0.0
 (Enter /home/emanuele/chemical_software//g16/l402.exe)
 AMBER calculation of energy, first and second derivatives.
 NRF= 0 NRA=   0 NVA=   3 HaveQM=F NVQ=       0
 Convergence limit is  0.250E-05 MaxStp= 10000 StMxLn= 1.00D-05 StpMin= 1.00D-07.
 Convergence criteria             0.00000375 0.00000250 0.00001500 0.00001000
  Step  NS  ND Rises OKQ   Scale  Max. Force  RMS Force Max. Disp.  RMS Disp.     Energy   Flag
     1   0   0   F    T  1.00D+00 0.02494065 0.01099696 0.02494065 0.01099696    0.0012039 ----
     2   0   0   F    F  1.25D+00 0.02494065 0.01099696 0.03121826 0.01376491    0.0003663 ----
     3   0   0   F    F  1.22D-03 0.02494065 0.01099696 0.00003803 0.00001677    0.0000000 ----
 MMCGO1:  length 2.25D-20 force  1.12D-11 so reinitializing CG.
     4   0   0   F    T  1.10D+03 0.00000000 0.00000000 0.00000375 0.00000168    0.0000000 ====
 Energy per function type:
 Direct Coulomb + vdW (small)                           0.000000000
 Direct Coulomb (large)                                 0.000000000
 Direct vdW (large)                                     0.000000000
 Non-direct Coulomb + vdW (small)                       0.000000000
 Non-direct Coulomb (large)                             0.000000000
 Non-direct vdW (large)                                 0.000000000
 Energy per function class:
        Coulomb               0.000000000
    Vanderwaals               0.000000000
        Bending               0.000000000
 Energy=    2.486739632E-17 NIter=   0.
 Dipole moment=       0.000000       0.000000       0.000000
 Leave Link  402 at Thu Dec  2 10:10:05 2021, MaxMem=   104857600 cpu:               0.1 elap:               0.0
 (Enter /home/emanuele/chemical_software//g16/l716.exe)
 Dipole        = 0.00000000D+00 0.00000000D+00 0.00000000D+00
 ***** Axes restored to original set *****
 -------------------------------------------------------------------
 Center     Atomic                   Forces (Hartrees/Bohr)
 Number     Number              X              Y              Z
 -------------------------------------------------------------------
      1        8          -0.000000003    0.000000000   -0.000000002
      2        1           0.000000002    0.000000000   -0.000000000
      3        1           0.000000001   -0.000000000    0.000000002
 -------------------------------------------------------------------
 Cartesian Forces:  Max     0.000000003 RMS     0.000000002
 Force constants in Cartesian coordinates: 
                1             2             3             4             5 
      1  0.155636D+00
      2  0.000000D+00  0.000000D+00
      3  0.109993D+00  0.000000D+00  0.777350D-01
      4 -0.120385D+00  0.000000D+00 -0.850799D-01  0.931187D-01
      5  0.000000D+00  0.000000D+00  0.000000D+00  0.000000D+00  0.000000D+00
      6  0.523508D-02  0.000000D+00  0.369979D-02 -0.404936D-02  0.000000D+00
      7 -0.352506D-01  0.000000D+00 -0.249127D-01  0.272666D-01  0.000000D+00
      8  0.000000D+00  0.000000D+00  0.000000D+00  0.000000D+00  0.000000D+00
      9 -0.115228D+00  0.000000D+00 -0.814348D-01  0.891292D-01  0.000000D+00
                6             7             8             9 
      6  0.176091D-03
      7 -0.118572D-02  0.798406D-02
      8  0.000000D+00  0.000000D+00  0.000000D+00
      9 -0.387588D-02  0.260984D-01  0.000000D+00  0.853107D-01
 Force constants in internal coordinates: 
 Leave Link  716 at Thu Dec  2 10:10:05 2021, MaxMem=   104857600 cpu:               0.0 elap:               0.0
 (Enter /home/emanuele/chemical_software//g16/l103.exe)

 GradGradGradGradGradGradGradGradGradGradGradGradGradGradGradGradGradGrad
 Berny optimization.
 Search for a local minimum.
 Step number   1 out of a maximum of    2
 All quantities printed in internal units (Hartrees-Bohrs-Radians)
 RMS Force = .15234D-08 SwitMx=.10000D-02 MixMth= 2
 Mixed Optimization -- En-DIIS/RFO-DIIS
 Second derivative matrix not updated -- analytic derivatives used.
 The second derivative matrix:
                          X1        Y1        Z1        X2        Y2
           X1           0.15564
           Y1          -0.00000  -0.00000
           Z1           0.10999  -0.00000   0.07774
           X2          -0.12039   0.00000  -0.08508   0.09312
           Y2          -0.00000   0.00000  -0.00000   0.00000  -0.00000
           Z2           0.00524  -0.00000   0.00370  -0.00405  -0.00000
           X3          -0.03525   0.00000  -0.02491   0.02727   0.00000
           Y3           0.00000   0.00000   0.00000  -0.00000  -0.00000
           Z3          -0.11523   0.00000  -0.08143   0.08913   0.00000
                          Z2        X3        Y3        Z3
           Z2           0.00018
           X3          -0.00119   0.00798
           Y3           0.00000  -0.00000  -0.00000
           Z3          -0.00388   0.02610  -0.00000   0.08531
 ITU=  0
     Eigenvalues ---   -0.00000  -0.00000   0.40995
 Eigenvalue     1 is  -1.85D-09 should be greater than     0.000000 Eigenvector:
                          Z2        X3        Z1        X1        Z3
   1                    0.55412  -0.53038  -0.50655   0.35799   0.16225
                          X2        Y1        Y2        Y3
   1                    0.02410   0.00000  -0.00000  -0.00000
 Eigenvalue     2 is  -2.22D-16 should be greater than     0.000000 Eigenvector:
                          Z2        X3        Z3        X1        X2
   1                    0.64508   0.54030  -0.40676  -0.23845  -0.20307
                          Z1        Y2        Y3        Y1
   1                   -0.16852  -0.00000   0.00000   0.00000
 RFO step:  Lambda=-7.81025125D-09 EMin=-1.84978677D-09
 ClnCor:  largest displacement from symmetrization is 4.91D-16 for atom     3.
 Linear search not attempted -- first point.
 ClnCor:  largest displacement from symmetrization is 2.24D-16 for atom     2.
 Variable       Old X    -DE/DX   Delta X   Delta X   Delta X     New X
                                 (Linear)    (Quad)   (Total)
    X1       -0.04589  -0.00000   0.00000  -0.00000  -0.00000  -0.04589
    Y1        0.00000   0.00000   0.00000   0.00000   0.00000   0.00000
    Z1       -0.03243  -0.00000   0.00000  -0.00000  -0.00000  -0.03243
    X2        0.03441   0.00000   0.00000   0.00000   0.00000   0.03441
    Y2       -0.00000   0.00000   0.00000   0.00000  -0.00000  -0.00000
    Z2        1.81414  -0.00000   0.00000  -0.00000  -0.00000   1.81414
    X3        1.72157   0.00000   0.00000   0.00000   0.00000   1.72157
    Y3        0.00000  -0.00000   0.00000  -0.00000  -0.00000   0.00000
    Z3       -0.57314   0.00000   0.00000   0.00000   0.00000  -0.57314
         Item               Value     Threshold  Converged?
 Maximum Force            0.000000     0.000015     YES
 RMS     Force            0.000000     0.000010     YES
 Maximum Displacement     0.000000     0.000060     YES
 RMS     Displacement     0.000000     0.000040     YES
 Predicted change in Energy=-2.486740D-17
 Optimization completed.
    -- Stationary point found.
 Largest change from initial coordinates is atom    1       0.018 Angstoms.
 GradGradGradGradGradGradGradGradGradGradGradGradGradGradGradGradGradGrad

 Leave Link  103 at Thu Dec  2 10:10:05 2021, MaxMem=   104857600 cpu:               0.0 elap:               0.0
 (Enter /home/emanuele/chemical_software//g16/l202.exe)
                          Input orientation:                          
 ---------------------------------------------------------------------
 Center     Atomic      Atomic             Coordinates (Angstroms)
 Number     Number       Type             X           Y           Z
 ---------------------------------------------------------------------
      1          8    20001021       -0.024285    0.000000   -0.017163
      2          1    20001030        0.018208   -0.000000    0.960000
      3          1    20001030        0.911014    0.000000   -0.303291
 ---------------------------------------------------------------------
                    Distance matrix (angstroms):
                    1          2          3
     1  O    0.000000
     2  H    0.978087   0.000000
     3  H    0.978087   1.546935   0.000000
 Stoichiometry    H2O
 Framework group  C2V[C2(O),SGV(H2)]
 Deg. of freedom     2
 Full point group                 C2V     NOp   4
 RotChk:  IX=0 Diff= 6.97D-16
 Largest Abelian subgroup         C2V     NOp   4
 Largest concise Abelian subgroup C2      NOp   2
                         Standard orientation:                         
 ---------------------------------------------------------------------
 Center     Atomic      Atomic             Coordinates (Angstroms)
 Number     Number       Type             X           Y           Z
 ---------------------------------------------------------------------
      1          8    20001021        0.000000    0.000000    0.119733
      2          1    20001030       -0.000000    0.773467   -0.478933
      3          1    20001030       -0.000000   -0.773467   -0.478933
 ---------------------------------------------------------------------
 Rotational constants (GHZ):         787.7300428         419.1002822         273.5578286
 Leave Link  202 at Thu Dec  2 10:10:05 2021, MaxMem=   104857600 cpu:               0.0 elap:               0.0
 (Enter /home/emanuele/chemical_software//g16/l716.exe)
 Rotating derivatives to standard orientation.
 Dipole        =-0.00000000D+00 0.00000000D+00 0.00000000D+00
 Full mass-weighted force constant matrix:
 Low frequencies ---   -0.2108   -0.1853   -0.0000   -0.0000    0.0000    0.0000
 Low frequencies ---    0.1538    0.1750 2297.3498
 ******    2 imaginary frequencies (negative Signs) ****** 
 Diagonal vibrational polarizability:
        0.0000000       0.0000000       0.0000000
 Harmonic frequencies (cm**-1), IR intensities (KM/Mole), Raman scattering
 activities (A**4/AMU), depolarization ratios for plane and unpolarized
 incident light, reduced masses (AMU), force constants (mDyne/A),
 and normal coordinates:
                      1                      2                      3
                     B2                     A1                     A1
 Frequencies --     -0.0611                -0.0000              2297.3498
 Red. masses --      1.0819                 1.0459                 1.0819
 Frc consts  --      0.0000                 0.0000                 3.3642
 IR Inten    --      0.0000                 0.0000                 0.0000
  Atom  AN      X      Y      Z        X      Y      Z        X      Y      Z
     1   8    -0.00  -0.07   0.00     0.00   0.00   0.05    -0.00  -0.00  -0.07
     2   1     0.00   0.56  -0.43     0.00   0.58  -0.40     0.00   0.43   0.56
     3   1     0.00   0.56   0.43    -0.00  -0.58  -0.40     0.00  -0.43   0.56

 -------------------
 - Thermochemistry -
 -------------------
 Temperature   298.150 Kelvin.  Pressure   1.00000 Atm.
 Atom     1 has atomic number  8 and mass  15.99491
 Atom     2 has atomic number  1 and mass   1.00783
 Atom     3 has atomic number  1 and mass   1.00783
 Molecular mass:    18.01056 amu.
 Principal axes and moments of inertia in atomic units:
                           1         2         3
     Eigenvalues --     2.29107   4.30623   6.59729
           X            0.00000   0.00000   1.00000
           Y            1.00000  -0.00000  -0.00000
           Z            0.00000   1.00000  -0.00000
 This molecule is an asymmetric top.
 Rotational symmetry number  2.
 Rotational temperatures (Kelvin)     37.80508    20.11364    13.12871
 Rotational constants (GHZ):         787.73004   419.10028   273.55783
    2 imaginary frequencies ignored.
 Zero-point vibrational energy      13741.2 (Joules/Mol)
                                    3.28423 (Kcal/Mol)
 Vibrational temperatures:   3305.37
          (Kelvin)
 
 Zero-point correction=                           0.005234 (Hartree/Particle)
 Thermal correction to Energy=                    0.008066
 Thermal correction to Enthalpy=                  0.009011
 Thermal correction to Gibbs Free Energy=        -0.012457
 Sum of electronic and zero-point Energies=              0.005234
 Sum of electronic and thermal Energies=                 0.008066
 Sum of electronic and thermal Enthalpies=               0.009011
 Sum of electronic and thermal Free Energies=           -0.012457
 
                     E (Thermal)             CV                S
                      KCal/Mol        Cal/Mol-Kelvin    Cal/Mol-Kelvin
 Total                    5.062              5.965             45.183
 Electronic               0.000              0.000              0.000
 Translational            0.889              2.981             34.608
 Rotational               0.889              2.981             10.574
 Vibrational              3.284              0.004              0.000
                       Q            Log10(Q)             Ln(Q)
 Total Bot       0.536985D+06          5.729962         13.193726
 Total V=0       0.137188D+09          8.137317         18.736865
 Vib (Bot)       0.391428D-02         -2.407348         -5.543124
 Vib (V=0)       0.100002D+01          0.000007          0.000015
 Electronic      0.100000D+01          0.000000          0.000000
 Translational   0.300431D+07          6.477745         14.915559
 Rotational      0.456631D+02          1.659566          3.821291
 ***** Axes restored to original set *****
 -------------------------------------------------------------------
 Center     Atomic                   Forces (Hartrees/Bohr)
 Number     Number              X              Y              Z
 -------------------------------------------------------------------
      1        8          -0.000000003    0.000000000   -0.000000002
      2        1           0.000000002    0.000000000   -0.000000000
      3        1           0.000000001   -0.000000000    0.000000002
 -------------------------------------------------------------------
 Cartesian Forces:  Max     0.000000003 RMS     0.000000002
 Force constants in Cartesian coordinates: 
                1             2             3             4             5 
      1  0.155636D+00
      2  0.000000D+00  0.000000D+00
      3  0.109993D+00  0.000000D+00  0.777350D-01
      4 -0.120385D+00  0.000000D+00 -0.850799D-01  0.931187D-01
      5  0.000000D+00  0.000000D+00  0.000000D+00  0.000000D+00  0.000000D+00
      6  0.523508D-02  0.000000D+00  0.369979D-02 -0.404936D-02  0.000000D+00
      7 -0.352506D-01  0.000000D+00 -0.249127D-01  0.272666D-01  0.000000D+00
      8  0.000000D+00  0.000000D+00  0.000000D+00  0.000000D+00  0.000000D+00
      9 -0.115228D+00  0.000000D+00 -0.814348D-01  0.891292D-01  0.000000D+00
                6             7             8             9 
      6  0.176091D-03
      7 -0.118572D-02  0.798406D-02
      8  0.000000D+00  0.000000D+00  0.000000D+00
      9 -0.387588D-02  0.260984D-01  0.000000D+00  0.853107D-01
 Force constants in internal coordinates: 
 Leave Link  716 at Thu Dec  2 10:10:05 2021, MaxMem=   104857600 cpu:               0.0 elap:               0.0
 (Enter /home/emanuele/chemical_software//g16/l9999.exe)
 B after Tr=     0.032125   -0.000000    0.022704
         Rot=    1.000000    0.000000    0.000000   -0.000000 Ang=   0.00 deg.
 Final structure in terms of initial Z-matrix:
 O
 H,1,B1
 H,1,B2,2,A1
      Variables:
 B1=0.97808672
 B2=0.97808672
 A1=104.52000072
 Unable to Open any file for archive entry.
 1\1\GINC-EMANUELE-SNS\Freq\AMBER\ZDO\H2O1\EMANUELE\02-Dec-2021\0\\#p o
 pt=(calcall,tight,maxstep=7,maxcycles=100) freq amber=softfirst geom=c
 onnectivity\\Title Card Required\\0,1\O,-0.0242854028,0.,-0.0171632259
 \H,0.0182075859,0.,0.96\H,0.9110136498,0.,-0.3032913552\\Version=ES64L
 -G16RevC.01\HF=0.\RMSD=0.000e+00\RMSF=1.523e-09\ZeroPoint=0.0052337\Th
 ermal=0.0080665\ETot=0.0080665\HTot=0.0090106\GTot=-0.0124573\Dipole=0
 .,0.,0.\PG=C02V [C2(O1),SGV(H2)]\NImag=2\\0.15563583,0.,0.,0.10999253,
 0.,0.07773503,-0.12038522,0.,-0.08507986,0.09311867,0.,0.,0.,0.,0.,0.0
 0523508,0.,0.00369979,-0.00404936,0.,0.00017609,-0.03525061,0.,-0.0249
 1267,0.02726655,0.,-0.00118572,0.00798406,0.,0.,0.,0.,0.,0.,0.,0.,-0.1
 1522761,0.,-0.08143482,0.08912923,0.,-0.00387588,0.02609838,0.,0.08531
 070\\0.,0.,0.,0.,0.,0.,0.,0.,0.\\\@
 The archive entry for this job was punched.


 WE STILL HAVE JUDGEMENT HERE,
 THAT WE TEACH BUT BLOODY INSTRUCTIONS,
 WHICH, BEING TAUGHT,
 RETURN TO PLAGUE THE INVENTOR.
           MACBETH ACT I, SCENE VII
 Leave Link 9999 at Thu Dec  2 10:10:05 2021, MaxMem=   104857600 cpu:               0.1 elap:               0.0
 Job cpu time:       0 days  0 hours  0 minutes  0.7 seconds.
 Elapsed time:       0 days  0 hours  0 minutes  0.4 seconds.
 File lengths (MBytes):  RWF=      6 Int=      0 D2E=      0 Chk=      1 Scr=      1
 Normal termination of Gaussian 16 at Thu Dec  2 10:10:05 2021.
 (Enter /home/emanuele/chemical_software//g16/l1.exe)
 Link1:  Proceeding to internal job step number  2.
 --------------------------------------------------------------
 #P Geom=AllCheck Guess=TCheck SCRF=Check GenChk AMBER/ZDO Freq
 --------------------------------------------------------------
 1/6=100,7=10,8=7,10=4,18=10,29=7,30=1,38=1,40=1,56=2,64=203/1,3;
 2/12=2,40=1/2;
 3/5=30,11=9,14=-4,25=1,30=1,41=10300000,43=2,70=40000002,71=2,116=-2,140=1/1;
 4/20=11,22=2,24=3,68=10/2;
 7/8=1,25=1,44=-1/16;
 1/6=100,7=10,8=7,10=4,18=10,30=1,64=203/3;
 99//99;
 Leave Link    1 at Thu Dec  2 10:10:05 2021, MaxMem=   104857600 cpu:               0.0 elap:               0.0
 (Enter /home/emanuele/chemical_software//g16/l101.exe)
 MM symbol table in CpMMST:
 There are    4 entries in the MM symbol table.
 Symbol    1 IAtTpT=           0 IUser=           0 String=*
 Symbol    2 IAtTpT=    20001021 IUser=           0 String=OW
 Symbol    3 IAtTpT=    20001030 IUser=           0 String=HW
 Symbol    4 IAtTpT=    20001024 IUser=           0 String=O
 Structure from the checkpoint file:  "nb_zmat.chk"
 -------------------
 Title Card Required
 -------------------
 Charge =  0 Multiplicity = 1
 Redundant internal coordinates found in file.  (old form).
 O,0,-0.0242854028,0.,-0.0171632259
 H,0,0.0182075859,0.,0.96
 H,0,0.9110136498,0.,-0.3032913552
 Recover connectivity data from disk.
 ITRead=  0  0  0
 MicOpt= -1 -1 -1
 NAtoms=      3 NQM=        3 NQMF=       0 NMMI=      0 NMMIF=      0
                NMic=       0 NMicF=      0.
                    Isotopes and Nuclear Properties:
 (Nuclear quadrupole moments (NQMom) in fm**2, nuclear magnetic moments (NMagM)
  in nuclear magnetons)

  Atom         1           2           3
 IAtWgt=          16           1           1
 AtmWgt=  15.9949146   1.0078250   1.0078250
 NucSpn=           0           1           1
 AtZEff=   6.0000000   1.0000000   1.0000000
 NQMom=    0.0000000   0.0000000   0.0000000
 NMagM=    0.0000000   2.7928460   2.7928460
 AtZNuc=   8.0000000   1.0000000   1.0000000
 Generating MM parameters.
 Retrieving read-in MM parameters from chk file.
 Include all MM classes

 MM sanity checks:
 All charges sum to:                0.00000000
 Charges of atoms sum to:           0.00000000
 MMInit generated parameter data with length LenPar=         541.
 Leave Link  101 at Thu Dec  2 10:10:05 2021, MaxMem=   104857600 cpu:               0.3 elap:               0.1
 (Enter /home/emanuele/chemical_software//g16/l103.exe)

 GradGradGradGradGradGradGradGradGradGradGradGradGradGradGradGradGradGrad
 Berny optimization.
 Initialization pass.
 Trust Radius=7.00D-02 FncErr=1.00D-07 GrdErr=1.00D-07 EigMax=2.50D+02 EigMin=1.00D-04
 Number of steps in this run=      2 maximum allowed number of steps=      2.
 GradGradGradGradGradGradGradGradGradGradGradGradGradGradGradGradGradGrad

 Leave Link  103 at Thu Dec  2 10:10:05 2021, MaxMem=   104857600 cpu:               0.0 elap:               0.0
 (Enter /home/emanuele/chemical_software//g16/l202.exe)
                          Input orientation:                          
 ---------------------------------------------------------------------
 Center     Atomic      Atomic             Coordinates (Angstroms)
 Number     Number       Type             X           Y           Z
 ---------------------------------------------------------------------
      1          8    20001021       -0.024285    0.000000   -0.017163
      2          1    20001030        0.018208   -0.000000    0.960000
      3          1    20001030        0.911014    0.000000   -0.303291
 ---------------------------------------------------------------------
                    Distance matrix (angstroms):
                    1          2          3
     1  O    0.000000
     2  H    0.978087   0.000000
     3  H    0.978087   1.546935   0.000000
 Stoichiometry    H2O
 Framework group  C2V[C2(O),SGV(H2)]
 Deg. of freedom     2
 Full point group                 C2V     NOp   4
 RotChk:  IX=0 Diff= 1.68D-15
 Largest Abelian subgroup         C2V     NOp   4
 Largest concise Abelian subgroup C2      NOp   2
                         Standard orientation:                         
 ---------------------------------------------------------------------
 Center     Atomic      Atomic             Coordinates (Angstroms)
 Number     Number       Type             X           Y           Z
 ---------------------------------------------------------------------
      1          8    20001021        0.000000    0.000000    0.119733
      2          1    20001030        0.000000    0.773467   -0.478933
      3          1    20001030       -0.000000   -0.773467   -0.478933
 ---------------------------------------------------------------------
 Rotational constants (GHZ):         787.7300428         419.1002822         273.5578286
 Leave Link  202 at Thu Dec  2 10:10:05 2021, MaxMem=   104857600 cpu:               0.0 elap:               0.0
 (Enter /home/emanuele/chemical_software//g16/l301.exe)
 Standard basis: Dummy (5D, 7F)
 There are     2 symmetry adapted cartesian basis functions of A1  symmetry.
 There are     0 symmetry adapted cartesian basis functions of A2  symmetry.
 There are     0 symmetry adapted cartesian basis functions of B1  symmetry.
 There are     1 symmetry adapted cartesian basis functions of B2  symmetry.
 There are     2 symmetry adapted basis functions of A1  symmetry.
 There are     0 symmetry adapted basis functions of A2  symmetry.
 There are     0 symmetry adapted basis functions of B1  symmetry.
 There are     1 symmetry adapted basis functions of B2  symmetry.
     3 basis functions,     3 primitive gaussians,     3 cartesian basis functions
     2 alpha electrons        2 beta electrons
       nuclear repulsion energy         2.5062131872 Hartrees.
 IExCor=    0 DFT=F Ex=HF Corr=None ExCW=0 ScaHFX=  1.000000
 ScaDFX=  1.000000  1.000000  1.000000  1.000000 ScalE2=  1.000000  1.000000
 IRadAn=      5 IRanWt=     -1 IRanGd=            0 ICorTp=0 IEmpDi=  4
 NAtoms=    3 NActive=    3 NUniq=    2 SFac= 2.25D+00 NAtFMM=   60 NAOKFM=F Big=F
 Integral buffers will be    131072 words long.
 Raffenetti 1 integral format.
 Two-electron integral symmetry is turned on.
 Leave Link  301 at Thu Dec  2 10:10:05 2021, MaxMem=   104857600 cpu:               0.0 elap:               0.0
 (Enter /home/emanuele/chemical_software//g16/l402.exe)
 AMBER calculation of energy, first and second derivatives.
 Energy per function type:
 Direct Coulomb + vdW (small)                           0.000000000
 Direct Coulomb (large)                                 0.000000000
 Direct vdW (large)                                     0.000000000
 Non-direct Coulomb + vdW (small)                       0.000000000
 Non-direct Coulomb (large)                             0.000000000
 Non-direct vdW (large)                                 0.000000000
 Energy per function class:
        Coulomb               0.000000000
    Vanderwaals               0.000000000
        Bending               0.000000000
 Energy=    2.486738748E-17 NIter=   0.
 Dipole moment=       0.000000       0.000000       0.000000
 Leave Link  402 at Thu Dec  2 10:10:05 2021, MaxMem=   104857600 cpu:               0.0 elap:               0.0
 (Enter /home/emanuele/chemical_software//g16/l716.exe)
 Dipole        = 0.00000000D+00 0.00000000D+00 0.00000000D+00
 Full mass-weighted force constant matrix:
 Low frequencies ---   -0.2108   -0.1853   -0.0000   -0.0000    0.0000    0.0000
 Low frequencies ---    0.1538    0.1750 2297.3498
 ******    2 imaginary frequencies (negative Signs) ****** 
 Diagonal vibrational polarizability:
        0.0000000       0.0000000       0.0000000
 Harmonic frequencies (cm**-1), IR intensities (KM/Mole), Raman scattering
 activities (A**4/AMU), depolarization ratios for plane and unpolarized
 incident light, reduced masses (AMU), force constants (mDyne/A),
 and normal coordinates:
                      1                      2                      3
                     B2                     A1                     A1
 Frequencies --     -0.0611                -0.0000              2297.3498
 Red. masses --      1.0819                 1.0459                 1.0819
 Frc consts  --      0.0000                 0.0000                 3.3642
 IR Inten    --      0.0000                 0.0000                 0.0000
  Atom  AN      X      Y      Z        X      Y      Z        X      Y      Z
     1   8    -0.00  -0.07   0.00     0.00   0.00   0.05    -0.00  -0.00  -0.07
     2   1     0.00   0.56  -0.43     0.00   0.58  -0.40     0.00   0.43   0.56
     3   1     0.00   0.56   0.43    -0.00  -0.58  -0.40     0.00  -0.43   0.56

 -------------------
 - Thermochemistry -
 -------------------
 Temperature   298.150 Kelvin.  Pressure   1.00000 Atm.
 Atom     1 has atomic number  8 and mass  15.99491
 Atom     2 has atomic number  1 and mass   1.00783
 Atom     3 has atomic number  1 and mass   1.00783
 Molecular mass:    18.01056 amu.
 Principal axes and moments of inertia in atomic units:
                           1         2         3
     Eigenvalues --     2.29107   4.30623   6.59729
           X           -0.00000   0.00000   1.00000
           Y            1.00000   0.00000   0.00000
           Z           -0.00000   1.00000  -0.00000
 This molecule is an asymmetric top.
 Rotational symmetry number  2.
 Rotational temperatures (Kelvin)     37.80508    20.11364    13.12871
 Rotational constants (GHZ):         787.73004   419.10028   273.55783
    2 imaginary frequencies ignored.
 Zero-point vibrational energy      13741.2 (Joules/Mol)
                                    3.28423 (Kcal/Mol)
 Vibrational temperatures:   3305.37
          (Kelvin)
 
 Zero-point correction=                           0.005234 (Hartree/Particle)
 Thermal correction to Energy=                    0.008066
 Thermal correction to Enthalpy=                  0.009011
 Thermal correction to Gibbs Free Energy=        -0.012457
 Sum of electronic and zero-point Energies=              0.005234
 Sum of electronic and thermal Energies=                 0.008066
 Sum of electronic and thermal Enthalpies=               0.009011
 Sum of electronic and thermal Free Energies=           -0.012457
 
                     E (Thermal)             CV                S
                      KCal/Mol        Cal/Mol-Kelvin    Cal/Mol-Kelvin
 Total                    5.062              5.965             45.183
 Electronic               0.000              0.000              0.000
 Translational            0.889              2.981             34.608
 Rotational               0.889              2.981             10.574
 Vibrational              3.284              0.004              0.000
                       Q            Log10(Q)             Ln(Q)
 Total Bot       0.536985D+06          5.729962         13.193726
 Total V=0       0.137188D+09          8.137317         18.736865
 Vib (Bot)       0.391428D-02         -2.407348         -5.543124
 Vib (V=0)       0.100002D+01          0.000007          0.000015
 Electronic      0.100000D+01          0.000000          0.000000
 Translational   0.300431D+07          6.477745         14.915559
 Rotational      0.456631D+02          1.659566          3.821291
 ***** Axes restored to original set *****
 -------------------------------------------------------------------
 Center     Atomic                   Forces (Hartrees/Bohr)
 Number     Number              X              Y              Z
 -------------------------------------------------------------------
      1        8          -0.000000003    0.000000000   -0.000000002
      2        1           0.000000002   -0.000000000   -0.000000000
      3        1           0.000000001   -0.000000000    0.000000002
 -------------------------------------------------------------------
 Cartesian Forces:  Max     0.000000003 RMS     0.000000002
 Z-matrix is all fixed cartesians, so copy forces.
 Force constants in Cartesian coordinates: 
                1             2             3             4             5 
      1  0.155636D+00
      2  0.000000D+00  0.000000D+00
      3  0.109993D+00  0.000000D+00  0.777350D-01
      4 -0.120385D+00  0.000000D+00 -0.850799D-01  0.931187D-01
      5  0.000000D+00  0.000000D+00  0.000000D+00  0.000000D+00  0.000000D+00
      6  0.523508D-02  0.000000D+00  0.369979D-02 -0.404936D-02  0.000000D+00
      7 -0.352506D-01  0.000000D+00 -0.249127D-01  0.272666D-01  0.000000D+00
      8  0.000000D+00  0.000000D+00  0.000000D+00  0.000000D+00  0.000000D+00
      9 -0.115228D+00  0.000000D+00 -0.814348D-01  0.891292D-01  0.000000D+00
                6             7             8             9 
      6  0.176091D-03
      7 -0.118572D-02  0.798406D-02
      8  0.000000D+00  0.000000D+00  0.000000D+00
      9 -0.387588D-02  0.260984D-01  0.000000D+00  0.853107D-01
 Leave Link  716 at Thu Dec  2 10:10:05 2021, MaxMem=   104857600 cpu:               0.0 elap:               0.0
 (Enter /home/emanuele/chemical_software//g16/l103.exe)

 GradGradGradGradGradGradGradGradGradGradGradGradGradGradGradGradGradGrad
 Berny optimization.
 Search for a local minimum.
 Step number   1 out of a maximum of    2
 All quantities printed in internal units (Hartrees-Bohrs-Radians)
 Second derivative matrix not updated -- analytic derivatives used.
 The second derivative matrix:
                          X1        Y1        Z1        X2        Y2
           X1           0.15564
           Y1          -0.00000  -0.00000
           Z1           0.10999  -0.00000   0.07774
           X2          -0.12039   0.00000  -0.08508   0.09312
           Y2           0.00000   0.00000   0.00000  -0.00000  -0.00000
           Z2           0.00524  -0.00000   0.00370  -0.00405   0.00000
           X3          -0.03525   0.00000  -0.02491   0.02727  -0.00000
           Y3           0.00000   0.00000   0.00000  -0.00000  -0.00000
           Z3          -0.11523   0.00000  -0.08143   0.08913  -0.00000
                          Z2        X3        Y3        Z3
           Z2           0.00018
           X3          -0.00119   0.00798
           Y3           0.00000  -0.00000  -0.00000
           Z3          -0.00388   0.02610  -0.00000   0.08531
 ITU=  0
     Eigenvalues ---   -0.00000   0.00000   0.40995
 Eigenvalue     1 is  -1.85D-09 should be greater than     0.000000 Eigenvector:
                          Z2        X3        Z1        X1        Z3
   1                    0.55412  -0.53038  -0.50655   0.35799   0.16225
                          X2        Y2        Y1        Y3
   1                    0.02410  -0.00000   0.00000  -0.00000
 Angle between quadratic step and forces=  90.00 degrees.
 ClnCor:  largest displacement from symmetrization is 7.54D-13 for atom     3.
 Linear search not attempted -- first point.
 ClnCor:  largest displacement from symmetrization is 4.58D-16 for atom     3.
 B after Tr=     0.000001   -0.000000    0.000001
         Rot=    1.000000    0.000000   -0.000000   -0.000000 Ang=   0.00 deg.
 Variable       Old X    -DE/DX   Delta X   Delta X   Delta X     New X
                                 (Linear)    (Quad)   (Total)
    X1       -0.04589  -0.00000   0.00000   0.00001   0.00001  -0.04589
    Y1        0.00000   0.00000   0.00000  -0.00000  -0.00000   0.00000
    Z1       -0.03243  -0.00000   0.00000   0.00000   0.00000  -0.03243
    X2        0.03441   0.00000   0.00000   0.00000   0.00001   0.03441
    Y2       -0.00000  -0.00000   0.00000   0.00000   0.00000  -0.00000
    Z2        1.81414  -0.00000   0.00000  -0.00001  -0.00001   1.81412
    X3        1.72157   0.00000   0.00000  -0.00001  -0.00001   1.72156
    Y3        0.00000  -0.00000   0.00000  -0.00000  -0.00000   0.00000
    Z3       -0.57314   0.00000   0.00000   0.00001   0.00001  -0.57313
         Item               Value     Threshold  Converged?
 Maximum Force            0.000000     0.000015     YES
 RMS     Force            0.000000     0.000010     YES
 Maximum Displacement     0.000014     0.000060     YES
 RMS     Displacement     0.000007     0.000040     YES
 Predicted change in Energy=-2.486787D-17
 Optimization completed.
    -- Stationary point found.
 GradGradGradGradGradGradGradGradGradGradGradGradGradGradGradGradGradGrad

 Leave Link  103 at Thu Dec  2 10:10:05 2021, MaxMem=   104857600 cpu:               0.0 elap:               0.0
 (Enter /home/emanuele/chemical_software//g16/l9999.exe)
 Unable to Open any file for archive entry.
 1\1\GINC-EMANUELE-SNS\Freq\AMBER\ZDO\H2O1\EMANUELE\02-Dec-2021\0\\#P G
 eom=AllCheck Guess=TCheck SCRF=Check GenChk AMBER/ZDO Freq\\Title Card
  Required\\0,1\O,-0.0242854028,0.,-0.0171632259\H,0.0182075859,0.,0.96
 \H,0.9110136498,0.,-0.3032913552\\Version=ES64L-G16RevC.01\HF=0.\RMSD=
 0.000e+00\RMSF=1.523e-09\ZeroPoint=0.0052337\Thermal=0.0080665\ETot=0.
 0080665\HTot=0.0090106\GTot=-0.0124573\Dipole=0.,0.,0.\PG=C02V [C2(O1)
 ,SGV(H2)]\NImag=2\\0.15563583,0.,0.,0.10999253,0.,0.07773503,-0.120385
 22,0.,-0.08507986,0.09311867,0.,0.,0.,0.,0.,0.00523508,0.,0.00369979,-
 0.00404936,0.,0.00017609,-0.03525061,0.,-0.02491267,0.02726655,0.,-0.0
 0118572,0.00798406,0.,0.,0.,0.,0.,0.,0.,0.,-0.11522761,0.,-0.08143482,
 0.08912923,0.,-0.00387588,0.02609838,0.,0.08531070\\0.,0.,0.,0.,0.,0.,
 0.,0.,0.\\\@
 The archive entry for this job was punched.


 WE STILL HAVE JUDGEMENT HERE,
 THAT WE TEACH BUT BLOODY INSTRUCTIONS,
 WHICH, BEING TAUGHT,
 RETURN TO PLAGUE THE INVENTOR.
           MACBETH ACT I, SCENE VII
 Job cpu time:       0 days  0 hours  0 minutes  0.6 seconds.
 Elapsed time:       0 days  0 hours  0 minutes  0.3 seconds.
 File lengths (MBytes):  RWF=      6 Int=      0 D2E=      0 Chk=      1 Scr=      1
 Normal termination of Gaussian 16 at Thu Dec  2 10:10:05 2021.
