Title Card Required                                                     
Freq      AMBER                                                       ZDO                 
Number of atoms                            I                3
Info1-9                                    I   N=           9
          26          24        1002           0           0         100
           6           8        1101
Full Title                                 C   N=           2
Title Card Required     
Route                                      C   N=           8
#p opt=(calcall,tight,maxstep=7,maxcycles=100) freq amber=so
ftfirst geom=connectivity           
Charge                                     I                0
Multiplicity                               I                1
Number of electrons                        I                4
Number of alpha electrons                  I                2
Number of beta electrons                   I                2
Number of basis functions                  I                0
Number of independent functions            I                0
Number of point charges in /Mol/           I                0
Number of translation vectors              I                0
Atomic numbers                             I   N=           3
           8           1           1
Nuclear charges                            R   N=           3
  2.00000000E+00  1.00000000E+00  1.00000000E+00
Current cartesian coordinates              R   N=           9
  7.39557099E-32  0.00000000E+00  2.26263182E-01  0.00000000E+00  1.46164169E+00
 -9.05052728E-01 -1.78999481E-16 -1.46164169E+00 -9.05052728E-01
Number of symbols in /Mol/                 I                0
Int Atom Types                             I   N=           3
    20001021    20001030    20001030
Force Field                                I                2
Atom Types                                 C   N=           3
AMB-OW      AMB-HW      AMB-HW      
MM charges                                 R   N=           3
  0.00000000E+00  0.00000000E+00  0.00000000E+00
Integer atomic weights                     I   N=           3
          16           1           1
Real atomic weights                        R   N=           3
  1.59949146E+01  1.00782504E+00  1.00782504E+00
Atom fragment info                         I   N=           3
           0           0           0
Atom residue num                           I   N=           3
           0           0           0
Nuclear spins                              I   N=           3
           0           1           1
Nuclear ZEff                               R   N=           3
 -6.00000000E+00 -1.00000000E+00 -1.00000000E+00
Nuclear ZNuc                               R   N=           3
  8.00000000E+00  1.00000000E+00  1.00000000E+00
Nuclear QMom                               R   N=           3
  0.00000000E+00  0.00000000E+00  0.00000000E+00
Nuclear GFac                               R   N=           3
  0.00000000E+00  2.79284600E+00  2.79284600E+00
MicOpt                                     I   N=           3
          -1          -1          -1
Number of residues                         I                0
Number of secondary structures             I                0
SymInf integers                            I   N=          26
           2           4           1           1           1          -1
          -1           1          -1           1           1           1
          -1           1           0           0           0           0
           0           0           0           0           0           0
           0           0
RotTr to input orientation                 R   N=          12
 -3.45960495E-16 -1.00000000E+00 -9.45166420E-16 -5.77145192E-01 -5.72192738E-16
  8.16641554E-01 -8.16641554E-01  8.28023971E-16 -5.77145192E-01  1.38883156E-01
  3.67259755E-17  9.81529111E-02
Number of contracted shells                I                3
Number of primitive shells                 I                3
Pure/Cartesian d shells                    I                0
Pure/Cartesian f shells                    I                0
Highest angular momentum                   I                0
Largest degree of contraction              I                1
Shell types                                I   N=           3
           0           0           0
Number of primitives per shell             I   N=           3
           1           1           1
Shell to atom map                          I   N=           3
           1           2           3
Primitive exponents                        R   N=           3
  1.00000000E+00  1.00000000E+00  1.00000000E+00
Contraction coefficients                   R   N=           3
  1.00000000E+00  1.00000000E+00  1.00000000E+00
Coordinates of each shell                  R   N=           9
  1.67334542E-32  6.28006485E-18  2.26263182E-01  0.00000000E+00  1.46164169E+00
 -9.05052728E-01 -1.78999481E-16 -1.46164169E+00 -9.05052728E-01
Num ILSW                                   I              100
ILSW                                       I   N=         100
           0           0           0           0           0           0
           0           0           0           0           0          -1
           5           0           0           0           2           0
           0           0           0           0           1           0
           1           0           0           0           0           0
           0           0      100000           0          -1           0
           0           0           0           0           0           0
           0           0           0         104           0           0
           0 -2000000000           1           0           0           0
           0           0           4          52           0           0
           0           0           0           0           0           0
           0           0           0           3           0           1
           0           0           0           0           0           0
           0           0           0           0           0           0
           0           0           0           0           0           0
           0           0           0           0           0           0
           0           0           0           0
Num RLSW                                   I               52
RLSW                                       R   N=          52
  1.00000000E+00  1.00000000E+00  1.00000000E+00  1.00000000E+00  1.00000000E+00
  0.00000000E+00  0.00000000E+00  1.00000000E+00  0.00000000E+00  0.00000000E+00
  0.00000000E+00  0.00000000E+00  1.00000000E+00  0.00000000E+00  0.00000000E+00
  0.00000000E+00  0.00000000E+00  1.00000000E+00  0.00000000E+00  0.00000000E+00
  0.00000000E+00  0.00000000E+00  1.00000000E+00  0.00000000E+00  0.00000000E+00
  0.00000000E+00  0.00000000E+00  1.00000000E+00  0.00000000E+00  0.00000000E+00
  0.00000000E+00  0.00000000E+00  1.00000000E+00  0.00000000E+00  0.00000000E+00
  0.00000000E+00  0.00000000E+00  0.00000000E+00  1.00000000E+00  1.00000000E+00
  0.00000000E+00  1.00000000E+00  0.00000000E+00  0.00000000E+00  0.00000000E+00
  0.00000000E+00  0.00000000E+00  0.00000000E+00  0.00000000E+00  0.00000000E+00
  0.00000000E+00  0.00000000E+00
MxBond                                     I                2
NBond                                      I   N=           3
           2           1           1
IBond                                      I   N=           6
           2           3           1           0           1           0
RBond                                      R   N=           6
  1.00000000E+00  1.00000000E+00  1.00000000E+00  0.00000000E+00  1.00000000E+00
  0.00000000E+00
Virial Ratio                               R      0.000000000000000E+00
SCF Energy                                 R      2.486738748030250E-17
Total Energy                               R      2.486738748030250E-17
RMS Force                                  R      1.523396612076086E-09
NImag                                      I                2
Job Status                                 I                1
Nuclear derivative order                   I                2
Thermal Energy                             R      8.066462771207966E-03
Thermal Enthalpy                           R      9.010647584852337E-03
Thermal Free Energy                        R     -1.245731587232363E-02
External E-field                           R   N=          35
  0.00000000E+00  0.00000000E+00  0.00000000E+00  0.00000000E+00  0.00000000E+00
  0.00000000E+00  0.00000000E+00  0.00000000E+00  0.00000000E+00  0.00000000E+00
  0.00000000E+00  0.00000000E+00  0.00000000E+00  0.00000000E+00  0.00000000E+00
  0.00000000E+00  0.00000000E+00  0.00000000E+00  0.00000000E+00  0.00000000E+00
  0.00000000E+00  0.00000000E+00  0.00000000E+00  0.00000000E+00  0.00000000E+00
  0.00000000E+00  0.00000000E+00  0.00000000E+00  0.00000000E+00  0.00000000E+00
  0.00000000E+00  0.00000000E+00  0.00000000E+00  0.00000000E+00  0.00000000E+00
IOpCl                                      I                0
IROHF                                      I                0
Grdnt Energy                               R      2.486738748030250E-17
Grdnt NVar                                 I                0
Grdnt IGetFC                               I                4
Optimization MaxStp                        I                2
Optimization MaxJob                        I                1
Optimization Job offset                    I                0
Optimization Num results per geometry      I                2
Optimization Num geometry variables        I                9
Optimization Reference Energy              R      0.000000000000000E+00
Opt point       1 Results for each geome   R   N=           2
  2.48673875E-17  0.00000000E+00
Opt point       1 Geometries               R   N=           9
  1.67334542E-32  6.28006485E-18  2.26263182E-01  0.00000000E+00  1.46164169E+00
 -9.05052728E-01 -1.78999481E-16 -1.46164169E+00 -9.05052728E-01
Opt point       1 Gradient at each geome   R   N=           9
 -2.69520173E-25  0.00000000E+00 -3.40685299E-09  2.15492368E-25  1.31845822E-09
  1.70342650E-09  5.40278044E-26 -1.31845822E-09  1.70342650E-09
Optimization Number of geometries          I   N=           1
           1
MMPar NCPar                                I   N=          16
          -1          10           3         203           4           4
          10           6          18           6           4          95
           6           7           0           3
MMPar IPrt                                 I   N=          18
           1           1           6           6           6           3
           6           3           0           0           0           0
           0           0           0           0           0           0
MMPar ICnvrt                               I   N=           6
           0           0           0           0           0           0
MMPar ICntr                                I   N=           4
           0           0           0           0
MMPar IList                                I   N=          97
           5           0           0           0           0           0
           0           0           0           0           0           0
           0           0           0           0           0           0
           0           0           0           0           0           0
           0           0           0           0           0           0
           0           0           0           0           0           0
           0           0           0           0           0           0
           0           0           0           0           0           0
           0           0           0           0           0           0
           0           0           0           0           0           0
           0           0           0           0           0           0
           0           0           0           0           0           0
           0           0           0           0           0           0
           0           0           0           0           0           0
           0           0           0           0           0           0
           0           0           0           0           0           7
           0
MMPar AtL                                  L   N=           3
TTT
MMPar ChL                                  L   N=           3
FFF
MMPar Q                                    R   N=           3
  0.00000000E+00  0.00000000E+00  0.00000000E+00
MMPar IAType                               I   N=           6
          21          30          30           0           0           0
MMPar IAtTpT                               I   N=           4
           0    20001021    20001030    20001024
MMPar IUserT                               I   N=           4
           0           0           0           0
MMPar SymbT                                H   N=           4
*       OW      HW      O       
MMPar StepD                                I   N=          95
           0           0           0           0           0           0
           0           0           0           0           0           0
           0           0           0           0           0           0
           0           0           0           0           0           0
           0           0           0           0           0           0
           0           0           0           0           0           0
           0           0           0           0           0           0
           0           0           0           0           0           0
           0           0           0           0           0           0
           0           0           0           0           0           0
           0           0           0           0           0           0
           0           0           0           0           0           0
           0           0           0           0           0           0
           0           0           0           0           0           0
           0           0           0           0           0           0
           0           0           0           0           0
MMPar ICorL                                I   N=         100
           3           1           0           0           0           0
           0           0           0           6    20001021    20001030
           0           0           0           0           0           0
           0          10    20001030    20001024    20001030           0
           0           0           0           0           0          20
           3           1           0           0           0           0
           0           0           0           2           1           2
           0           0           0           0           0           0
           0          10           1           3           0           0
           0           0           0           0           0          10
           2           1           3           0           0           0
           0           0           0          20           2           1
           3           1           0           0           0           0
           0           3           3           2           3           1
           0           0           0           0           0           3
           3           1           3           1           0           0
           0           0           0           3
MMPar RCorL                                R   N=          60
  0.00000000E+00  0.00000000E+00  5.00000000E-01  0.00000000E+00  0.00000000E+00
  8.33000000E-01  0.00000000E+00  9.60650118E-01  0.00000000E+00  0.00000000E+00
  0.00000000E+00  0.00000000E+00  0.00000000E+00  1.04900275E+02  0.00000000E+00
  0.00000000E+00  0.00000000E+00  0.00000000E+00  0.00000000E+00  0.00000000E+00
  0.00000000E+00  0.00000000E+00  0.00000000E+00  0.00000000E+00  0.00000000E+00
  1.81536562E+00  0.00000000E+00  0.00000000E+00  0.00000000E+00  0.00000000E+00
  0.00000000E+00  1.81536562E+00  0.00000000E+00  0.00000000E+00  0.00000000E+00
  0.00000000E+00  1.59360144E-01  1.82421813E+00  0.00000000E+00  0.00000000E+00
  0.00000000E+00  0.00000000E+00 -1.00000000E+00 -1.00000000E+00  0.00000000E+00
  0.00000000E+00  0.00000000E+00  0.00000000E+00 -1.00000000E+00 -1.00000000E+00
  0.00000000E+00  0.00000000E+00  0.00000000E+00  0.00000000E+00 -1.00000000E+00
 -1.00000000E+00  0.00000000E+00  0.00000000E+00  0.00000000E+00  0.00000000E+00
MMPar Table                                R   N=          21
  0.00000000E+00  0.00000000E+00  0.00000000E+00  0.00000000E+00  0.00000000E+00
  0.00000000E+00  0.00000000E+00  0.00000000E+00  0.00000000E+00  0.00000000E+00
  0.00000000E+00  0.00000000E+00  0.00000000E+00  0.00000000E+00  0.00000000E+00
  3.34160271E+00  0.00000000E+00  0.00000000E+00  2.42227418E-04  0.00000000E+00
  0.00000000E+00
ONIOM Charges                              I   N=          16
           0           0           0           0           0           0
           0           0           0           0           0           0
           0           0           0           0
ONIOM Multiplicities                       I   N=          16
           1           0           0           0           0           0
           0           0           0           0           0           0
           0           0           0           0
Atom Layers                                I   N=           3
           1           1           1
Atom Modifiers                             I   N=           3
           0           0           0
Int Atom Modified Types                    I   N=           3
           0           0           0
Force Field                                I                0
Atom Modified Types                        C   N=           3
                                    
Link Atoms                                 I   N=           3
           0           0           0
Atom Modified MM Charges                   R   N=           3
  0.00000000E+00  0.00000000E+00  0.00000000E+00
Link Distances                             R   N=          12
  0.00000000E+00  0.00000000E+00  0.00000000E+00  0.00000000E+00  0.00000000E+00
  0.00000000E+00  0.00000000E+00  0.00000000E+00  0.00000000E+00  0.00000000E+00
  0.00000000E+00  0.00000000E+00
Cartesian Gradient                         R   N=           9
 -2.69520173E-25  0.00000000E+00 -3.40685299E-09  2.15492368E-25  1.31845822E-09
  1.70342650E-09  5.40278044E-26 -1.31845822E-09  1.70342650E-09
Cartesian Force Constants                  R   N=          45
 -3.01140730E-09  4.62312581E-26 -2.25639343E-09  1.84622456E-17  9.05668079E-18
  2.33370865E-01  1.50570365E-09 -3.83474377E-33 -1.47613180E-17 -3.01832184E-10
 -7.14492199E-18  1.12819671E-09 -9.03149421E-02  5.71265641E-18  3.49520436E-02
 -9.23112276E-18  2.92191698E-10 -1.16685432E-01  7.38065901E-18  4.51574709E-02
  5.83427167E-02  1.50570365E-09 -4.62312579E-26 -3.70092754E-18 -1.20387147E-09
  1.43226558E-18  1.85046375E-18 -3.01832184E-10  7.14492194E-18  1.12819672E-09
  9.03149421E-02 -5.71265641E-18 -3.49520447E-02 -4.51574712E-02 -1.43226554E-18
  3.49520436E-02 -9.23112280E-18 -2.92191714E-10 -1.16685432E-01  7.38065901E-18
  4.51574712E-02  5.83427156E-02  1.85046379E-18 -4.51574709E-02  5.83427167E-02
Nonadiabatic coupling                      R   N=           9
 -0.00000000E+00  0.00000000E+00  0.00000000E+00 -0.00000000E+00  0.00000000E+00
  0.00000000E+00 -0.00000000E+00  0.00000000E+00  0.00000000E+00
Dipole Moment                              R   N=           3
  0.00000000E+00  0.00000000E+00  0.00000000E+00
Number of Normal Modes                     I                3
Vib-LE2Fix                                 I               14
Vib-NDFDPol                                I                0
Vib-NumROA                                 I                0
Vib-NDim                                   I                3
Vib-NDim0                                  I                3
Vib-LFlags                                 I                8
Vib-IFlags                                 I   N=          24
           0           0           1           0           0           0
           0           0           0           0           2           0
           0           0           0           0           0           0
           3           0           0           0           0           0
Vib-AtMass                                 R   N=           3
  1.59949146E+01  1.00782504E+00  1.00782504E+00
Vib-E2                                     R   N=          42
 -6.10549292E-02 -2.62654169E-05  2.29734981E+03  1.08187621E+00  1.04591325E+00
  1.08187621E+00  2.37612475E-09  4.25122864E-16  3.36420173E+00  0.00000000E+00
  0.00000000E+00  0.00000000E+00  0.00000000E+00  0.00000000E+00  0.00000000E+00
  0.00000000E+00  0.00000000E+00  0.00000000E+00  0.00000000E+00  0.00000000E+00
  0.00000000E+00  0.00000000E+00  0.00000000E+00  0.00000000E+00  0.00000000E+00
  0.00000000E+00  0.00000000E+00  1.00000000E+02  1.00000000E+02  1.00000000E+02
  0.00000000E+00  0.00000000E+00  0.00000000E+00  0.00000000E+00  0.00000000E+00
  0.00000000E+00  0.00000000E+00  0.00000000E+00  0.00000000E+00  0.00000000E+00
  0.00000000E+00  0.00000000E+00
Vib-Modes                                  R   N=          27
 -4.30415768E-18 -7.02922304E-02  8.72505762E-10  6.90250334E-26  5.57794361E-01
 -4.31734836E-01  6.83101055E-17  5.57794341E-01  4.31734822E-01  3.98817796E-18
  1.17613476E-09  5.04123147E-02  3.98817835E-18  5.81977045E-01 -4.00040000E-01
 -6.72834565E-17 -5.81977064E-01 -4.00040015E-01 -5.56090158E-18 -1.38777878E-17
 -7.02922308E-02  7.05639052E-17  4.31734826E-01  5.57794354E-01  1.76916379E-17
 -4.31734826E-01  5.57794354E-01
ClPar MaxAn                                I              200
ClPar NIntPar                              I                4
ClPar NRealPar                             I               16
ClPar NBits                                I               30
ClPar LenBitVec                            I                1
ClPar Read BitMap                          I   N=         200
           0           0           0           0           0           0
           0           0           0           0           0           0
           0           0           0           0           0           0
           0           0           0           0           0           0
           0           0           0           0           0           0
           0           0           0           0           0           0
           0           0           0           0           0           0
           0           0           0           0           0           0
           0           0           0           0           0           0
           0           0           0           0           0           0
           0           0           0           0           0           0
           0           0           0           0           0           0
           0           0           0           0           0           0
           0           0           0           0           0           0
           0           0           0           0           0           0
           0           0           0           0           0           0
           0           0           0           0           0           0
           0           0           0           0           0           0
           0           0           0           0           0           0
           0           0           0           0           0           0
           0           0           0           0           0           0
           0           0           0           0           0           0
           0           0           0           0           0           0
           0           0           0           0           0           0
           0           0           0           0           0           0
           0           0           0           0           0           0
           0           0           0           0           0           0
           0           0           0           0           0           0
           0           0           0           0           0           0
           0           0           0           0           0           0
           0           0           0           0           0           0
           0           0           0           0           0           0
           0           0           0           0           0           0
           0           0
ClPar Default BitMap                       I   N=         200
        2016        2016        2016        2016        2016        2016
        2016        2016        2016        2016        2016        2016
        2016        2016        2016        2016        2016        2016
        2016        2016        2016        2016        2016        2016
        2016        2016        2016        2016        2016        2016
        2016        2016        2016        2016        2016        2016
        2016        2016        2016        2016        2016        2016
        2016        2016        2016        2016        2016        2016
        2016        2016        2016        2016        2016        2016
        2016        2016        2016        2016        2016        2016
        2016        2016        2016        2016        2016        2016
        2016        2016        2016        2016        2016        2016
        2016        2016        2016        2016        2016        2016
        2016        2016        2016        2016        2016        2016
        2016        2016         480         480         480         480
         480         480         480         480         480         480
         480         480         480         480         480         480
         480         480         480         480         480         480
         480         480         480         480         480         480
         480         480         480         480         480         480
         480         480         480         480         480         480
         480         480         480         480         480         480
         480         480         480         480         480         480
         480         480         480         480         480         480
         480         480         480         480         480         480
         480         480         480         480         480         480
         480         480         480         480         480         480
         480         480         480         480         480         480
         480         480         480         480         480         480
         480         480         480         480         480         480
         480         480         480         480         480         480
         480         480         480         480         480         480
         480         480         480         480         480         480
         480         480
ClPar Int Params                           I   N=         800
           0           0           0           0           0           0
           0           0           0           0           0           0
           0           0           0           0           0           0
           0           0           0           0           0           0
           0           0           0           0           0           0
           0           0           0           0           0           0
           0           0           0           0           0           0
           0           0           0           0           0           0
           0           0           0           0           0           0
           0           0           0           0           0           0
           0           0           0           0           0           0
           0           0           0           0           0           0
           0           0           0           0           0           0
           0           0           0           0           0           0
           0           0           0           0           0           0
           0           0           0           0           0           0
           0           0           0           0           0           0
           0           0           0           0           0           0
           0           0           0           0           0           0
           0           0           0           0           0           0
           0           0           0           0           0           0
           0           0           0           0           0           0
           0           0           0           0           0           0
           0           0           0           0           0           0
           0           0           0           0           0           0
           0           0           0           0           0           0
           0           0           0           0           0           0
           0           0           0           0           0           0
           0           0           0           0           0           0
           0           0           0           0           0           0
           0           0           0           0           0           0
           0           0           0           0           0           0
           0           0           0           0           0           0
           0           0           0           0           0           0
           0           0           0           0           0           0
           0           0           0           0           0           0
           0           0           0           0           0           0