Title                                                                   
Freq      RAMBER                                                      ZDO                 
Number of atoms                            I                3
Info1-9                                    I   N=           9
          14          14        1002           0           0         100
           6           8        1101
Full Title                                 C   N=           1
Title       
Route                                      C   N=           5
#p Amber=(HardFirst,Print) nosymm geom=nocrowd opt Freq     
Charge                                     I                0
Multiplicity                               I                1
Number of electrons                        I                4
Number of alpha electrons                  I                2
Number of beta electrons                   I                2
Number of basis functions                  I                0
Number of independent functions            I                0
Number of point charges in /Mol/           I                0
Number of translation vectors              I                0
Atomic numbers                             I   N=           3
           8           1           1
Nuclear charges                            R   N=           3
  2.00000000E+00  1.00000000E+00  1.00000000E+00
Current cartesian coordinates              R   N=           9
  1.35584717E-17  1.35584717E-17  2.21720528E-01  2.08538382E-16  1.43046561E+00
 -8.85412704E-01 -4.92187668E-16 -1.43046561E+00 -8.85412704E-01
Number of symbols in /Mol/                 I                0
Force Field                                I                2
Atom Types                                 C   N=           3
#200OW      #200HW      #200HW      
Int Atom Types                             I   N=           3
    20001021    20001030    20001030
MM charges                                 R   N=           3
  7.90505033-323  4.94065646-324  4.94065646-324
Integer atomic weights                     I   N=           3
           0           0           0
Real atomic weights                        R   N=           3
  0.00000000E+00  0.00000000E+00  0.00000000E+00
Atom fragment info                         I   N=           3
           0           0           0
Atom residue num                           I   N=           3
           0           0           0
Nuclear spins                              I   N=           3
           0           0           0
Nuclear ZEff                               R   N=           3
  0.00000000E+00  0.00000000E+00  0.00000000E+00
Nuclear ZNuc                               R   N=           3
  0.00000000E+00  0.00000000E+00  0.00000000E+00
Nuclear QMom                               R   N=           3
  0.00000000E+00  0.00000000E+00  0.00000000E+00
Nuclear GFac                               R   N=           3
  0.00000000E+00  0.00000000E+00  0.00000000E+00
MicOpt                                     I   N=           3
           0           0           0
Number of residues                         I                0
Number of secondary structures             I                0
Number of contracted shells                I                3
Number of primitive shells                 I                3
Pure/Cartesian d shells                    I                0
Pure/Cartesian f shells                    I                0
Highest angular momentum                   I                0
Largest degree of contraction              I                1
Shell types                                I   N=           3
           0           0           0
Number of primitives per shell             I   N=           3
           1           1           1
Shell to atom map                          I   N=           3
           1           2           3
Primitive exponents                        R   N=           3
  1.00000000E+00  1.00000000E+00  1.00000000E+00
Contraction coefficients                   R   N=           3
  1.00000000E+00  1.00000000E+00  1.00000000E+00
Coordinates of each shell                  R   N=           9
  1.35584717E-17  1.35584717E-17  2.21720528E-01  2.08538382E-16  1.43046561E+00
 -8.85412704E-01 -4.92187668E-16 -1.43046561E+00 -8.85412704E-01
Constraint Structure                       R   N=           9
  1.35584717E-17  1.35584717E-17  2.21720528E-01  2.08538382E-16  1.43046561E+00
 -8.85412704E-01 -4.92187668E-16 -1.43046561E+00 -8.85412704E-01
Num ILSW                                   I              100
ILSW                                       I   N=         100
           0           0           0           0           0           0
           0           0           0           0           0          -1
           5           0           0           0           2           0
           0           0           0           0           1           0
           1           1           0           0           0           0
           0           0      100000           0          -1           0
           0           0           0           0           0           0
           0           0           0         101           0           0
           0 -2000000000           1           0           0           0
           0           0           4          41           0           0
           0           0           0           0           0           0
           0           0           0           3           0           1
           0           0           0           0           0           0
           0           0           0           0           0           0
           0           0           0           0           0           0
           0           0           0           0           0           0
           0           0           0           0
Num RLSW                                   I               41
RLSW                                       R   N=          41
  1.00000000E+00  1.00000000E+00  1.00000000E+00  1.00000000E+00  1.00000000E+00
  0.00000000E+00  0.00000000E+00  1.00000000E+00  0.00000000E+00  0.00000000E+00
  0.00000000E+00  0.00000000E+00  1.00000000E+00  0.00000000E+00  0.00000000E+00
  0.00000000E+00  0.00000000E+00  1.00000000E+00  0.00000000E+00  0.00000000E+00
  0.00000000E+00  0.00000000E+00  1.00000000E+00  0.00000000E+00  0.00000000E+00
  0.00000000E+00  0.00000000E+00  1.00000000E+00  0.00000000E+00  0.00000000E+00
  0.00000000E+00  0.00000000E+00  1.00000000E+00  0.00000000E+00  0.00000000E+00
  0.00000000E+00  0.00000000E+00  0.00000000E+00  1.00000000E+00  1.00000000E+00
  0.00000000E+00
MxBond                                     I                2
NBond                                      I   N=           3
           2           1           1
IBond                                      I   N=           6
           2           3           1           0           1           0
RBond                                      R   N=           6
  1.00000000E+00  1.00000000E+00  1.00000000E+00  0.00000000E+00  1.00000000E+00
  0.00000000E+00
Virial Ratio                               R      0.000000000000000E+00
SCF Energy                                 R      4.372817662171593E-10
Total Energy                               R      4.372817662171593E-10
RMS Force                                  R      5.252809100119985E-06
External E-field                           R   N=         105
  0.00000000E+00  0.00000000E+00  0.00000000E+00  0.00000000E+00  0.00000000E+00
  0.00000000E+00  0.00000000E+00  0.00000000E+00  0.00000000E+00  0.00000000E+00
  0.00000000E+00  0.00000000E+00  0.00000000E+00  0.00000000E+00  0.00000000E+00
  0.00000000E+00  0.00000000E+00  0.00000000E+00  0.00000000E+00  0.00000000E+00
  0.00000000E+00  0.00000000E+00  0.00000000E+00  0.00000000E+00  0.00000000E+00
  0.00000000E+00  0.00000000E+00  0.00000000E+00  0.00000000E+00  0.00000000E+00
  0.00000000E+00  0.00000000E+00  0.00000000E+00  0.00000000E+00  0.00000000E+00
  0.00000000E+00  0.00000000E+00  0.00000000E+00  0.00000000E+00  0.00000000E+00
  0.00000000E+00  0.00000000E+00  0.00000000E+00  0.00000000E+00  0.00000000E+00
  0.00000000E+00  0.00000000E+00  0.00000000E+00  0.00000000E+00  0.00000000E+00
  0.00000000E+00  0.00000000E+00  0.00000000E+00  0.00000000E+00  0.00000000E+00
  0.00000000E+00  0.00000000E+00  0.00000000E+00  0.00000000E+00  0.00000000E+00
  0.00000000E+00  0.00000000E+00  0.00000000E+00  0.00000000E+00  0.00000000E+00
  0.00000000E+00  0.00000000E+00  0.00000000E+00  0.00000000E+00  0.00000000E+00
  0.00000000E+00  0.00000000E+00  0.00000000E+00  0.00000000E+00  0.00000000E+00
  0.00000000E+00  0.00000000E+00  0.00000000E+00  0.00000000E+00  0.00000000E+00
  0.00000000E+00  0.00000000E+00  0.00000000E+00  0.00000000E+00  0.00000000E+00
  0.00000000E+00  0.00000000E+00  0.00000000E+00  0.00000000E+00  0.00000000E+00
  0.00000000E+00  0.00000000E+00  0.00000000E+00  0.00000000E+00  0.00000000E+00
  0.00000000E+00  0.00000000E+00  0.00000000E+00  0.00000000E+00  0.00000000E+00
  0.00000000E+00  0.00000000E+00  0.00000000E+00  0.00000000E+00  0.00000000E+00
IOpCl                                      I                0
IROHF                                      I                0
Grdnt Energy                               R      4.372817662171593E-10
Grdnt NVar                                 I                0
Grdnt IGetFC                               I                4
Internal Forces                            R      5.566583425292830E-22
Internal Force Constants                   R      5.566583425292830E-22
Optimization MaxStp                        I                2
Optimization Job offset                    I                0
Optimization Num results per geometry      I                2
Optimization Num geometry variables        I                9
Opt point       1 Results for each geome   R   N=           2
  4.37281766E-10  0.00000000E+00
Opt point       1 Geometries               R   N=           9
  1.35584717E-17  1.35584717E-17  2.21720528E-01  2.08538382E-16  1.43046561E+00
 -8.85412704E-01 -4.92187668E-16 -1.43046561E+00 -8.85412704E-01
Opt point       1 Gradient at each geome   R   N=           9
 -5.56658343E-22 -8.67361738E-17 -3.96629293E-06  2.87464284E-21  1.06002550E-05
  1.98314647E-06 -2.31798450E-21 -1.06002550E-05  1.98314647E-06
Optimization Number of geometries          I   N=           1
           1
MMPar NCPar                                I   N=          16
          -1           8           3         103           4           1
          10           6          18           6           4          95
           6           7           0           1
MMPar IPrt                                 I   N=          18
           1           1           6           6           6           3
           6           3           0           0           0           0
           0           0           0           0           0           0
MMPar ICnvrt                               I   N=           6
           0           0           0           0           0           0
MMPar ICntr                                I   N=           4
           0           0           0           0
MMPar IList                                I   N=          97
           5           0           0           0           0           0
           0           0           0           0           0           0
           0           0           0           0           0           0
           0           0           0           0           0           0
           0           0           0           0           0           0
           0           0           0           0           0           0
           0           0           0           0           0           0
           0           0           0           0           0           0
           0           0           0           0           0           0
           0           0           0           0           0           0
           0           0           0           0           0           0
           0           0           0           0           0           0
           0           0           0           0           0           0
           0           0           0           0           0           0
           0           0           0           0           0           0
           0           0           0           0           0           7
           0
MMPar AtL                                  L   N=           3
TTT
MMPar ChL                                  L   N=           3
FFF
MMPar Q                                    R   N=           3
 -4.06659000E-01  2.03329000E-01  2.03329000E-01
MMPar IAType                               I   N=           6
          21          30          30           0           0           0
MMPar IAtTpT                               I   N=           1
           0
MMPar IUserT                               I   N=           1
           0
MMPar SymbT                                H   N=           1
*       
MMPar StepD                                I   N=          95
           0           0           0           0           0           0
           0           0           0           0           0           0
           0           0           0           0           0           0
           0           0           0           0           0           0
           0           0           0           0           0           0
           0           0           0           0           0           0
           0           0           0           0           0           0
           0           0           0           0           0           0
           0           0           0           0           0           0
           0           0           0           0           0           0
           0           0           0           0           0           0
           0           0           0           0           0           0
           0           0           0           0           0           0
           0           0           0           0           0           0
           0           0           0           0           0           0
           0           0           0           0           0
MMPar ICorL                                I   N=          80
           3           1           0           0           0           0
           0           0           0           6           3           1
           0           0           0           0           0           0
           0           2           1           2           0           0
           0           0           0           0           0          10
           1           3           0           0           0           0
           0           0           0          10           2           1
           3           0           0           0           0           0
           0          20           2           1           3           1
           0           0           0           0           0           3
           3           2           3           1           0           0
           0           0           0           3           3           1
           3           1           0           0           0           0
           0           3
MMPar RCorL                                R   N=          48
  0.00000000E+00  0.00000000E+00  5.00000000E-01  0.00000000E+00  0.00000000E+00
 -1.20000000E+00  0.00000000E+00  0.00000000E+00  0.00000000E+00  0.00000000E+00
  0.00000000E+00  0.00000000E+00  2.46778381E-01  1.80884585E+00  0.00000000E+00
  0.00000000E+00  0.00000000E+00  0.00000000E+00  2.46778381E-01  1.80884585E+00
  0.00000000E+00  0.00000000E+00  0.00000000E+00  0.00000000E+00  1.59360144E-01
  1.82421813E+00  0.00000000E+00  0.00000000E+00  0.00000000E+00  0.00000000E+00
 -1.00000000E+00 -1.00000000E+00  0.00000000E+00  0.00000000E+00  0.00000000E+00
  0.00000000E+00 -1.00000000E+00 -1.00000000E+00  0.00000000E+00  0.00000000E+00
  0.00000000E+00  0.00000000E+00 -1.00000000E+00 -1.00000000E+00  0.00000000E+00
  0.00000000E+00  0.00000000E+00  0.00000000E+00
MMPar Table                                R   N=          21
  0.00000000E+00  0.00000000E+00  0.00000000E+00  0.00000000E+00  0.00000000E+00
  0.00000000E+00  0.00000000E+00  0.00000000E+00  0.00000000E+00  0.00000000E+00
  0.00000000E+00  0.00000000E+00  0.00000000E+00  0.00000000E+00  0.00000000E+00
  3.34160271E+00  0.00000000E+00  0.00000000E+00  2.42227418E-04  0.00000000E+00
  0.00000000E+00
ONIOM Charges                              I   N=          16
           0           0           0           0           0           0
           0           0           0           0           0           0
           0           0           0           0
ONIOM Multiplicities                       I   N=          16
           1           0           0           0           0           0
           0           0           0           0           0           0
           0           0           0           0
Atom Layers                                I   N=           3
           1           1           1
Atom Modifiers                             I   N=           3
           0           0           0
Force Field                                I                0
Atom Modified Types                        C   N=           3
                                    
Int Atom Modified Types                    I   N=           3
           0           0           0
Link Atoms                                 I   N=           3
           0           0           0
Atom Modified MM Charges                   R   N=           3
  0.00000000E+00  0.00000000E+00  0.00000000E+00
Link Distances                             R   N=          12
  0.00000000E+00  0.00000000E+00  0.00000000E+00  0.00000000E+00  0.00000000E+00
  0.00000000E+00  0.00000000E+00  0.00000000E+00  0.00000000E+00  0.00000000E+00
  0.00000000E+00  0.00000000E+00
Cartesian Gradient                         R   N=           9
 -5.56658343E-22 -8.67361738E-17 -3.96629293E-06  2.87464284E-21  1.06002550E-05
  1.98314647E-06 -2.31798450E-21 -1.06002550E-05  1.98314647E-06
Cartesian Force Constants                  R   N=          45
 -3.58248928E-06  1.51199809E-16  6.17316486E-01  8.61002135E-17  1.19695920E-16
  6.13476253E-01  1.79124464E-06 -4.20719698E-17 -7.63432067E-18  2.80955414E-06
 -5.53062636E-17 -3.08658243E-01  1.44595920E-01  5.76257799E-17  3.45149540E-01
  1.54617277E-17  2.38892693E-01 -3.06738126E-01 -1.24639987E-17 -1.91744307E-01
  2.45820304E-01  1.79124464E-06 -1.09127839E-16 -7.84658928E-17 -4.60079878E-06
 -2.31951639E-18 -2.99772907E-18  2.80955414E-06 -9.58935456E-17 -3.08658243E-01
 -1.44595920E-01 -1.55538101E-17 -3.64912975E-02 -4.71483868E-02  1.11447356E-16
  3.45149540E-01 -1.01561941E-16 -2.38892693E-01 -3.06738126E-01  2.00983193E-17
  4.71483868E-02  6.09178225E-02  8.14636219E-17  1.91744307E-01  2.45820304E-01
Dipole Moment                              R   N=           3
 -6.31878002E-17  0.00000000E+00 -4.50224808E-01
Dipole Derivatives                         R   N=          27
 -4.06659000E-01  0.00000000E+00  0.00000000E+00  0.00000000E+00 -4.06659000E-01
  0.00000000E+00  0.00000000E+00  0.00000000E+00 -4.06659000E-01  2.03329000E-01
  0.00000000E+00  0.00000000E+00  0.00000000E+00  2.03329000E-01  0.00000000E+00
  0.00000000E+00  0.00000000E+00  2.03329000E-01  2.03329000E-01  0.00000000E+00
  0.00000000E+00  0.00000000E+00  2.03329000E-01  0.00000000E+00  0.00000000E+00
  0.00000000E+00  2.03329000E-01
Number of Normal Modes                     I                3
Vib-NDFDPol                                I                0
Vib-NumROA                                 I                0
Vib-NDim                                   I                3
Vib-NDim0                                  I                3
Vib-AtMass                                 R   N=           3
  1.59949146E+01  1.00782504E+00  1.00782504E+00
Vib-E2                                     R   N=          42
  0.00000000E+00  0.00000000E+00  4.94065646-324  0.00000000E+00  0.00000000E+00
  0.00000000E+00  0.00000000E+00  0.00000000E+00  0.00000000E+00  0.00000000E+00
  9.88131292-324  0.00000000E+00  0.00000000E+00  0.00000000E+00  0.00000000E+00
  0.00000000E+00  0.00000000E+00  0.00000000E+00  1.48219694-323  0.00000000E+00
  0.00000000E+00  0.00000000E+00  0.00000000E+00  0.00000000E+00  2.34098657E+03
  3.68540287E+03  3.73639172E+03  1.07053951E+00  1.05673174E+00  1.08187882E+00
  3.45661290E+00  8.45638787E+00  8.89884460E+00  5.03132418E+01  3.97485107E+01
  5.87876136E+01  0.00000000E+00  0.00000000E+00  0.00000000E+00  0.00000000E+00
  0.00000000E+00  0.00000000E+00
Vib-Modes                                  R   N=          27
  0.00000000E+00  0.00000000E+00  0.00000000E+00  0.00000000E+00  0.00000000E+00
  0.00000000E+00  0.00000000E+00  0.00000000E+00  0.00000000E+00  1.00000000E+02
  1.00000000E+02  1.00000000E+02  0.00000000E+00  0.00000000E+00  0.00000000E+00
  0.00000000E+00  0.00000000E+00  0.00000000E+00  0.00000000E+00  0.00000000E+00
  0.00000000E+00  0.00000000E+00  0.00000000E+00  0.00000000E+00 -9.07881531E-18
 -9.77809850E-18 -6.46882266E-02
