Title Card Required                                                     
Freq      RAMBER                                                      ZDO                 
Number of atoms                            I                3
Info1-9                                    I   N=           9
          16          16           0           0           0         100
           6           8        1101
Full Title                                 C   N=           2
Title Card Required     
Route                                      C   N=           5
#P Amber=(HardFirst,Print) Geom=Connectivity Freq=intmodes  
Charge                                     I                0
Multiplicity                               I                1
Number of electrons                        I                4
Number of alpha electrons                  I                2
Number of beta electrons                   I                2
Number of basis functions                  I                0
Number of independent functions            I                0
Number of point charges in /Mol/           I                0
Number of translation vectors              I                0
Atomic numbers                             I   N=           3
           8           1           1
Nuclear charges                            R   N=           3
  2.00000000E+00  1.00000000E+00  1.00000000E+00
Current cartesian coordinates              R   N=           9
 -1.44829932E-31  5.55111512E-16  2.09404098E-01 -1.47911420E-31  1.48149973E+00
 -8.37616390E-01 -1.81431390E-16 -1.48149973E+00 -8.37616390E-01
Number of symbols in /Mol/                 I                0
Redundant internal dimensions              I   N=           4
           3           2           1           0
Redundant internal coordinate indices      I   N=          12
           1           2           0           0           1           3
           0           0           2           1           3           0
Redundant internal coordinates             R   N=           3
  1.81413708E+00  1.81413708E+00  1.91113553E+00
ZRed-IntVec                                I   N=           3
           0           0           0
ZRed-FPVec                                 R   N=           3
  0.00000000E+00  0.00000000E+00  0.00000000E+00
ZRed-Constraint1                           R   N=           3
  1.81413708E+00  1.81413708E+00  1.91113553E+00
ZRed-Constraint2                           R   N=           3
  0.00000000E+00  0.00000000E+00  0.00000000E+00
Force Field                                I                2
Atom Types                                 C   N=           3
#200OW      #200HW      #200HW      
Int Atom Types                             I   N=           3
    20001021    20001030    20001030
MM charges                                 R   N=           3
  7.90505033-323  4.94065646-324  4.94065646-324
Integer atomic weights                     I   N=           3
           0           0           0
Real atomic weights                        R   N=           3
  0.00000000E+00  0.00000000E+00  0.00000000E+00
Atom fragment info                         I   N=           3
           0           0           0
Atom residue num                           I   N=           3
           0           0           0
Nuclear spins                              I   N=           3
           0           0           0
Nuclear ZEff                               R   N=           3
  0.00000000E+00  0.00000000E+00  0.00000000E+00
Nuclear ZNuc                               R   N=           3
  0.00000000E+00  0.00000000E+00  0.00000000E+00
Nuclear QMom                               R   N=           3
  0.00000000E+00  0.00000000E+00  0.00000000E+00
Nuclear GFac                               R   N=           3
  0.00000000E+00  0.00000000E+00  0.00000000E+00
MicOpt                                     I   N=           3
           0           0           0
Number of residues                         I                0
Number of secondary structures             I                0
Number of contracted shells                I                3
Number of primitive shells                 I                3
Pure/Cartesian d shells                    I                0
Pure/Cartesian f shells                    I                0
Highest angular momentum                   I                0
Largest degree of contraction              I                1
Shell types                                I   N=           3
           0           0           0
Number of primitives per shell             I   N=           3
           1           1           1
Shell to atom map                          I   N=           3
           1           2           3
Primitive exponents                        R   N=           3
  1.00000000E+00  1.00000000E+00  1.00000000E+00
Contraction coefficients                   R   N=           3
  1.00000000E+00  1.00000000E+00  1.00000000E+00
Coordinates of each shell                  R   N=           9
 -1.44829932E-31  5.55111512E-16  2.09404098E-01 -1.47911420E-31  1.48149973E+00
 -8.37616390E-01 -1.81431390E-16 -1.48149973E+00 -8.37616390E-01
Constraint Structure                       R   N=           9
 -1.44829932E-31  5.55111512E-16  2.09404098E-01 -1.47911420E-31  1.48149973E+00
 -8.37616390E-01 -1.81431390E-16 -1.48149973E+00 -8.37616390E-01
Num ILSW                                   I              100
ILSW                                       I   N=         100
           0           0           0           0           0           0
           0           0           0           0           0          -1
           5           0           0           0           2           0
           0           0           0           0           1           0
           1           0           0           0           0           0
           0           0      100000           0          -1           0
           0           0           0           0           0           0
           0           0           0         101           0           0
           0 -2000000000           1           0           0           0
           0           0           4          41           0           0
           0           0           0           0           0           0
           0           0           0           3           0           1
           0           0           0           0           0           0
           0           0           0           0           0           0
           0           0           0           0           0           0
           0           0           0           0           0           0
           0           0           0           0
Num RLSW                                   I               41
RLSW                                       R   N=          41
  1.00000000E+00  1.00000000E+00  1.00000000E+00  1.00000000E+00  1.00000000E+00
  0.00000000E+00  0.00000000E+00  1.00000000E+00  0.00000000E+00  0.00000000E+00
  0.00000000E+00  0.00000000E+00  1.00000000E+00  0.00000000E+00  0.00000000E+00
  0.00000000E+00  0.00000000E+00  1.00000000E+00  0.00000000E+00  0.00000000E+00
  0.00000000E+00  0.00000000E+00  1.00000000E+00  0.00000000E+00  0.00000000E+00
  0.00000000E+00  0.00000000E+00  1.00000000E+00  0.00000000E+00  0.00000000E+00
  0.00000000E+00  0.00000000E+00  1.00000000E+00  0.00000000E+00  0.00000000E+00
  0.00000000E+00  0.00000000E+00  0.00000000E+00  1.00000000E+00  1.00000000E+00
  0.00000000E+00
MxBond                                     I                2
NBond                                      I   N=           3
           2           1           1
IBond                                      I   N=           6
           2           3           1           0           1           0
RBond                                      R   N=           6
  1.00000000E+00  1.00000000E+00  1.00000000E+00  0.00000000E+00  1.00000000E+00
  0.00000000E+00
Virial Ratio                               R      0.000000000000000E+00
SCF Energy                                 R      1.217725758205414E-03
Total Energy                               R      1.217725758205414E-03
RMS Force                                  R      1.033204082566392E-02
External E-field                           R   N=         105
  0.00000000E+00  0.00000000E+00  0.00000000E+00  0.00000000E+00  0.00000000E+00
  0.00000000E+00  0.00000000E+00  0.00000000E+00  0.00000000E+00  0.00000000E+00
  0.00000000E+00  0.00000000E+00  0.00000000E+00  0.00000000E+00  0.00000000E+00
  0.00000000E+00  0.00000000E+00  0.00000000E+00  0.00000000E+00  0.00000000E+00
  0.00000000E+00  0.00000000E+00  0.00000000E+00  0.00000000E+00  0.00000000E+00
  0.00000000E+00  0.00000000E+00  0.00000000E+00  0.00000000E+00  0.00000000E+00
  0.00000000E+00  0.00000000E+00  0.00000000E+00  0.00000000E+00  0.00000000E+00
  0.00000000E+00  0.00000000E+00  0.00000000E+00  0.00000000E+00  0.00000000E+00
  0.00000000E+00  0.00000000E+00  0.00000000E+00  0.00000000E+00  0.00000000E+00
  0.00000000E+00  0.00000000E+00  0.00000000E+00  0.00000000E+00  0.00000000E+00
  0.00000000E+00  0.00000000E+00  0.00000000E+00  0.00000000E+00  0.00000000E+00
  0.00000000E+00  0.00000000E+00  0.00000000E+00  0.00000000E+00  0.00000000E+00
  0.00000000E+00  0.00000000E+00  0.00000000E+00  0.00000000E+00  0.00000000E+00
  0.00000000E+00  0.00000000E+00  0.00000000E+00  0.00000000E+00  0.00000000E+00
  0.00000000E+00  0.00000000E+00  0.00000000E+00  0.00000000E+00  0.00000000E+00
  0.00000000E+00  0.00000000E+00  0.00000000E+00  0.00000000E+00  0.00000000E+00
  0.00000000E+00  0.00000000E+00  0.00000000E+00  0.00000000E+00  0.00000000E+00
  0.00000000E+00  0.00000000E+00  0.00000000E+00  0.00000000E+00  0.00000000E+00
  0.00000000E+00  0.00000000E+00  0.00000000E+00  0.00000000E+00  0.00000000E+00
  0.00000000E+00  0.00000000E+00  0.00000000E+00  0.00000000E+00  0.00000000E+00
  0.00000000E+00  0.00000000E+00  0.00000000E+00  0.00000000E+00  0.00000000E+00
IOpCl                                      I                0
IROHF                                      I                0
Grdnt Energy                               R      1.217725758205414E-03
Grdnt NVar                                 I                3
Grdnt IGetFC                               I                4
Internal Forces                            R   N=           3
 -2.61152343E-03 -2.61152343E-03 -2.77023382E-02
Internal Force Constants                   R   N=           6
  4.93556761E-01  3.74700271E-16  4.93556761E-01 -4.99600361E-16 -5.55111512E-16
  3.18720287E-01
Optimization MaxStp                        I                2
Optimization Job offset                    I                0
Optimization Num results per geometry      I                2
Optimization Num geometry variables        I                9
Opt point       1 Results for each geome   R   N=           2
  1.21772576E-03  0.00000000E+00
Opt point       1 Geometries               R   N=           9
 -1.44829932E-31  5.55111512E-16  2.09404098E-01 -1.47911420E-31  1.48149973E+00
 -8.37616390E-01 -1.81431390E-16 -1.48149973E+00 -8.37616390E-01
Opt point       1 Gradient at each geome   R   N=           9
 -1.89972410E-18  4.38885039E-16 -2.19261954E-02  1.62010105E-18  1.09458335E-02
  1.09630977E-02  2.79623048E-19 -1.09458335E-02  1.09630977E-02
Optimization Number of geometries          I   N=           1
           1
MMPar NCPar                                I   N=          16
          -1           7           3         103           4           1
          10           6          18           6           4          95
           6           7           0           0
MMPar IPrt                                 I   N=          18
           1           1           6           6           6           3
           6           3           0           0           0           0
           0           0           0           0           0           0
MMPar ICnvrt                               I   N=           6
           0           0           0           0           0           0
MMPar ICntr                                I   N=           4
           0           0           0           0
MMPar IList                                I   N=          97
           5           0           0           0           0           0
           0           0           0           0           0           0
           0           0           0           0           0           0
           0           0           0           0           0           0
           0           0           0           0           0           0
           0           0           0           0           0           0
           0           0           0           0           0           0
           0           0           0           0           0           0
           0           0           0           0           0           0
           0           0           0           0           0           0
           0           0           0           0           0           0
           0           0           0           0           0           0
           0           0           0           0           0           0
           0           0           0           0           0           0
           0           0           0           0           0           0
           0           0           0           0           0           7
           0
MMPar AtL                                  L   N=           3
TTT
MMPar ChL                                  L   N=           3
FFF
MMPar Q                                    R   N=           3
 -4.06659000E-01  2.03329000E-01  2.03329000E-01
MMPar IAType                               I   N=           6
          21          30          30           0           0           0
MMPar IAtTpT                               I   N=           1
           0
MMPar IUserT                               I   N=           1
           0
MMPar SymbT                                H   N=           1
*       
MMPar StepD                                I   N=          95
           0           0           0           0           0           0
           0           0           0           0           0           0
           0           0           0           0           0           0
           0           0           0           0           0           0
           0           0           0           0           0           0
           0           0           0           0           0           0
           0           0           0           0           0           0
           0           0           0           0           0           0
           0           0           0           0           0           0
           0           0           0           0           0           0
           0           0           0           0           0           0
           0           0           0           0           0           0
           0           0           0           0           0           0
           0           0           0           0           0           0
           0           0           0           0           0           0
           0           0           0           0           0
MMPar ICorL                                I   N=          70
           3           1           0           0           0           0
           0           0           0           2           1           2
           0           0           0           0           0           0
           0          10           1           3           0           0
           0           0           0           0           0          10
           2           1           3           0           0           0
           0           0           0          20           2           1
           3           1           0           0           0           0
           0           3           3           2           3           1
           0           0           0           0           0           3
           3           1           3           1           0           0
           0           0           0           3
MMPar RCorL                                R   N=          42
  0.00000000E+00  0.00000000E+00  0.00000000E+00  0.00000000E+00  0.00000000E+00
  0.00000000E+00  2.46778381E-01  1.80884585E+00  0.00000000E+00  0.00000000E+00
  0.00000000E+00  0.00000000E+00  2.46778381E-01  1.80884585E+00  0.00000000E+00
  0.00000000E+00  0.00000000E+00  0.00000000E+00  1.59360144E-01  1.82421813E+00
  0.00000000E+00  0.00000000E+00  0.00000000E+00  0.00000000E+00 -1.00000000E+00
 -1.00000000E+00  0.00000000E+00  0.00000000E+00  0.00000000E+00  0.00000000E+00
 -1.00000000E+00 -1.00000000E+00  0.00000000E+00  0.00000000E+00  0.00000000E+00
  0.00000000E+00 -1.00000000E+00 -1.00000000E+00  0.00000000E+00  0.00000000E+00
  0.00000000E+00  0.00000000E+00
MMPar Table                                R   N=          21
  0.00000000E+00  0.00000000E+00  0.00000000E+00  0.00000000E+00  0.00000000E+00
  0.00000000E+00  0.00000000E+00  0.00000000E+00  0.00000000E+00  0.00000000E+00
  0.00000000E+00  0.00000000E+00  0.00000000E+00  0.00000000E+00  0.00000000E+00
  3.34160271E+00  0.00000000E+00  0.00000000E+00  2.42227418E-04  0.00000000E+00
  0.00000000E+00
ONIOM Charges                              I   N=          16
           0           0           0           0           0           0
           0           0           0           0           0           0
           0           0           0           0
ONIOM Multiplicities                       I   N=          16
           1           0           0           0           0           0
           0           0           0           0           0           0
           0           0           0           0
Atom Layers                                I   N=           3
           1           1           1
Atom Modifiers                             I   N=           3
           0           0           0
Force Field                                I                0
Atom Modified Types                        C   N=           3
                                    
Int Atom Modified Types                    I   N=           3
           0           0           0
Link Atoms                                 I   N=           3
           0           0           0
Atom Modified MM Charges                   R   N=           3
  0.00000000E+00  0.00000000E+00  0.00000000E+00
Link Distances                             R   N=          12
  0.00000000E+00  0.00000000E+00  0.00000000E+00  0.00000000E+00  0.00000000E+00
  0.00000000E+00  0.00000000E+00  0.00000000E+00  0.00000000E+00  0.00000000E+00
  0.00000000E+00  0.00000000E+00
Cartesian Gradient                         R   N=           9
 -1.89972410E-18  4.38885039E-16 -2.19261954E-02  1.62010105E-18  1.09458335E-02
  1.09630977E-02  2.79623048E-19 -1.09458335E-02  1.09630977E-02
Cartesian Force Constants                  R   N=          45
 -2.09415151E-02  4.06791419E-17  6.43399289E-01  5.42269360E-17 -1.66533454E-16
  6.04933788E-01  1.04707576E-02  1.23259516E-32 -1.83286888E-17 -1.54120546E-03
 -7.90939585E-18 -3.21699644E-01  1.43466332E-01  5.38316353E-18  3.53957810E-01
 -1.27388805E-17  2.34754830E-01 -3.02466894E-01  9.16434439E-18 -1.89110581E-01
  2.37881776E-01  1.04707576E-02 -4.06791419E-17 -3.58982472E-17 -8.92955210E-03
  2.52623232E-18  3.57453607E-18 -1.54120546E-03 -3.27697461E-17 -3.21699644E-01
 -1.43466332E-01 -5.38316353E-18 -3.22581657E-02 -4.56442488E-02  3.81529096E-17
  3.53957810E-01 -4.14880556E-17 -2.34754830E-01 -3.02466894E-01  9.16434439E-18
  4.56442488E-02  6.45851184E-02  3.23237112E-17  1.89110581E-01  2.37881776E-01
Dipole Moment                              R   N=           3
 -3.68902630E-17 -2.77555756E-16 -4.25779467E-01
Dipole Derivatives                         R   N=          27
 -4.06659000E-01  4.93038066E-32  1.23259516E-32  2.46519033E-32 -4.06659000E-01
 -7.62363517E-33  9.24446373E-33 -7.62363517E-33 -4.06659000E-01  2.03329000E-01
 -2.46519033E-32 -1.54074396E-33 -1.23259516E-32  2.03329000E-01 -1.38777878E-17
  1.54074396E-33  1.38777878E-17  2.03329000E-01  2.03329000E-01 -2.46519033E-32
 -1.54074396E-33 -1.23259516E-32  2.03329000E-01 -1.38777878E-17  1.54074396E-33
  1.38777878E-17  2.03329000E-01
Number of Normal Modes                     I                3
Vib-NDFDPol                                I                0
Vib-NumROA                                 I                0
Vib-NDim                                   I                3
Vib-NDim0                                  I                3
Vib-AtMass                                 R   N=           3
  1.59949146E+01  1.00782504E+00  1.00782504E+00
Vib-E2                                     R   N=          42
  0.00000000E+00  0.00000000E+00  4.94065646-324  0.00000000E+00  0.00000000E+00
  0.00000000E+00  0.00000000E+00  0.00000000E+00  0.00000000E+00  0.00000000E+00
  9.88131292-324  0.00000000E+00  0.00000000E+00  0.00000000E+00  0.00000000E+00
  0.00000000E+00  0.00000000E+00  0.00000000E+00  1.48219694-323  0.00000000E+00
  0.00000000E+00  0.00000000E+00  0.00000000E+00  0.00000000E+00  2.34349349E+03
  3.68297519E+03  3.74195892E+03  1.07238578E+00  1.05493894E+00  1.08676974E+00
  3.46999421E+00  8.43092276E+00  8.96573235E+00  5.17052542E+01  3.83564983E+01
  6.23882288E+01  0.00000000E+00  0.00000000E+00  0.00000000E+00  0.00000000E+00
  0.00000000E+00  0.00000000E+00
Vib-Modes                                  R   N=          27
  0.00000000E+00  0.00000000E+00  0.00000000E+00  0.00000000E+00  0.00000000E+00
  0.00000000E+00  0.00000000E+00  0.00000000E+00  0.00000000E+00 -1.00000000E+02
  2.39496367E+01 -1.39378674E+02  0.00000000E+00  0.00000000E+00  0.00000000E+00
  0.00000000E+00  0.00000000E+00  0.00000000E+00  0.00000000E+00  0.00000000E+00
  0.00000000E+00  0.00000000E+00  0.00000000E+00  0.00000000E+00 -5.68660232E-18
 -1.38777878E-17 -6.56335063E-02
