Title Card Required                                                     
Freq      RAMBER                                                      ZDO                 
Number of atoms                            I                3
Info1-9                                    I   N=           9
          18          18           0           0           0         100
           6           8        1101
Full Title                                 C   N=           2
Title Card Required     
Route                                      C   N=           5
#P Amber=(SoftOnly,Print) Geom=Connectivity Freq=intmodes   
Charge                                     I                0
Multiplicity                               I                1
Number of electrons                        I                4
Number of alpha electrons                  I                2
Number of beta electrons                   I                2
Number of basis functions                  I                0
Number of independent functions            I                0
Number of point charges in /Mol/           I                0
Number of translation vectors              I                0
Atomic numbers                             I   N=           3
           8           1           1
Nuclear charges                            R   N=           3
  2.00000000E+00  1.00000000E+00  1.00000000E+00
Current cartesian coordinates              R   N=           9
 -1.44829932E-31  5.55111512E-16  2.09404098E-01 -1.47911420E-31  1.48149973E+00
 -8.37616390E-01 -1.81431390E-16 -1.48149973E+00 -8.37616390E-01
Number of symbols in /Mol/                 I                0
Redundant internal dimensions              I   N=           4
           3           2           1           0
Redundant internal coordinate indices      I   N=          12
           1           2           0           0           1           3
           0           0           2           1           3           0
Redundant internal coordinates             R   N=           3
  1.81413708E+00  1.81413708E+00  1.91113553E+00
ZRed-IntVec                                I   N=           3
           0           0           0
ZRed-FPVec                                 R   N=           3
  0.00000000E+00  0.00000000E+00  0.00000000E+00
ZRed-Constraint1                           R   N=           3
  1.81413708E+00  1.81413708E+00  1.91113553E+00
ZRed-Constraint2                           R   N=           3
  0.00000000E+00  0.00000000E+00  0.00000000E+00
Force Field                                I                2
Atom Types                                 C   N=           3
#200OW      #200HW      #200HW      
Int Atom Types                             I   N=           3
    20001021    20001030    20001030
MM charges                                 R   N=           3
  7.90505033-323  4.94065646-324  4.94065646-324
Integer atomic weights                     I   N=           3
           0           0           0
Real atomic weights                        R   N=           3
  0.00000000E+00  0.00000000E+00  0.00000000E+00
Atom fragment info                         I   N=           3
           0           0           0
Atom residue num                           I   N=           3
           0           0           0
Nuclear spins                              I   N=           3
           0           0           0
Nuclear ZEff                               R   N=           3
  0.00000000E+00  0.00000000E+00  0.00000000E+00
Nuclear ZNuc                               R   N=           3
  0.00000000E+00  0.00000000E+00  0.00000000E+00
Nuclear QMom                               R   N=           3
  0.00000000E+00  0.00000000E+00  0.00000000E+00
Nuclear GFac                               R   N=           3
  0.00000000E+00  0.00000000E+00  0.00000000E+00
MicOpt                                     I   N=           3
           0           0           0
Number of residues                         I                0
Number of secondary structures             I                0
Number of contracted shells                I                3
Number of primitive shells                 I                3
Pure/Cartesian d shells                    I                0
Pure/Cartesian f shells                    I                0
Highest angular momentum                   I                0
Largest degree of contraction              I                1
Shell types                                I   N=           3
           0           0           0
Number of primitives per shell             I   N=           3
           1           1           1
Shell to atom map                          I   N=           3
           1           2           3
Primitive exponents                        R   N=           3
  1.00000000E+00  1.00000000E+00  1.00000000E+00
Contraction coefficients                   R   N=           3
  1.00000000E+00  1.00000000E+00  1.00000000E+00
Coordinates of each shell                  R   N=           9
 -1.44829932E-31  5.55111512E-16  2.09404098E-01 -1.47911420E-31  1.48149973E+00
 -8.37616390E-01 -1.81431390E-16 -1.48149973E+00 -8.37616390E-01
Constraint Structure                       R   N=           9
 -1.44829932E-31  5.55111512E-16  2.09404098E-01 -1.47911420E-31  1.48149973E+00
 -8.37616390E-01 -1.81431390E-16 -1.48149973E+00 -8.37616390E-01
Num ILSW                                   I              100
ILSW                                       I   N=         100
           0           0           0           0           0           0
           0           0           0           0           0          -1
           5           0           0           0           2           0
           0           0           0           0           1           0
           1           0           0           0           0           0
           0           0      100000           0          -1           0
           0           0           0           0           0           0
           0           0           0         101           0           0
           0 -2000000000           1           0           0           0
           0           0           4          41           0           0
           0           0           0           0           0           0
           0           0           0           3           0           1
           0           0           0           0           0           0
           0           0           0           0           0           0
           0           0           0           0           0           0
           0           0           0           0           0           0
           0           0           0           0
Num RLSW                                   I               41
RLSW                                       R   N=          41
  1.00000000E+00  1.00000000E+00  1.00000000E+00  1.00000000E+00  1.00000000E+00
  0.00000000E+00  0.00000000E+00  1.00000000E+00  0.00000000E+00  0.00000000E+00
  0.00000000E+00  0.00000000E+00  1.00000000E+00  0.00000000E+00  0.00000000E+00
  0.00000000E+00  0.00000000E+00  1.00000000E+00  0.00000000E+00  0.00000000E+00
  0.00000000E+00  0.00000000E+00  1.00000000E+00  0.00000000E+00  0.00000000E+00
  0.00000000E+00  0.00000000E+00  1.00000000E+00  0.00000000E+00  0.00000000E+00
  0.00000000E+00  0.00000000E+00  1.00000000E+00  0.00000000E+00  0.00000000E+00
  0.00000000E+00  0.00000000E+00  0.00000000E+00  1.00000000E+00  1.00000000E+00
  0.00000000E+00
MxBond                                     I                2
NBond                                      I   N=           3
           2           1           1
IBond                                      I   N=           6
           2           3           1           0           1           0
RBond                                      R   N=           6
  1.00000000E+00  1.00000000E+00  1.00000000E+00  0.00000000E+00  1.00000000E+00
  0.00000000E+00
Virial Ratio                               R      0.000000000000000E+00
SCF Energy                                 R      2.246710475332811E-05
Total Energy                               R      2.246710475332811E-05
RMS Force                                  R      1.538301426076856E-04
External E-field                           R   N=         105
  0.00000000E+00  0.00000000E+00  0.00000000E+00  0.00000000E+00  0.00000000E+00
  0.00000000E+00  0.00000000E+00  0.00000000E+00  0.00000000E+00  0.00000000E+00
  0.00000000E+00  0.00000000E+00  0.00000000E+00  0.00000000E+00  0.00000000E+00
  0.00000000E+00  0.00000000E+00  0.00000000E+00  0.00000000E+00  0.00000000E+00
  0.00000000E+00  0.00000000E+00  0.00000000E+00  0.00000000E+00  0.00000000E+00
  0.00000000E+00  0.00000000E+00  0.00000000E+00  0.00000000E+00  0.00000000E+00
  0.00000000E+00  0.00000000E+00  0.00000000E+00  0.00000000E+00  0.00000000E+00
  0.00000000E+00  0.00000000E+00  0.00000000E+00  0.00000000E+00  0.00000000E+00
  0.00000000E+00  0.00000000E+00  0.00000000E+00  0.00000000E+00  0.00000000E+00
  0.00000000E+00  0.00000000E+00  0.00000000E+00  0.00000000E+00  0.00000000E+00
  0.00000000E+00  0.00000000E+00  0.00000000E+00  0.00000000E+00  0.00000000E+00
  0.00000000E+00  0.00000000E+00  0.00000000E+00  0.00000000E+00  0.00000000E+00
  0.00000000E+00  0.00000000E+00  0.00000000E+00  0.00000000E+00  0.00000000E+00
  0.00000000E+00  0.00000000E+00  0.00000000E+00  0.00000000E+00  0.00000000E+00
  0.00000000E+00  0.00000000E+00  0.00000000E+00  0.00000000E+00  0.00000000E+00
  0.00000000E+00  0.00000000E+00  0.00000000E+00  0.00000000E+00  0.00000000E+00
  0.00000000E+00  0.00000000E+00  0.00000000E+00  0.00000000E+00  0.00000000E+00
  0.00000000E+00  0.00000000E+00  0.00000000E+00  0.00000000E+00  0.00000000E+00
  0.00000000E+00  0.00000000E+00  0.00000000E+00  0.00000000E+00  0.00000000E+00
  0.00000000E+00  0.00000000E+00  0.00000000E+00  0.00000000E+00  0.00000000E+00
  0.00000000E+00  0.00000000E+00  0.00000000E+00  0.00000000E+00  0.00000000E+00
IOpCl                                      I                0
IROHF                                      I                0
Grdnt Energy                               R      2.246710475332811E-05
Grdnt NVar                                 I                3
Grdnt IGetFC                               I                4
Internal Forces                            R   N=           3
  1.44006287E-05  1.44006287E-05 -3.76474860E-04
Internal Force Constants                   R   N=           6
  8.92507706E-04  8.13151629E-19  8.92507706E-04 -4.33680869E-19 -2.38524478E-18
  3.18720287E-03
Optimization MaxStp                        I                2
Optimization Job offset                    I                0
Optimization Num results per geometry      I                2
Optimization Num geometry variables        I                9
Opt point       1 Results for each geome   R   N=           2
  2.24671048E-05  0.00000000E+00
Opt point       1 Geometries               R   N=           9
 -1.44829932E-31  5.55111512E-16  2.09404098E-01 -1.47911420E-31  1.48149973E+00
 -8.37616390E-01 -1.81431390E-16 -1.48149973E+00 -8.37616390E-01
Opt point       1 Gradient at each geome   R   N=           9
 -3.08068665E-20  6.23416249E-19 -3.55566040E-04  2.20171782E-20  1.08010651E-04
  1.77783020E-04  8.78968835E-21 -1.08010651E-04  1.77783020E-04
Optimization Number of geometries          I   N=           1
           1
MMPar NCPar                                I   N=          16
          -1           5           3         303           4           3
          10           6          18           6           4          95
           6           5           0           2
MMPar IPrt                                 I   N=          18
           6           2           6           2           0           0
           0           0           0           0           0           0
           0           0           0           0           0           0
MMPar ICnvrt                               I   N=           6
           6           2           0           0           0           0
MMPar ICntr                                I   N=           4
           0           0           0           0
MMPar IList                                I   N=          97
           0           0           0           0           0           0
           0           0           0           0           0           0
           0           0           0           0           0           0
           0           0           0           0           0           0
           0           0           0           0           0           0
           0           0           0           0           0           0
           0           0           0           0           0           0
           0           0           0           0           0           0
           0           0           0           0           0           0
           0           0           0           0           0           0
           0           0           0           0           0           0
           0           0           0           0           0           0
           0           0           0           0           0           0
           0           0           0           0           0           0
           0           0           0           0           0           0
           0           0           0           0           0           5
           0
MMPar AtL                                  L   N=           3
TTT
MMPar ChL                                  L   N=           3
FFF
MMPar Q                                    R   N=           3
 -4.06659000E-01  2.03329000E-01  2.03329000E-01
MMPar IAType                               I   N=           6
          21          30          30           0           0           0
MMPar IAtTpT                               I   N=           3
           0    20001021    20001030
MMPar IUserT                               I   N=           3
           0           0           0
MMPar SymbT                                H   N=           3
*       OW      HW      
MMPar StepD                                I   N=          95
           0           0           0           0           0           0
           0           0           0           0           0           0
           0           0           0           0           0           0
           0           0           0           0           0           0
           0           0           0           0           0           0
           0           0           0           0           0           0
           0           0           0           0           0           0
           0           0           0           0           0           0
           0           0           0           0           0           0
           0           0           0           0           0           0
           0           0           0           0           0           0
           0           0           0           0           0           0
           0           0           0           0           0           0
           0           0           0           0           0           0
           0           0           0           0           0           0
           0           0           0           0           0
MMPar ICorL                                I   N=          50
    20001021    20001030           0           0           0           0
           0           0           0          10    20001030    20001021
    20001030           0           0           0           0           0
           0          20           1           2           0           0
           0           0           0           0           0          10
           1           3           0           0           0           0
           0           0           0          10           2           1
           3           0           0           0           0           0
           0          20
MMPar RCorL                                R   N=          30
  1.00000000E+00  9.68538284E-01  0.00000000E+00  0.00000000E+00  0.00000000E+00
  0.00000000E+00  1.00000000E+00  1.02732178E+02  0.00000000E+00  0.00000000E+00
  0.00000000E+00  0.00000000E+00  4.46253853E-04  1.83027210E+00  0.00000000E+00
  0.00000000E+00  0.00000000E+00  0.00000000E+00  4.46253853E-04  1.83027210E+00
  0.00000000E+00  0.00000000E+00  0.00000000E+00  0.00000000E+00  1.59360144E-03
  1.79301476E+00  0.00000000E+00  0.00000000E+00  0.00000000E+00  0.00000000E+00
MMPar Table                                R   N=          15
  0.00000000E+00  0.00000000E+00  0.00000000E+00  0.00000000E+00  0.00000000E+00
  0.00000000E+00  0.00000000E+00  0.00000000E+00  0.00000000E+00  0.00000000E+00
  0.00000000E+00  0.00000000E+00  0.00000000E+00  0.00000000E+00  0.00000000E+00
ONIOM Charges                              I   N=          16
           0           0           0           0           0           0
           0           0           0           0           0           0
           0           0           0           0
ONIOM Multiplicities                       I   N=          16
           1           0           0           0           0           0
           0           0           0           0           0           0
           0           0           0           0
Atom Layers                                I   N=           3
           1           1           1
Atom Modifiers                             I   N=           3
           0           0           0
Force Field                                I                0
Atom Modified Types                        C   N=           3
                                    
Int Atom Modified Types                    I   N=           3
           0           0           0
Link Atoms                                 I   N=           3
           0           0           0
Atom Modified MM Charges                   R   N=           3
  0.00000000E+00  0.00000000E+00  0.00000000E+00
Link Distances                             R   N=          12
  0.00000000E+00  0.00000000E+00  0.00000000E+00  0.00000000E+00  0.00000000E+00
  0.00000000E+00  0.00000000E+00  0.00000000E+00  0.00000000E+00  0.00000000E+00
  0.00000000E+00  0.00000000E+00
Cartesian Gradient                         R   N=           9
 -3.08068665E-20  6.23416249E-19 -3.55566040E-04  2.20171782E-20  1.08010651E-04
  1.77783020E-04  8.78968835E-21 -1.08010651E-04  1.77783020E-04
Cartesian Force Constants                  R   N=          45
 -3.39597978E-04  8.01581100E-20  9.69483302E-04  3.22537701E-19  8.13151629E-19
  3.38306083E-03  1.69798989E-04 -7.22223729E-35 -1.88841858E-19 -4.84463486E-05
 -7.90939585E-20 -4.84741651E-04 -4.50301388E-04  5.18687028E-20  8.07323309E-04
 -1.32943775E-19  4.62583589E-04 -1.69153042E-03  9.44209291E-20 -6.14110042E-06
  1.04567923E-03  1.69798989E-04 -8.01581100E-20 -1.33695843E-19 -1.21352640E-04
  2.72252557E-20  3.85228458E-20 -4.84463486E-05 -1.06415146E-21 -4.84741651E-04
  4.50301388E-04 -5.18687028E-20 -3.22581657E-04 -4.56442488E-04  5.29328543E-20
  8.07323309E-04 -1.89593926E-19 -4.62583589E-04 -1.69153042E-03  9.44209291E-20
  4.56442488E-04  6.45851184E-04  9.51729970E-20  6.14110042E-06  1.04567923E-03
Dipole Moment                              R   N=           3
 -3.68902630E-17 -2.77555756E-16 -4.25779467E-01
Dipole Derivatives                         R   N=          27
 -4.06659000E-01  4.93038066E-32  1.23259516E-32  2.46519033E-32 -4.06659000E-01
 -7.62363517E-33  9.24446373E-33 -7.62363517E-33 -4.06659000E-01  2.03329000E-01
 -2.46519033E-32 -1.54074396E-33 -1.23259516E-32  2.03329000E-01 -1.38777878E-17
  1.54074396E-33  1.38777878E-17  2.03329000E-01  2.03329000E-01 -2.46519033E-32
 -1.54074396E-33 -1.23259516E-32  2.03329000E-01 -1.38777878E-17  1.54074396E-33
  1.38777878E-17  2.03329000E-01
Number of Normal Modes                     I                3
Vib-NDFDPol                                I                0
Vib-NumROA                                 I                0
Vib-NDim                                   I                3
Vib-NDim0                                  I                3
Vib-AtMass                                 R   N=           3
  1.59949146E+01  1.00782504E+00  1.00782504E+00
Vib-E2                                     R   N=          42
  0.00000000E+00  0.00000000E+00  4.94065646-324  0.00000000E+00  0.00000000E+00
  0.00000000E+00  0.00000000E+00  0.00000000E+00  0.00000000E+00  0.00000000E+00
  9.88131292-324  0.00000000E+00  0.00000000E+00  0.00000000E+00  0.00000000E+00
  0.00000000E+00  0.00000000E+00  0.00000000E+00  1.48219694-323  0.00000000E+00
  0.00000000E+00  0.00000000E+00  0.00000000E+00  0.00000000E+00  1.53798844E+02
  1.58147902E+02  2.36455918E+02  1.02777624E+00  1.08676974E+00  1.10199155E+00
  1.43236901E-02  1.60145452E-02  3.63018571E-02  1.66719988E+01  6.23882288E+01
  7.33897537E+01  0.00000000E+00  0.00000000E+00  0.00000000E+00  0.00000000E+00
  0.00000000E+00  0.00000000E+00
Vib-Modes                                  R   N=          27
  0.00000000E+00  0.00000000E+00  0.00000000E+00  0.00000000E+00  0.00000000E+00
  0.00000000E+00  0.00000000E+00  0.00000000E+00  0.00000000E+00 -1.00000000E+02
  2.39496367E+01 -1.39378674E+02  0.00000000E+00  0.00000000E+00  0.00000000E+00
  0.00000000E+00  0.00000000E+00  0.00000000E+00  0.00000000E+00  0.00000000E+00
  0.00000000E+00  0.00000000E+00  0.00000000E+00  0.00000000E+00  3.16120833E-18
  2.08166817E-17  3.64859674E-02
