 Entering Gaussian System, Link 0=g16
 Input=trp_zion_631g_10604.gjf
 Output=/home/e.falbo/results/force_field/Trp/trp_zion_631g.log
 Initial command:
 /cm/shared/gaussian/versions/g16.c01/intel64-sandybridge/g16/l1.exe "/local/scratch/e.falbo/gaurun10604/Gau-16838.inp" -scrdir="/local/scratch/e.falbo/gaurun10604/"
 Entering Link 1 = /cm/shared/gaussian/versions/g16.c01/intel64-sandybridge/g16/l1.exe PID=     16839.
  
 Copyright (c) 1988-2019, Gaussian, Inc.  All Rights Reserved.
  
 This is part of the Gaussian(R) 16 program.  It is based on
 the Gaussian(R) 09 system (copyright 2009, Gaussian, Inc.),
 the Gaussian(R) 03 system (copyright 2003, Gaussian, Inc.),
 the Gaussian(R) 98 system (copyright 1998, Gaussian, Inc.),
 the Gaussian(R) 94 system (copyright 1995, Gaussian, Inc.),
 the Gaussian 92(TM) system (copyright 1992, Gaussian, Inc.),
 the Gaussian 90(TM) system (copyright 1990, Gaussian, Inc.),
 the Gaussian 88(TM) system (copyright 1988, Gaussian, Inc.),
 the Gaussian 86(TM) system (copyright 1986, Carnegie Mellon
 University), and the Gaussian 82(TM) system (copyright 1983,
 Carnegie Mellon University). Gaussian is a federally registered
 trademark of Gaussian, Inc.
  
 This software contains proprietary and confidential information,
 including trade secrets, belonging to Gaussian, Inc.
  
 This software is provided under written license and may be
 used, copied, transmitted, or stored only in accord with that
 written license.
  
 The following legend is applicable only to US Government
 contracts under FAR:
  
                    RESTRICTED RIGHTS LEGEND
  
 Use, reproduction and disclosure by the US Government is
 subject to restrictions as set forth in subparagraphs (a)
 and (c) of the Commercial Computer Software - Restricted
 Rights clause in FAR 52.227-19.
  
 Gaussian, Inc.
 340 Quinnipiac St., Bldg. 40, Wallingford CT 06492
  
  
 ---------------------------------------------------------------
 Warning -- This program may not be used in any manner that
 competes with the business of Gaussian, Inc. or will provide
 assistance to any competitor of Gaussian, Inc.  The licensee
 of this program is prohibited from giving any competitor of
 Gaussian, Inc. access to this program.  By using this program,
 the user acknowledges that Gaussian, Inc. is engaged in the
 business of creating and licensing software in the field of
 computational chemistry and represents and warrants to the
 licensee that it is not a competitor of Gaussian, Inc. and that
 it will not use this program in any manner prohibited above.
 ---------------------------------------------------------------
  

 Cite this work as:
 Gaussian 16, Revision C.01,
 M. J. Frisch, G. W. Trucks, H. B. Schlegel, G. E. Scuseria, 
 M. A. Robb, J. R. Cheeseman, G. Scalmani, V. Barone, 
 G. A. Petersson, H. Nakatsuji, X. Li, M. Caricato, A. V. Marenich, 
 J. Bloino, B. G. Janesko, R. Gomperts, B. Mennucci, H. P. Hratchian, 
 J. V. Ortiz, A. F. Izmaylov, J. L. Sonnenberg, D. Williams-Young, 
 F. Ding, F. Lipparini, F. Egidi, J. Goings, B. Peng, A. Petrone, 
 T. Henderson, D. Ranasinghe, V. G. Zakrzewski, J. Gao, N. Rega, 
 G. Zheng, W. Liang, M. Hada, M. Ehara, K. Toyota, R. Fukuda, 
 J. Hasegawa, M. Ishida, T. Nakajima, Y. Honda, O. Kitao, H. Nakai, 
 T. Vreven, K. Throssell, J. A. Montgomery, Jr., J. E. Peralta, 
 F. Ogliaro, M. J. Bearpark, J. J. Heyd, E. N. Brothers, K. N. Kudin, 
 V. N. Staroverov, T. A. Keith, R. Kobayashi, J. Normand, 
 K. Raghavachari, A. P. Rendell, J. C. Burant, S. S. Iyengar, 
 J. Tomasi, M. Cossi, J. M. Millam, M. Klene, C. Adamo, R. Cammi, 
 J. W. Ochterski, R. L. Martin, K. Morokuma, O. Farkas, 
 J. B. Foresman, and D. J. Fox, Gaussian, Inc., Wallingford CT, 2019.
 
 ******************************************
 Gaussian 16:  ES64L-G16RevC.01  3-Jul-2019
                23-Jun-2022 
 ******************************************
 %Mem=58GB
 %NProcShared=16
 Will use up to   16 processors via shared memory.
 %Chk=trp_zion_631g.chk
 ----------------------------------------------------------------------
 #p opt=(calcall,tight,maxstep=7,maxcycles=100) freq b3lyp 6-31G(d) pop
 =cm5 SCRF(Solvent=water)
 ----------------------------------------------------------------------
 1/6=100,7=10,8=7,10=4,18=20,19=15,26=3,38=1/1,3;
 2/9=110,12=2,17=6,18=5,40=1/2;
 3/5=1,6=6,7=1,11=2,25=1,30=1,70=2201,71=2,72=1,74=-5,140=1/1,2,3;
 4//1;
 5/5=2,38=5,53=1/2;
 8/6=4,10=90,11=11/1;
 11/6=1,8=1,9=11,15=111,16=1/1,2,10;
 10/6=1/2;
 6/7=2,8=2,9=2,10=2,18=1,28=1,79=1/1;
 7/10=1,25=1/1,2,3,16;
 1/6=100,7=10,8=7,10=4,18=20,19=15,26=3/3(3);
 2/9=110/2;
 7/8=1,9=1,25=1,44=-1/16;
 99//99;
 2/9=110/2;
 3/5=1,6=6,7=1,11=2,25=1,30=1,70=2205,71=2,72=1,74=-5,140=1/1,2,3;
 4/5=5,16=3,69=1/1;
 5/5=2,38=5,53=1/2;
 8/6=4,10=90,11=11/1;
 11/6=1,8=1,9=11,15=111,16=1/1,2,10;
 10/6=1/2;
 7/10=1,25=1/1,2,3,16;
 1/6=100,7=10,8=7,10=4,18=20,19=15,26=3/3(-8);
 2/9=110/2;
 6/7=2,8=2,9=2,10=2,18=1,19=2,28=1,79=1/1;
 7/8=1,9=1,25=1,44=-1/16;
 99//99;
 Leave Link    1 at Thu Jun 23 12:58:47 2022, MaxMem=  7784628224 cpu:               0.8 elap:               0.1
 (Enter /cm/shared/gaussian/versions/g16.c01/intel64-sandybridge/g16/l101.exe)
 -----
 title
 -----
 Symbolic Z-matrix:
 Charge =  0 Multiplicity = 1
 N-N3                    -2.10931  -1.0266    1.45539 
 C-CT                    -1.98325   0.02507   0.4637 
 C-C                     -3.3708    0.45899   0.03911 
 O-O                     -4.34112  -0.25277   0.00993 
 C-CT                    -1.18997  -0.36146  -0.82759 
 C-CA                     0.22657  -0.74473  -0.54793 
 C-CA                     0.73933  -2.01383  -0.5087 
 C-CA                     1.32212   0.14173  -0.24692 
 N-NA                     2.08294  -1.97337  -0.20264 
 C-CA                     2.4698   -0.66342  -0.03853 
 C-CA                     1.44729   1.53408  -0.14551 
 C-CA                     3.71581  -0.11884   0.26696 
 C-CA                     2.6829    2.07819   0.15663 
 C-CA                     3.80599   1.25935   0.36214 
 O-O                     -3.39796   1.74717  -0.37097 
 H-H                     -2.80305  -1.68295   1.15888 
 H-H                     -1.23126  -1.49375   1.5593 
 H-HC                    -1.48649   0.8846    0.91669 
 H-HC                    -1.71358  -1.19063  -1.30885 
 H-HC                    -1.21826   0.48389  -1.52004 
 H-HA                     0.24773  -2.95455  -0.694 
 H-HA                     2.68545  -2.77246  -0.13523 
 H-HA                     0.59212   2.17856  -0.30309 
 H-HA                     4.5833   -0.74715   0.42314 
 H-HA                     2.7903    3.15163   0.23692 
 H-HA                     4.7587    1.71435   0.59788 
 H-H                     -2.38048  -0.62788   2.33146 
 
 ITRead=  0  0  0  0  0  0  0  0  0  0  0  0  0  0  0  0  0  0  0  0
 ITRead=  0  0  0  0  0  0  0
 MicOpt= -1 -1 -1 -1 -1 -1 -1 -1 -1 -1 -1 -1 -1 -1 -1 -1 -1 -1 -1 -1
 MicOpt= -1 -1 -1 -1 -1 -1 -1
 NAtoms=     27 NQM=       27 NQMF=       0 NMMI=      0 NMMIF=      0
                NMic=       0 NMicF=      0.
                    Isotopes and Nuclear Properties:
 (Nuclear quadrupole moments (NQMom) in fm**2, nuclear magnetic moments (NMagM)
  in nuclear magnetons)

  Atom         1           2           3           4           5           6           7           8           9          10
 IAtWgt=          14          12          12          16          12          12          12          12          14          12
 AtmWgt=  14.0030740  12.0000000  12.0000000  15.9949146  12.0000000  12.0000000  12.0000000  12.0000000  14.0030740  12.0000000
 NucSpn=           2           0           0           0           0           0           0           0           2           0
 AtZEff=  -0.0000000  -0.0000000  -0.0000000  -0.0000000  -0.0000000  -0.0000000  -0.0000000  -0.0000000  -0.0000000  -0.0000000
 NQMom=    2.0440000   0.0000000   0.0000000   0.0000000   0.0000000   0.0000000   0.0000000   0.0000000   2.0440000   0.0000000
 NMagM=    0.4037610   0.0000000   0.0000000   0.0000000   0.0000000   0.0000000   0.0000000   0.0000000   0.4037610   0.0000000
 AtZNuc=   7.0000000   6.0000000   6.0000000   8.0000000   6.0000000   6.0000000   6.0000000   6.0000000   7.0000000   6.0000000

  Atom        11          12          13          14          15          16          17          18          19          20
 IAtWgt=          12          12          12          12          16           1           1           1           1           1
 AtmWgt=  12.0000000  12.0000000  12.0000000  12.0000000  15.9949146   1.0078250   1.0078250   1.0078250   1.0078250   1.0078250
 NucSpn=           0           0           0           0           0           1           1           1           1           1
 AtZEff=  -0.0000000  -0.0000000  -0.0000000  -0.0000000  -0.0000000  -0.0000000  -0.0000000  -0.0000000  -0.0000000  -0.0000000
 NQMom=    0.0000000   0.0000000   0.0000000   0.0000000   0.0000000   0.0000000   0.0000000   0.0000000   0.0000000   0.0000000
 NMagM=    0.0000000   0.0000000   0.0000000   0.0000000   0.0000000   2.7928460   2.7928460   2.7928460   2.7928460   2.7928460
 AtZNuc=   6.0000000   6.0000000   6.0000000   6.0000000   8.0000000   1.0000000   1.0000000   1.0000000   1.0000000   1.0000000

  Atom        21          22          23          24          25          26          27
 IAtWgt=           1           1           1           1           1           1           1
 AtmWgt=   1.0078250   1.0078250   1.0078250   1.0078250   1.0078250   1.0078250   1.0078250
 NucSpn=           1           1           1           1           1           1           1
 AtZEff=  -0.0000000  -0.0000000  -0.0000000  -0.0000000  -0.0000000  -0.0000000  -0.0000000
 NQMom=    0.0000000   0.0000000   0.0000000   0.0000000   0.0000000   0.0000000   0.0000000
 NMagM=    2.7928460   2.7928460   2.7928460   2.7928460   2.7928460   2.7928460   2.7928460
 AtZNuc=   1.0000000   1.0000000   1.0000000   1.0000000   1.0000000   1.0000000   1.0000000
 Leave Link  101 at Thu Jun 23 12:58:47 2022, MaxMem=  7784628224 cpu:               5.6 elap:               0.4
 (Enter /cm/shared/gaussian/versions/g16.c01/intel64-sandybridge/g16/l103.exe)

 GradGradGradGradGradGradGradGradGradGradGradGradGradGradGradGradGradGrad
 Berny optimization.
 Initialization pass.
                           ----------------------------
                           !    Initial Parameters    !
                           ! (Angstroms and Degrees)  !
 --------------------------                            --------------------------
 ! Name  Definition              Value          Derivative Info.                !
 --------------------------------------------------------------------------------
 ! R1    R(1,2)                  1.451          calculate D2E/DX2 analytically  !
 ! R2    R(1,16)                 1.0            calculate D2E/DX2 analytically  !
 ! R3    R(1,17)                 1.0            calculate D2E/DX2 analytically  !
 ! R4    R(1,27)                 1.0            calculate D2E/DX2 analytically  !
 ! R5    R(2,3)                  1.5145         calculate D2E/DX2 analytically  !
 ! R6    R(2,5)                  1.564          calculate D2E/DX2 analytically  !
 ! R7    R(2,18)                 1.0912         calculate D2E/DX2 analytically  !
 ! R8    R(3,4)                  1.2037         calculate D2E/DX2 analytically  !
 ! R9    R(3,15)                 1.3522         calculate D2E/DX2 analytically  !
 ! R10   R(5,6)                  1.4939         calculate D2E/DX2 analytically  !
 ! R11   R(5,19)                 1.0924         calculate D2E/DX2 analytically  !
 ! R12   R(5,20)                 1.0931         calculate D2E/DX2 analytically  !
 ! R13   R(6,7)                  1.3693         calculate D2E/DX2 analytically  !
 ! R14   R(6,8)                  1.4411         calculate D2E/DX2 analytically  !
 ! R15   R(7,9)                  1.3786         calculate D2E/DX2 analytically  !
 ! R16   R(7,21)                 1.0775         calculate D2E/DX2 analytically  !
 ! R17   R(8,10)                 1.4173         calculate D2E/DX2 analytically  !
 ! R18   R(8,11)                 1.4016         calculate D2E/DX2 analytically  !
 ! R19   R(9,10)                 1.3757         calculate D2E/DX2 analytically  !
 ! R20   R(9,22)                 1.0031         calculate D2E/DX2 analytically  !
 ! R21   R(10,12)                1.3937         calculate D2E/DX2 analytically  !
 ! R22   R(11,13)                1.3835         calculate D2E/DX2 analytically  !
 ! R23   R(11,23)                1.0824         calculate D2E/DX2 analytically  !
 ! R24   R(12,14)                1.3844         calculate D2E/DX2 analytically  !
 ! R25   R(12,24)                1.0825         calculate D2E/DX2 analytically  !
 ! R26   R(13,14)                1.405          calculate D2E/DX2 analytically  !
 ! R27   R(13,25)                1.0818         calculate D2E/DX2 analytically  !
 ! R28   R(14,26)                1.0818         calculate D2E/DX2 analytically  !
 ! A1    A(2,1,16)             109.4712         calculate D2E/DX2 analytically  !
 ! A2    A(2,1,17)             109.4712         calculate D2E/DX2 analytically  !
 ! A3    A(2,1,27)             109.4712         calculate D2E/DX2 analytically  !
 ! A4    A(16,1,17)            109.4712         calculate D2E/DX2 analytically  !
 ! A5    A(16,1,27)            109.4712         calculate D2E/DX2 analytically  !
 ! A6    A(17,1,27)            109.4712         calculate D2E/DX2 analytically  !
 ! A7    A(1,2,3)              108.6429         calculate D2E/DX2 analytically  !
 ! A8    A(1,2,5)              115.4187         calculate D2E/DX2 analytically  !
 ! A9    A(1,2,18)             109.0707         calculate D2E/DX2 analytically  !
 ! A10   A(3,2,5)              107.6997         calculate D2E/DX2 analytically  !
 ! A11   A(3,2,18)             107.9244         calculate D2E/DX2 analytically  !
 ! A12   A(5,2,18)             107.8484         calculate D2E/DX2 analytically  !
 ! A13   A(2,3,4)              125.162          calculate D2E/DX2 analytically  !
 ! A14   A(2,3,15)             112.1092         calculate D2E/DX2 analytically  !
 ! A15   A(4,3,15)             122.6682         calculate D2E/DX2 analytically  !
 ! A16   A(2,5,6)              112.9414         calculate D2E/DX2 analytically  !
 ! A17   A(2,5,19)             107.9512         calculate D2E/DX2 analytically  !
 ! A18   A(2,5,20)             108.5879         calculate D2E/DX2 analytically  !
 ! A19   A(6,5,19)             110.0137         calculate D2E/DX2 analytically  !
 ! A20   A(6,5,20)             109.9704         calculate D2E/DX2 analytically  !
 ! A21   A(19,5,20)            107.1888         calculate D2E/DX2 analytically  !
 ! A22   A(5,6,7)              126.7423         calculate D2E/DX2 analytically  !
 ! A23   A(5,6,8)              127.025          calculate D2E/DX2 analytically  !
 ! A24   A(7,6,8)              106.2273         calculate D2E/DX2 analytically  !
 ! A25   A(6,7,9)              110.1277         calculate D2E/DX2 analytically  !
 ! A26   A(6,7,21)             129.3005         calculate D2E/DX2 analytically  !
 ! A27   A(9,7,21)             120.5618         calculate D2E/DX2 analytically  !
 ! A28   A(6,8,10)             107.2694         calculate D2E/DX2 analytically  !
 ! A29   A(6,8,11)             133.953          calculate D2E/DX2 analytically  !
 ! A30   A(10,8,11)            118.7743         calculate D2E/DX2 analytically  !
 ! A31   A(7,9,10)             109.1773         calculate D2E/DX2 analytically  !
 ! A32   A(7,9,22)             125.2375         calculate D2E/DX2 analytically  !
 ! A33   A(10,9,22)            125.5666         calculate D2E/DX2 analytically  !
 ! A34   A(8,10,9)             107.198          calculate D2E/DX2 analytically  !
 ! A35   A(8,10,12)            122.2887         calculate D2E/DX2 analytically  !
 ! A36   A(9,10,12)            130.5128         calculate D2E/DX2 analytically  !
 ! A37   A(8,11,13)            119.0931         calculate D2E/DX2 analytically  !
 ! A38   A(8,11,23)            120.6907         calculate D2E/DX2 analytically  !
 ! A39   A(13,11,23)           120.2159         calculate D2E/DX2 analytically  !
 ! A40   A(10,12,14)           117.5348         calculate D2E/DX2 analytically  !
 ! A41   A(10,12,24)           121.4196         calculate D2E/DX2 analytically  !
 ! A42   A(14,12,24)           121.0456         calculate D2E/DX2 analytically  !
 ! A43   A(11,13,14)           121.1065         calculate D2E/DX2 analytically  !
 ! A44   A(11,13,25)           119.6779         calculate D2E/DX2 analytically  !
 ! A45   A(14,13,25)           119.2157         calculate D2E/DX2 analytically  !
 ! A46   A(12,14,13)           121.2023         calculate D2E/DX2 analytically  !
 ! A47   A(12,14,26)           119.4102         calculate D2E/DX2 analytically  !
 ! A48   A(13,14,26)           119.3875         calculate D2E/DX2 analytically  !
 ! D1    D(16,1,2,3)            44.4972         calculate D2E/DX2 analytically  !
 ! D2    D(16,1,2,5)           -76.5392         calculate D2E/DX2 analytically  !
 ! D3    D(16,1,2,18)          161.9036         calculate D2E/DX2 analytically  !
 ! D4    D(17,1,2,3)           164.4972         calculate D2E/DX2 analytically  !
 ! D5    D(17,1,2,5)            43.4608         calculate D2E/DX2 analytically  !
 ! D6    D(17,1,2,18)          -78.0964         calculate D2E/DX2 analytically  !
 ! D7    D(27,1,2,3)           -75.5028         calculate D2E/DX2 analytically  !
 ! D8    D(27,1,2,5)           163.4608         calculate D2E/DX2 analytically  !
 ! D9    D(27,1,2,18)           41.9036         calculate D2E/DX2 analytically  !
 ! D10   D(1,2,3,4)            -30.6929         calculate D2E/DX2 analytically  !
 ! D11   D(1,2,3,15)           152.0871         calculate D2E/DX2 analytically  !
 ! D12   D(5,2,3,4)             94.9812         calculate D2E/DX2 analytically  !
 ! D13   D(5,2,3,15)           -82.2388         calculate D2E/DX2 analytically  !
 ! D14   D(18,2,3,4)          -148.8275         calculate D2E/DX2 analytically  !
 ! D15   D(18,2,3,15)           33.9525         calculate D2E/DX2 analytically  !
 ! D16   D(1,2,5,6)            -61.3466         calculate D2E/DX2 analytically  !
 ! D17   D(1,2,5,19)            60.5095         calculate D2E/DX2 analytically  !
 ! D18   D(1,2,5,20)           176.4027         calculate D2E/DX2 analytically  !
 ! D19   D(3,2,5,6)            177.1076         calculate D2E/DX2 analytically  !
 ! D20   D(3,2,5,19)           -61.0363         calculate D2E/DX2 analytically  !
 ! D21   D(3,2,5,20)            54.8569         calculate D2E/DX2 analytically  !
 ! D22   D(18,2,5,6)            60.8665         calculate D2E/DX2 analytically  !
 ! D23   D(18,2,5,19)         -177.2774         calculate D2E/DX2 analytically  !
 ! D24   D(18,2,5,20)          -61.3842         calculate D2E/DX2 analytically  !
 ! D25   D(2,5,6,7)            102.6929         calculate D2E/DX2 analytically  !
 ! D26   D(2,5,6,8)            -76.3428         calculate D2E/DX2 analytically  !
 ! D27   D(19,5,6,7)           -17.9949         calculate D2E/DX2 analytically  !
 ! D28   D(19,5,6,8)           162.9693         calculate D2E/DX2 analytically  !
 ! D29   D(20,5,6,7)          -135.8344         calculate D2E/DX2 analytically  !
 ! D30   D(20,5,6,8)            45.1298         calculate D2E/DX2 analytically  !
 ! D31   D(5,6,7,9)           -179.1946         calculate D2E/DX2 analytically  !
 ! D32   D(5,6,7,21)             1.97           calculate D2E/DX2 analytically  !
 ! D33   D(8,6,7,9)              0.0037         calculate D2E/DX2 analytically  !
 ! D34   D(8,6,7,21)          -178.8318         calculate D2E/DX2 analytically  !
 ! D35   D(5,6,8,10)           179.2889         calculate D2E/DX2 analytically  !
 ! D36   D(5,6,8,11)            -1.4083         calculate D2E/DX2 analytically  !
 ! D37   D(7,6,8,10)             0.0936         calculate D2E/DX2 analytically  !
 ! D38   D(7,6,8,11)           179.3964         calculate D2E/DX2 analytically  !
 ! D39   D(6,7,9,10)            -0.1037         calculate D2E/DX2 analytically  !
 ! D40   D(6,7,9,22)          -178.6052         calculate D2E/DX2 analytically  !
 ! D41   D(21,7,9,10)          178.8498         calculate D2E/DX2 analytically  !
 ! D42   D(21,7,9,22)            0.3483         calculate D2E/DX2 analytically  !
 ! D43   D(6,8,10,9)            -0.1556         calculate D2E/DX2 analytically  !
 ! D44   D(6,8,10,12)          179.6084         calculate D2E/DX2 analytically  !
 ! D45   D(11,8,10,9)         -179.5829         calculate D2E/DX2 analytically  !
 ! D46   D(11,8,10,12)           0.181          calculate D2E/DX2 analytically  !
 ! D47   D(6,8,11,13)         -179.3684         calculate D2E/DX2 analytically  !
 ! D48   D(6,8,11,23)            0.4793         calculate D2E/DX2 analytically  !
 ! D49   D(10,8,11,13)          -0.128          calculate D2E/DX2 analytically  !
 ! D50   D(10,8,11,23)         179.7197         calculate D2E/DX2 analytically  !
 ! D51   D(7,9,10,8)             0.1601         calculate D2E/DX2 analytically  !
 ! D52   D(7,9,10,12)         -179.5774         calculate D2E/DX2 analytically  !
 ! D53   D(22,9,10,8)          178.6555         calculate D2E/DX2 analytically  !
 ! D54   D(22,9,10,12)          -1.082          calculate D2E/DX2 analytically  !
 ! D55   D(8,10,12,14)          -0.0772         calculate D2E/DX2 analytically  !
 ! D56   D(8,10,12,24)        -179.986          calculate D2E/DX2 analytically  !
 ! D57   D(9,10,12,14)         179.6261         calculate D2E/DX2 analytically  !
 ! D58   D(9,10,12,24)          -0.2826         calculate D2E/DX2 analytically  !
 ! D59   D(8,11,13,14)          -0.0201         calculate D2E/DX2 analytically  !
 ! D60   D(8,11,13,25)         179.982          calculate D2E/DX2 analytically  !
 ! D61   D(23,11,13,14)       -179.8686         calculate D2E/DX2 analytically  !
 ! D62   D(23,11,13,25)          0.1335         calculate D2E/DX2 analytically  !
 ! D63   D(10,12,14,13)         -0.0767         calculate D2E/DX2 analytically  !
 ! D64   D(10,12,14,26)        179.9964         calculate D2E/DX2 analytically  !
 ! D65   D(24,12,14,13)        179.8325         calculate D2E/DX2 analytically  !
 ! D66   D(24,12,14,26)         -0.0944         calculate D2E/DX2 analytically  !
 ! D67   D(11,13,14,12)          0.1274         calculate D2E/DX2 analytically  !
 ! D68   D(11,13,14,26)       -179.9457         calculate D2E/DX2 analytically  !
 ! D69   D(25,13,14,12)       -179.8747         calculate D2E/DX2 analytically  !
 ! D70   D(25,13,14,26)          0.0522         calculate D2E/DX2 analytically  !
 --------------------------------------------------------------------------------
 Trust Radius=7.00D-02 FncErr=1.00D-07 GrdErr=1.00D-06 EigMax=2.50D+02 EigMin=1.00D-04
 Number of steps in this run=    100 maximum allowed number of steps=    162.
 GradGradGradGradGradGradGradGradGradGradGradGradGradGradGradGradGradGrad

 Leave Link  103 at Thu Jun 23 12:58:48 2022, MaxMem=  7784628224 cpu:               0.4 elap:               0.1
 (Enter /cm/shared/gaussian/versions/g16.c01/intel64-sandybridge/g16/l202.exe)
                          Input orientation:                          
 ---------------------------------------------------------------------
 Center     Atomic      Atomic             Coordinates (Angstroms)
 Number     Number       Type             X           Y           Z
 ---------------------------------------------------------------------
      1          7           0       -2.109306   -1.026596    1.455390
      2          6           0       -1.983251    0.025066    0.463697
      3          6           0       -3.370796    0.458990    0.039110
      4          8           0       -4.341116   -0.252765    0.009925
      5          6           0       -1.189971   -0.361457   -0.827593
      6          6           0        0.226570   -0.744730   -0.547925
      7          6           0        0.739333   -2.013827   -0.508700
      8          6           0        1.322123    0.141726   -0.246918
      9          7           0        2.082939   -1.973371   -0.202641
     10          6           0        2.469797   -0.663422   -0.038526
     11          6           0        1.447287    1.534084   -0.145506
     12          6           0        3.715808   -0.118844    0.266956
     13          6           0        2.682901    2.078194    0.156629
     14          6           0        3.805985    1.259347    0.362137
     15          8           0       -3.397955    1.747172   -0.370971
     16          1           0       -2.803051   -1.682948    1.158876
     17          1           0       -1.231259   -1.493753    1.559304
     18          1           0       -1.486487    0.884602    0.916687
     19          1           0       -1.713581   -1.190628   -1.308854
     20          1           0       -1.218256    0.483894   -1.520039
     21          1           0        0.247729   -2.954546   -0.694004
     22          1           0        2.685453   -2.772464   -0.135230
     23          1           0        0.592121    2.178557   -0.303085
     24          1           0        4.583297   -0.747154    0.423140
     25          1           0        2.790295    3.151630    0.236920
     26          1           0        4.758704    1.714351    0.597881
     27          1           0       -2.380484   -0.627883    2.331455
 ---------------------------------------------------------------------
                    Distance matrix (angstroms):
                    1          2          3          4          5
     1  N    0.000000
     2  C    1.450978   0.000000
     3  C    2.409185   1.514545   0.000000
     4  O    2.769325   2.417153   1.203731   0.000000
     5  C    2.549431   1.564009   2.486022   3.262356   0.000000
     6  C    3.090151   2.549367   3.838567   4.627848   1.493888
     7  C    3.598197   3.537669   4.827844   5.401969   2.560124
     8  C    4.004689   3.382910   4.712320   5.682769   2.626974
     9  N    4.606557   4.579482   5.976458   6.653882   3.701455
    10  C    4.830307   4.533859   5.947971   6.823454   3.756023
    11  C    4.665759   3.796953   4.940024   6.059917   3.318652
    12  C    6.014012   5.704270   7.113773   8.062135   5.032253
    13  C    5.855916   5.107113   6.267606   7.402142   4.681851
    14  C    6.435169   5.920221   7.228492   8.293720   5.385354
    15  O    3.562303   2.379854   1.352153   2.243743   3.087072
    16  H    1.000000   2.018082   2.482762   2.393983   2.880004
    17  H    1.000000   2.018082   3.271362   3.689422   2.642172
    18  H    2.081053   1.091227   2.121770   3.203861   2.164047
    19  H    2.797240   2.166234   2.699001   3.085888   1.092385
    20  H    3.453799   2.175074   2.658006   3.554675   1.093115
    21  H    3.727264   3.898157   5.028261   5.371465   2.967985
    22  H    5.344889   5.475553   6.866647   7.466098   4.616409
    23  H    4.545652   3.443547   4.333442   5.508732   3.146845
    24  H    6.777504   6.611923   8.054183   8.947643   5.919774
    25  H    6.553498   5.710829   6.726699   7.905596   5.414562
    26  H    7.444305   6.951665   8.244812   9.328556   6.459697
    27  H    1.000000   2.018082   2.723391   3.061747   3.386427
                    6          7          8          9         10
     6  C    0.000000
     7  C    1.369333   0.000000
     8  C    1.441057   2.248240   0.000000
     9  N    2.252751   1.378617   2.248207   0.000000
    10  C    2.301774   2.244808   1.417338   1.375703   0.000000
    11  C    2.616311   3.636039   1.401646   3.565047   2.426109
    12  C    3.637382   3.612756   2.462050   2.515165   1.393710
    13  C    3.807737   4.578729   2.400932   4.111473   2.756802
    14  C    4.201993   4.569068   2.790985   3.706525   2.375494
    15  O    4.402053   5.592963   4.987182   6.626536   6.352322
    16  H    3.601670   3.929221   4.724696   5.080450   5.502375
    17  H    2.669591   2.903507   3.529446   3.783965   4.115863
    18  H    2.781074   3.922613   3.129558   4.707622   4.354422
    19  H    2.131202   2.708263   3.481146   4.031124   4.403672
    20  H    2.131207   3.330701   2.862069   4.321062   4.136780
    21  H    2.214740   1.077481   3.307735   2.138256   3.258295
    22  H    3.213740   2.121884   3.219262   1.003054   2.122243
    23  H    2.956211   4.200004   2.164426   4.412611   3.416505
    24  H    4.463636   4.153173   3.445917   2.854295   2.164955
    25  H    4.729724   5.607525   3.383659   5.192225   3.838387
    26  H    5.282063   5.592779   3.872586   4.625997   3.361237
    27  H    3.886028   4.440786   4.577074   5.306046   5.398453
                   11         12         13         14         15
    11  C    0.000000
    12  C    2.836985   0.000000
    13  C    1.383504   2.430236   0.000000
    14  C    2.428299   1.384414   1.405013   0.000000
    15  O    4.855163   7.382045   6.112671   7.257560   0.000000
    16  H    5.487812   6.762948   6.726541   7.278135   3.802639
    17  H    4.387343   5.294715   5.481510   5.864008   4.350187
    18  H    3.187022   5.337877   4.402970   5.334625   2.460854
    19  H    4.332265   5.754143   5.671146   6.265796   3.513888
    20  H    3.177634   5.282200   4.535640   5.420970   2.768992
    21  H    4.678417   4.581727   5.655273   5.615471   5.958315
    22  H    4.481017   2.874906   4.859431   4.214079   7.582251
    23  H    1.082352   3.919237   2.143075   3.408282   4.013902
    24  H    3.919434   1.082453   3.415424   2.152668   8.399563
    25  H    2.136908   3.399041   1.081779   2.151288   6.374674
    26  H    3.398618   2.134888   2.153147   1.081794   8.214063
    27  H    5.045916   6.456474   6.139266   6.761083   3.738882
                   16         17         18         19         20
    16  H    0.000000
    17  H    1.632993   0.000000
    18  H    2.895567   2.476826   0.000000
    19  H    2.742082   2.924183   3.051423   0.000000
    20  H    3.792541   3.659728   2.483978   1.758968   0.000000
    21  H    3.789114   3.065733   4.510087   2.708539   3.828096
    22  H    5.743294   4.455017   5.646746   4.819865   5.268824
    23  H    5.345628   4.503228   2.735466   4.204669   2.762304
    24  H    7.481654   5.971377   6.304641   6.545773   6.240949
    25  H    7.450414   6.284996   4.887982   6.444340   5.125642
    26  H    8.308820   6.862647   6.308132   7.346088   6.459385
    27  H    1.632993   1.632993   2.255750   3.743433   4.173827
                   21         22         23         24         25
    21  H    0.000000
    22  H    2.507565   0.000000
    23  H    5.159474   5.377994   0.000000
    24  H    4.991767   2.831160   5.001667   0.000000
    25  H    6.679569   5.936697   2.463827   4.295352   0.000000
    26  H    6.619400   4.996732   4.288081   2.473926   2.463879
    27  H    4.634034   6.028887   4.863464   7.221505   6.738601
                   26         27
    26  H    0.000000
    27  H    7.710988   0.000000
 Stoichiometry    C11H12N2O2
 Framework group  C1[X(C11H12N2O2)]
 Deg. of freedom    75
 Full point group                 C1      NOp   1
 Largest Abelian subgroup         C1      NOp   1
 Largest concise Abelian subgroup C1      NOp   1
                         Standard orientation:                         
 ---------------------------------------------------------------------
 Center     Atomic      Atomic             Coordinates (Angstroms)
 Number     Number       Type             X           Y           Z
 ---------------------------------------------------------------------
      1          7           0       -2.160390   -0.965787    1.403347
      2          6           0       -2.004929    0.082690    0.412456
      3          6           0       -3.379855    0.539607   -0.028737
      4          8           0       -4.361658   -0.155679   -0.068830
      5          6           0       -1.203175   -0.318357   -0.869134
      6          6           0        0.203300   -0.725252   -0.572545
      7          6           0        0.694041   -2.002794   -0.526384
      8          6           0        1.310068    0.142843   -0.259300
      9          7           0        2.034449   -1.984765   -0.204566
     10          6           0        2.441439   -0.681390   -0.036844
     11          6           0        1.457550    1.532979   -0.157415
     12          6           0        3.692802   -0.157662    0.282890
     13          6           0        2.698549    2.056412    0.158850
     14          6           0        3.805138    1.218895    0.378143
     15          8           0       -3.380413    1.827690   -0.440027
     16          1           0       -2.861598   -1.610595    1.099159
     17          1           0       -1.291647   -1.447617    1.517918
     18          1           0       -1.499064    0.934124    0.870647
     19          1           0       -1.735034   -1.139002   -1.355932
     20          1           0       -1.209026    0.526720   -1.562468
     21          1           0        0.188816   -2.935242   -0.716789
     22          1           0        2.622535   -2.793861   -0.129501
     23          1           0        0.615312    2.191664   -0.325504
     24          1           0        4.547650   -0.800395    0.449718
     25          1           0        2.823122    3.127953    0.239634
     26          1           0        4.762576    1.657953    0.624756
     27          1           0       -2.435067   -0.561751    2.275876
 ---------------------------------------------------------------------
 Rotational constants (GHZ):           1.2793560           0.3341380           0.2855697
 Leave Link  202 at Thu Jun 23 12:58:48 2022, MaxMem=  7784628224 cpu:               0.2 elap:               0.0
 (Enter /cm/shared/gaussian/versions/g16.c01/intel64-sandybridge/g16/l301.exe)
 Standard basis: 6-31G(d) (6D, 7F)
 Ernie: Thresh=  0.10000D-02 Tol=  0.10000D-05 Strict=F.
 There are   249 symmetry adapted cartesian basis functions of A   symmetry.
 There are   249 symmetry adapted basis functions of A   symmetry.
   249 basis functions,   468 primitive gaussians,   249 cartesian basis functions
    54 alpha electrons       54 beta electrons
       nuclear repulsion energy       949.6617176431 Hartrees.
 IExCor=  402 DFT=T Ex+Corr=B3LYP ExCW=0 ScaHFX=  0.200000
 ScaDFX=  0.800000  0.720000  1.000000  0.810000 ScalE2=  1.000000  1.000000
 IRadAn=      5 IRanWt=     -1 IRanGd=            0 ICorTp=0 IEmpDi=  4
 NAtoms=   27 NActive=   27 NUniq=   27 SFac= 1.00D+00 NAtFMM=   60 NAOKFM=F Big=F
 Integral buffers will be    131072 words long.
 Raffenetti 2 integral format.
 Two-electron integral symmetry is turned on.
 Force inversion solution in PCM.
 ------------------------------------------------------------------------------
 Polarizable Continuum Model (PCM)
 =================================
 Model                : PCM.
 Atomic radii         : UFF (Universal Force Field).
 Polarization charges : Total charges.
 Charge compensation  : None.
 Solution method      : Matrix inversion.
 Cavity type          : Scaled VdW (van der Waals Surface) (Alpha=1.100).
 Cavity algorithm     : GePol (No added spheres)
                        Default sphere list used, NSphG=   27.
                        Lebedev-Laikov grids with approx.  5.0 points / Ang**2.
                        Smoothing algorithm: York/Karplus (Gamma=1.0000).
                        Polarization charges: spherical gaussians, with
                                              point-specific exponents (IZeta= 3).
                        Self-potential: point-specific (ISelfS= 7).
                        Self-field    : sphere-specific E.n sum rule (ISelfD= 2).
 1st derivatives      : Analytical E(r).r(x)/FMM algorithm (CHGder, D1EAlg=3).
                        Cavity 1st derivative terms included.
 2nd derivatives      : Analytical E(r).r(xy)/FMM algorithm (CHGder, D2EAlg=3).
                        Cavity 2nd derivative terms included.
 Solvent              : Water, Eps=  78.355300 Eps(inf)=   1.777849
 ------------------------------------------------------------------------------
 GePol: Number of generator spheres                  =      27
 GePol: Total number of spheres                      =      27
 GePol: Number of exposed spheres                    =      27 (100.00%)
 GePol: Number of points                             =    2153
 GePol: Average weight of points                     =       0.13
 GePol: Minimum weight of points                     =   0.40D-10
 GePol: Maximum weight of points                     =    0.20577
 GePol: Number of points with low weight             =     146
 GePol: Fraction of low-weight points (<1% of avg)   =       6.78%
 GePol: Cavity surface area                          =    272.659 Ang**2
 GePol: Cavity volume                                =    285.203 Ang**3
 Leave Link  301 at Thu Jun 23 12:58:49 2022, MaxMem=  7784628224 cpu:               1.4 elap:               0.1
 (Enter /cm/shared/gaussian/versions/g16.c01/intel64-sandybridge/g16/l302.exe)
 NPDir=0 NMtPBC=     1 NCelOv=     1 NCel=       1 NClECP=     1 NCelD=      1
         NCelK=      1 NCelE2=     1 NClLst=     1 CellRange=     0.0.
 One-electron integrals computed using PRISM.
 One-electron integral symmetry used in STVInt
 NBasis=   249 RedAO= T EigKep=  3.60D-04  NBF=   249
 NBsUse=   249 1.00D-06 EigRej= -1.00D+00 NBFU=   249
 Precomputing XC quadrature grid using
 IXCGrd= 4 IRadAn=           5 IRanWt=          -1 IRanGd=           0 AccXCQ= 0.00D+00.
 Generated NRdTot=       0 NPtTot=           0 NUsed=           0 NTot=          32
 NSgBfM=   248   248   248   248   248 MxSgAt=    27 MxSgA2=    27.
 Leave Link  302 at Thu Jun 23 12:58:49 2022, MaxMem=  7784628224 cpu:               4.3 elap:               0.3
 (Enter /cm/shared/gaussian/versions/g16.c01/intel64-sandybridge/g16/l303.exe)
 DipDrv:  MaxL=1.
 Leave Link  303 at Thu Jun 23 12:58:49 2022, MaxMem=  7784628224 cpu:               1.4 elap:               0.1
 (Enter /cm/shared/gaussian/versions/g16.c01/intel64-sandybridge/g16/l401.exe)
 ExpMin= 1.61D-01 ExpMax= 5.48D+03 ExpMxC= 8.25D+02 IAcc=3 IRadAn=         5 AccDes= 0.00D+00
 Harris functional with IExCor=  402 and IRadAn=       5 diagonalized for initial guess.
 HarFok:  IExCor=  402 AccDes= 0.00D+00 IRadAn=         5 IDoV= 1 UseB2=F ITyADJ=14
 ICtDFT=  3500011 ScaDFX=  1.000000  1.000000  1.000000  1.000000
 FoFCou: FMM=F IPFlag=           0 FMFlag=      100000 FMFlg1=           0
         NFxFlg=           0 DoJE=T BraDBF=F KetDBF=T FulRan=T
         wScrn=  0.000000 ICntrl=       500 IOpCl=  0 I1Cent=   200000004 NGrid=           0
         NMat0=    1 NMatS0=      1 NMatT0=    0 NMatD0=    1 NMtDS0=    0 NMtDT0=    0
 Petite list used in FoFCou.
 Harris En= -686.384025611145    
 JPrj=0 DoOrth=F DoCkMO=F.
 Leave Link  401 at Thu Jun 23 12:58:51 2022, MaxMem=  7784628224 cpu:              18.0 elap:               1.2
 (Enter /cm/shared/gaussian/versions/g16.c01/intel64-sandybridge/g16/l502.exe)
 Integral symmetry usage will be decided dynamically.
 Closed shell SCF:
 Using DIIS extrapolation, IDIIS=  1040.
 NGot=  7784628224 LenX=  7784496787 LenY=  7784434345
 Requested convergence on RMS density matrix=1.00D-08 within 128 cycles.
 Requested convergence on MAX density matrix=1.00D-06.
 Requested convergence on             energy=1.00D-06.
 No special actions if energy rises.
 Fock matrices will be formed incrementally for  20 cycles.

 Cycle   1  Pass 1  IDiag  1:
 FoFJK:  IHMeth= 1 ICntrl=       0 DoSepK=F KAlg= 0 I1Cent=           0 FoldK=F
 IRaf= 860000000 NMat=       1 IRICut=       1 DoRegI=T DoRafI=F ISym2E= 0 IDoP0=0 IntGTp=1.
 FoFCou: FMM=F IPFlag=           0 FMFlag=      100000 FMFlg1=           0
         NFxFlg=           0 DoJE=F BraDBF=F KetDBF=F FulRan=T
         wScrn=  0.000000 ICntrl=         0 IOpCl=  0 I1Cent=           0 NGrid=           0
         NMat0=    1 NMatS0=      1 NMatT0=    0 NMatD0=    1 NMtDS0=    0 NMtDT0=    0
 Symmetry not used in FoFCou.
 Inv3:  Mode=1 IEnd=    13906227.
 Iteration    1 A*A^-1 deviation from unit magnitude is 4.55D-15 for   2141.
 Iteration    1 A*A^-1 deviation from orthogonality  is 1.94D-15 for   2132   1934.
 Iteration    1 A^-1*A deviation from unit magnitude is 4.55D-15 for   2141.
 Iteration    1 A^-1*A deviation from orthogonality  is 1.93D-15 for   1951    737.
 E= -685.959388613638    
 DIIS: error= 4.24D-02 at cycle   1 NSaved=   1.
 NSaved= 1 IEnMin= 1 EnMin= -685.959388613638     IErMin= 1 ErrMin= 4.24D-02
 ErrMax= 4.24D-02  0.00D+00 EMaxC= 1.00D-01 BMatC= 4.18D-01 BMatP= 4.18D-01
 IDIUse=3 WtCom= 5.76D-01 WtEn= 4.24D-01
 Coeff-Com:  0.100D+01
 Coeff-En:   0.100D+01
 Coeff:      0.100D+01
 Gap=     0.214 Goal=   None    Shift=    0.000
 GapD=    0.214 DampG=1.000 DampE=0.500 DampFc=0.5000 IDamp=-1.
 Damping current iteration by 5.00D-01
 RMSDP=7.31D-03 MaxDP=3.63D-01              OVMax= 2.45D-01

 Cycle   2  Pass 1  IDiag  1:
 RMSU=  3.63D-03    CP:  9.82D-01
 E= -686.105569904370     Delta-E=       -0.146181290733 Rises=F Damp=T
 DIIS: error= 1.17D-02 at cycle   2 NSaved=   2.
 NSaved= 2 IEnMin= 2 EnMin= -686.105569904370     IErMin= 2 ErrMin= 1.17D-02
 ErrMax= 1.17D-02  0.00D+00 EMaxC= 1.00D-01 BMatC= 4.29D-02 BMatP= 4.18D-01
 IDIUse=3 WtCom= 8.83D-01 WtEn= 1.17D-01
 Coeff-Com:  0.143D+00 0.857D+00
 Coeff-En:   0.215D+00 0.785D+00
 Coeff:      0.152D+00 0.848D+00
 Gap=     0.249 Goal=   None    Shift=    0.000
 RMSDP=2.28D-03 MaxDP=1.09D-01 DE=-1.46D-01 OVMax= 1.84D-01

 Cycle   3  Pass 1  IDiag  1:
 RMSU=  1.99D-03    CP:  9.61D-01  7.22D-01
 E= -686.311494531826     Delta-E=       -0.205924627456 Rises=F Damp=F
 DIIS: error= 1.21D-02 at cycle   3 NSaved=   3.
 NSaved= 3 IEnMin= 3 EnMin= -686.311494531826     IErMin= 2 ErrMin= 1.17D-02
 ErrMax= 1.21D-02  0.00D+00 EMaxC= 1.00D-01 BMatC= 3.83D-02 BMatP= 4.29D-02
 IDIUse=3 WtCom= 8.79D-01 WtEn= 1.21D-01
 Coeff-Com:  0.208D-01 0.482D+00 0.497D+00
 Coeff-En:   0.000D+00 0.000D+00 0.100D+01
 Coeff:      0.183D-01 0.424D+00 0.558D+00
 Gap=     0.195 Goal=   None    Shift=    0.000
 RMSDP=1.09D-03 MaxDP=5.27D-02 DE=-2.06D-01 OVMax= 9.26D-02

 Cycle   4  Pass 1  IDiag  1:
 RMSU=  8.00D-04    CP:  9.66D-01  8.17D-01  6.74D-01
 E= -686.336583077139     Delta-E=       -0.025088545312 Rises=F Damp=F
 DIIS: error= 6.38D-03 at cycle   4 NSaved=   4.
 NSaved= 4 IEnMin= 4 EnMin= -686.336583077139     IErMin= 4 ErrMin= 6.38D-03
 ErrMax= 6.38D-03  0.00D+00 EMaxC= 1.00D-01 BMatC= 9.17D-03 BMatP= 3.83D-02
 IDIUse=3 WtCom= 9.36D-01 WtEn= 6.38D-02
 Coeff-Com: -0.113D-03 0.125D+00 0.343D+00 0.532D+00
 Coeff-En:   0.000D+00 0.000D+00 0.206D+00 0.794D+00
 Coeff:     -0.106D-03 0.117D+00 0.334D+00 0.549D+00
 Gap=     0.186 Goal=   None    Shift=    0.000
 RMSDP=4.81D-04 MaxDP=2.33D-02 DE=-2.51D-02 OVMax= 4.96D-02

 Cycle   5  Pass 1  IDiag  1:
 RMSU=  2.39D-04    CP:  9.65D-01  7.72D-01  7.77D-01  5.94D-01
 E= -686.342599590180     Delta-E=       -0.006016513041 Rises=F Damp=F
 DIIS: error= 2.46D-03 at cycle   5 NSaved=   5.
 NSaved= 5 IEnMin= 5 EnMin= -686.342599590180     IErMin= 5 ErrMin= 2.46D-03
 ErrMax= 2.46D-03  0.00D+00 EMaxC= 1.00D-01 BMatC= 1.57D-03 BMatP= 9.17D-03
 IDIUse=3 WtCom= 9.75D-01 WtEn= 2.46D-02
 Coeff-Com: -0.186D-02 0.170D-01 0.163D+00 0.385D+00 0.437D+00
 Coeff-En:   0.000D+00 0.000D+00 0.000D+00 0.133D+00 0.867D+00
 Coeff:     -0.182D-02 0.166D-01 0.159D+00 0.379D+00 0.448D+00
 Gap=     0.183 Goal=   None    Shift=    0.000
 RMSDP=1.55D-04 MaxDP=8.41D-03 DE=-6.02D-03 OVMax= 1.45D-02

 Cycle   6  Pass 1  IDiag  1:
 RMSU=  6.57D-05    CP:  9.65D-01  7.80D-01  7.67D-01  6.61D-01  4.79D-01
 E= -686.343799188599     Delta-E=       -0.001199598419 Rises=F Damp=F
 DIIS: error= 2.73D-04 at cycle   6 NSaved=   6.
 NSaved= 6 IEnMin= 6 EnMin= -686.343799188599     IErMin= 6 ErrMin= 2.73D-04
 ErrMax= 2.73D-04  0.00D+00 EMaxC= 1.00D-01 BMatC= 2.23D-05 BMatP= 1.57D-03
 IDIUse=3 WtCom= 9.97D-01 WtEn= 2.73D-03
 Coeff-Com: -0.761D-03-0.759D-03 0.365D-01 0.103D+00 0.179D+00 0.683D+00
 Coeff-En:   0.000D+00 0.000D+00 0.000D+00 0.000D+00 0.000D+00 0.100D+01
 Coeff:     -0.759D-03-0.757D-03 0.364D-01 0.103D+00 0.178D+00 0.684D+00
 Gap=     0.182 Goal=   None    Shift=    0.000
 RMSDP=2.15D-05 MaxDP=8.10D-04 DE=-1.20D-03 OVMax= 1.02D-03

 Cycle   7  Pass 1  IDiag  1:
 RMSU=  1.33D-05    CP:  9.65D-01  7.81D-01  7.69D-01  6.65D-01  5.16D-01
                    CP:  8.01D-01
 E= -686.343815926549     Delta-E=       -0.000016737950 Rises=F Damp=F
 DIIS: error= 4.86D-05 at cycle   7 NSaved=   7.
 NSaved= 7 IEnMin= 7 EnMin= -686.343815926549     IErMin= 7 ErrMin= 4.86D-05
 ErrMax= 4.86D-05  0.00D+00 EMaxC= 1.00D-01 BMatC= 1.70D-06 BMatP= 2.23D-05
 IDIUse=1 WtCom= 1.00D+00 WtEn= 0.00D+00
 Coeff-Com: -0.310D-03-0.919D-03 0.121D-01 0.359D-01 0.723D-01 0.340D+00
 Coeff-Com:  0.541D+00
 Coeff:     -0.310D-03-0.919D-03 0.121D-01 0.359D-01 0.723D-01 0.340D+00
 Coeff:      0.541D+00
 Gap=     0.182 Goal=   None    Shift=    0.000
 RMSDP=6.27D-06 MaxDP=2.22D-04 DE=-1.67D-05 OVMax= 4.73D-04

 Cycle   8  Pass 1  IDiag  1:
 RMSU=  4.08D-06    CP:  9.65D-01  7.80D-01  7.69D-01  6.66D-01  5.17D-01
                    CP:  8.11D-01  6.95D-01
 E= -686.343817381426     Delta-E=       -0.000001454877 Rises=F Damp=F
 DIIS: error= 1.30D-05 at cycle   8 NSaved=   8.
 NSaved= 8 IEnMin= 8 EnMin= -686.343817381426     IErMin= 8 ErrMin= 1.30D-05
 ErrMax= 1.30D-05  0.00D+00 EMaxC= 1.00D-01 BMatC= 1.19D-07 BMatP= 1.70D-06
 IDIUse=1 WtCom= 1.00D+00 WtEn= 0.00D+00
 Coeff-Com: -0.271D-04-0.317D-03 0.105D-02 0.319D-02 0.108D-01 0.666D-01
 Coeff-Com:  0.233D+00 0.685D+00
 Coeff:     -0.271D-04-0.317D-03 0.105D-02 0.319D-02 0.108D-01 0.666D-01
 Coeff:      0.233D+00 0.685D+00
 Gap=     0.183 Goal=   None    Shift=    0.000
 RMSDP=2.09D-06 MaxDP=6.78D-05 DE=-1.45D-06 OVMax= 1.80D-04

 Cycle   9  Pass 1  IDiag  1:
 RMSU=  1.44D-06    CP:  9.65D-01  7.80D-01  7.70D-01  6.66D-01  5.18D-01
                    CP:  8.19D-01  7.53D-01  7.40D-01
 E= -686.343817477115     Delta-E=       -0.000000095689 Rises=F Damp=F
 DIIS: error= 8.99D-06 at cycle   9 NSaved=   9.
 NSaved= 9 IEnMin= 9 EnMin= -686.343817477115     IErMin= 9 ErrMin= 8.99D-06
 ErrMax= 8.99D-06  0.00D+00 EMaxC= 1.00D-01 BMatC= 2.44D-08 BMatP= 1.19D-07
 IDIUse=1 WtCom= 1.00D+00 WtEn= 0.00D+00
 Coeff-Com:  0.982D-05-0.118D-03-0.382D-03-0.114D-02 0.361D-03 0.112D-01
 Coeff-Com:  0.899D-01 0.399D+00 0.501D+00
 Coeff:      0.982D-05-0.118D-03-0.382D-03-0.114D-02 0.361D-03 0.112D-01
 Coeff:      0.899D-01 0.399D+00 0.501D+00
 Gap=     0.183 Goal=   None    Shift=    0.000
 RMSDP=8.10D-07 MaxDP=2.97D-05 DE=-9.57D-08 OVMax= 6.81D-05

 Cycle  10  Pass 1  IDiag  1:
 RMSU=  4.59D-07    CP:  9.65D-01  7.80D-01  7.70D-01  6.66D-01  5.18D-01
                    CP:  8.19D-01  7.55D-01  8.24D-01  6.16D-01
 E= -686.343817501144     Delta-E=       -0.000000024028 Rises=F Damp=F
 DIIS: error= 1.37D-06 at cycle  10 NSaved=  10.
 NSaved=10 IEnMin=10 EnMin= -686.343817501144     IErMin=10 ErrMin= 1.37D-06
 ErrMax= 1.37D-06  0.00D+00 EMaxC= 1.00D-01 BMatC= 1.17D-09 BMatP= 2.44D-08
 IDIUse=1 WtCom= 1.00D+00 WtEn= 0.00D+00
 Coeff-Com:  0.628D-05-0.249D-04-0.261D-03-0.783D-03-0.825D-03-0.604D-03
 Coeff-Com:  0.206D-01 0.126D+00 0.235D+00 0.621D+00
 Coeff:      0.628D-05-0.249D-04-0.261D-03-0.783D-03-0.825D-03-0.604D-03
 Coeff:      0.206D-01 0.126D+00 0.235D+00 0.621D+00
 Gap=     0.183 Goal=   None    Shift=    0.000
 RMSDP=2.11D-07 MaxDP=8.88D-06 DE=-2.40D-08 OVMax= 1.98D-05

 Cycle  11  Pass 1  IDiag  1:
 RMSU=  1.28D-07    CP:  9.65D-01  7.80D-01  7.70D-01  6.66D-01  5.18D-01
                    CP:  8.19D-01  7.58D-01  8.28D-01  6.68D-01  7.01D-01
 E= -686.343817502160     Delta-E=       -0.000000001016 Rises=F Damp=F
 DIIS: error= 6.66D-07 at cycle  11 NSaved=  11.
 NSaved=11 IEnMin=11 EnMin= -686.343817502160     IErMin=11 ErrMin= 6.66D-07
 ErrMax= 6.66D-07  0.00D+00 EMaxC= 1.00D-01 BMatC= 2.32D-10 BMatP= 1.17D-09
 IDIUse=1 WtCom= 1.00D+00 WtEn= 0.00D+00
 Coeff-Com:  0.200D-05-0.159D-06-0.117D-03-0.343D-03-0.571D-03-0.155D-02
 Coeff-Com:  0.223D-02 0.310D-01 0.810D-01 0.359D+00 0.529D+00
 Coeff:      0.200D-05-0.159D-06-0.117D-03-0.343D-03-0.571D-03-0.155D-02
 Coeff:      0.223D-02 0.310D-01 0.810D-01 0.359D+00 0.529D+00
 Gap=     0.183 Goal=   None    Shift=    0.000
 RMSDP=6.77D-08 MaxDP=3.95D-06 DE=-1.02D-09 OVMax= 6.40D-06

 Cycle  12  Pass 1  IDiag  1:
 RMSU=  3.60D-08    CP:  9.65D-01  7.80D-01  7.70D-01  6.66D-01  5.18D-01
                    CP:  8.19D-01  7.59D-01  8.31D-01  6.67D-01  7.64D-01
                    CP:  6.72D-01
 E= -686.343817502381     Delta-E=       -0.000000000221 Rises=F Damp=F
 DIIS: error= 1.74D-07 at cycle  12 NSaved=  12.
 NSaved=12 IEnMin=12 EnMin= -686.343817502381     IErMin=12 ErrMin= 1.74D-07
 ErrMax= 1.74D-07  0.00D+00 EMaxC= 1.00D-01 BMatC= 1.17D-11 BMatP= 2.32D-10
 IDIUse=1 WtCom= 1.00D+00 WtEn= 0.00D+00
 Coeff-Com: -0.261D-09 0.262D-05-0.254D-04-0.647D-04-0.178D-03-0.565D-03
 Coeff-Com: -0.110D-02 0.830D-03 0.109D-01 0.969D-01 0.218D+00 0.676D+00
 Coeff:     -0.261D-09 0.262D-05-0.254D-04-0.647D-04-0.178D-03-0.565D-03
 Coeff:     -0.110D-02 0.830D-03 0.109D-01 0.969D-01 0.218D+00 0.676D+00
 Gap=     0.183 Goal=   None    Shift=    0.000
 RMSDP=1.84D-08 MaxDP=5.75D-07 DE=-2.21D-10 OVMax= 1.51D-06

 Cycle  13  Pass 1  IDiag  1:
 RMSU=  1.19D-08    CP:  9.65D-01  7.80D-01  7.70D-01  6.66D-01  5.18D-01
                    CP:  8.19D-01  7.59D-01  8.31D-01  6.70D-01  7.72D-01
                    CP:  7.11D-01  7.55D-01
 E= -686.343817502390     Delta-E=       -0.000000000009 Rises=F Damp=F
 DIIS: error= 7.18D-08 at cycle  13 NSaved=  13.
 NSaved=13 IEnMin=13 EnMin= -686.343817502390     IErMin=13 ErrMin= 7.18D-08
 ErrMax= 7.18D-08  0.00D+00 EMaxC= 1.00D-01 BMatC= 2.03D-12 BMatP= 1.17D-11
 IDIUse=1 WtCom= 1.00D+00 WtEn= 0.00D+00
 Coeff-Com: -0.267D-06 0.150D-05-0.362D-05-0.344D-05-0.523D-04-0.189D-03
 Coeff-Com: -0.939D-03-0.280D-02-0.216D-02 0.199D-01 0.688D-01 0.379D+00
 Coeff-Com:  0.538D+00
 Coeff:     -0.267D-06 0.150D-05-0.362D-05-0.344D-05-0.523D-04-0.189D-03
 Coeff:     -0.939D-03-0.280D-02-0.216D-02 0.199D-01 0.688D-01 0.379D+00
 Coeff:      0.538D+00
 Gap=     0.183 Goal=   None    Shift=    0.000
 RMSDP=6.58D-09 MaxDP=2.61D-07 DE=-9.09D-12 OVMax= 4.43D-07

 Error on total polarization charges =  0.00707
 SCF Done:  E(RB3LYP) =  -686.343817502     A.U. after   13 cycles
            NFock= 13  Conv=0.66D-08     -V/T= 2.0089
 KE= 6.803198464628D+02 PE=-3.497315453722D+03 EE= 1.180990072114D+03
 Leave Link  502 at Thu Jun 23 12:59:19 2022, MaxMem=  7784628224 cpu:             426.3 elap:              27.4
 (Enter /cm/shared/gaussian/versions/g16.c01/intel64-sandybridge/g16/l801.exe)
 DoSCS=F DFT=T ScalE2(SS,OS)=  1.000000  1.000000
 Range of M.O.s used for correlation:     1   249
 NBasis=   249 NAE=    54 NBE=    54 NFC=     0 NFV=     0
 NROrb=    249 NOA=    54 NOB=    54 NVA=   195 NVB=   195
 Leave Link  801 at Thu Jun 23 12:59:19 2022, MaxMem=  7784628224 cpu:               0.4 elap:               0.0
 (Enter /cm/shared/gaussian/versions/g16.c01/intel64-sandybridge/g16/l1101.exe)
 Using compressed storage, NAtomX=    27.
 Will process     28 centers per pass.
 Leave Link 1101 at Thu Jun 23 12:59:19 2022, MaxMem=  7784628224 cpu:               4.0 elap:               0.3
 (Enter /cm/shared/gaussian/versions/g16.c01/intel64-sandybridge/g16/l1102.exe)
 Symmetrizing basis deriv contribution to polar:
 IMax=3 JMax=2 DiffMx= 0.00D+00
 Leave Link 1102 at Thu Jun 23 12:59:20 2022, MaxMem=  7784628224 cpu:               0.5 elap:               0.1
 (Enter /cm/shared/gaussian/versions/g16.c01/intel64-sandybridge/g16/l1110.exe)
 Forming Gx(P) for the SCF density, NAtomX=    27.
 Integral derivatives from FoFJK, PRISM(SPDF).
 Do as many integral derivatives as possible in FoFJK.
 G2DrvN: MDV=    7784625307.
 G2DrvN: will do    28 centers at a time, making    1 passes.
 Calling FoFCou, ICntrl=  3107 FMM=F I1Cent=   0 AccDes= 0.00D+00.
 FoFJK:  IHMeth= 1 ICntrl=    3107 DoSepK=F KAlg= 0 I1Cent=           0 FoldK=F
 IRaf=         0 NMat=       1 IRICut=       1 DoRegI=T DoRafI=F ISym2E= 0 IDoP0=0 IntGTp=1.
 FoFCou: FMM=F IPFlag=           0 FMFlag=      100000 FMFlg1=           0
         NFxFlg=           0 DoJE=F BraDBF=F KetDBF=F FulRan=T
         wScrn=  0.000000 ICntrl=      3107 IOpCl=  0 I1Cent=           0 NGrid=           0
         NMat0=    1 NMatS0=      1 NMatT0=    0 NMatD0=    1 NMtDS0=    0 NMtDT0=    0
 Symmetry not used in FoFCou.
 NEqPCM:  Using equilibrium solvation (IEInf=0, Eps=  78.3553, EpsInf=   1.7778)
 G2PCM: DoFxE=T DoFxN=T DoGrad=T DoDP/DQ/DG/TGxP=FFFF NFrqRd=   0 IEInf=0 SqF1=F DoCFld=F IF1Alg=4.
 GePol: Maximum number of non-zero 1st derivatives   =     215
 End of G2Drv F.D. properties file   721 does not exist.
 End of G2Drv F.D. properties file   722 does not exist.
 End of G2Drv F.D. properties file   788 does not exist.
 Leave Link 1110 at Thu Jun 23 13:00:15 2022, MaxMem=  7784628224 cpu:             878.5 elap:              55.0
 (Enter /cm/shared/gaussian/versions/g16.c01/intel64-sandybridge/g16/l1002.exe)
 Minotr:  Closed shell wavefunction.
          IDoAtm=111111111111111111111111111
 NEqPCM:  Using equilibrium solvation (IEInf=0, Eps=  78.3553, EpsInf=   1.7778)
          Direct CPHF calculation.
          Differentiating once with respect to electric field.
                with respect to dipole field.
          Differentiating once with respect to nuclear coordinates.
          Requested convergence is 1.0D-08 RMS, and 1.0D-07 maximum.
          Secondary convergence is 1.0D-12 RMS, and 1.0D-12 maximum.
          NewPWx=T KeepS1=F KeepF1=F KeepIn=T MapXYZ=F SortEE=F KeepMc=T.
         8061 words used for storage of precomputed grid.
 Keep R1 ints in memory in canonical form, NReq=501662310.
 FoFCou: FMM=F IPFlag=           0 FMFlag=           0 FMFlg1=           0
         NFxFlg=           0 DoJE=F BraDBF=F KetDBF=F FulRan=T
         wScrn=  0.000000 ICntrl=       600 IOpCl=  0 I1Cent=           0 NGrid=           0
         NMat0=    1 NMatS0=  31125 NMatT0=    0 NMatD0=    1 NMtDS0=    0 NMtDT0=    0
 Symmetry not used in FoFCou.
 Two-electron integral symmetry not used.
          MDV=    7784628224 using IRadAn=       1.
          Solving linear equations simultaneously, MaxMat=       0.
          There are    84 degrees of freedom in the 1st order CPHF.  IDoFFX=6 NUNeed=     3.
     81 vectors produced by pass  0 Test12= 1.25D-14 1.19D-09 XBig12= 2.02D+02 7.78D+00.
 AX will form    81 AO Fock derivatives at one time.
     81 vectors produced by pass  1 Test12= 1.25D-14 1.19D-09 XBig12= 3.45D+01 1.03D+00.
     81 vectors produced by pass  2 Test12= 1.25D-14 1.19D-09 XBig12= 2.64D-01 4.73D-02.
     81 vectors produced by pass  3 Test12= 1.25D-14 1.19D-09 XBig12= 8.00D-04 4.62D-03.
     81 vectors produced by pass  4 Test12= 1.25D-14 1.19D-09 XBig12= 1.13D-06 1.35D-04.
     59 vectors produced by pass  5 Test12= 1.25D-14 1.19D-09 XBig12= 1.23D-09 3.95D-06.
      6 vectors produced by pass  6 Test12= 1.25D-14 1.19D-09 XBig12= 1.10D-12 8.42D-08.
      2 vectors produced by pass  7 Test12= 1.25D-14 1.19D-09 XBig12= 8.41D-16 3.32D-09.
 InvSVY:  IOpt=1 It=  1 EMax= 1.42D-14
 Solved reduced A of dimension   472 with    84 vectors.
 FullF1:  Do perturbations      1 to       3.
 Isotropic polarizability for W=    0.000000      167.10 Bohr**3.
 End of Minotr F.D. properties file   721 does not exist.
 End of Minotr F.D. properties file   722 does not exist.
 End of Minotr F.D. properties file   788 does not exist.
 Leave Link 1002 at Thu Jun 23 13:01:17 2022, MaxMem=  7784628224 cpu:             978.0 elap:              61.3
 (Enter /cm/shared/gaussian/versions/g16.c01/intel64-sandybridge/g16/l601.exe)
 Copying SCF densities to generalized density rwf, IOpCl= 0 IROHF=0.

 **********************************************************************

            Population analysis using the SCF Density.

 **********************************************************************

 Orbital symmetries:
       Occupied  (A) (A) (A) (A) (A) (A) (A) (A) (A) (A) (A) (A)
                 (A) (A) (A) (A) (A) (A) (A) (A) (A) (A) (A) (A)
                 (A) (A) (A) (A) (A) (A) (A) (A) (A) (A) (A) (A)
                 (A) (A) (A) (A) (A) (A) (A) (A) (A) (A) (A) (A)
                 (A) (A) (A) (A) (A) (A)
       Virtual   (A) (A) (A) (A) (A) (A) (A) (A) (A) (A) (A) (A)
                 (A) (A) (A) (A) (A) (A) (A) (A) (A) (A) (A) (A)
                 (A) (A) (A) (A) (A) (A) (A) (A) (A) (A) (A) (A)
                 (A) (A) (A) (A) (A) (A) (A) (A) (A) (A) (A) (A)
                 (A) (A) (A) (A) (A) (A) (A) (A) (A) (A) (A) (A)
                 (A) (A) (A) (A) (A) (A) (A) (A) (A) (A) (A) (A)
                 (A) (A) (A) (A) (A) (A) (A) (A) (A) (A) (A) (A)
                 (A) (A) (A) (A) (A) (A) (A) (A) (A) (A) (A) (A)
                 (A) (A) (A) (A) (A) (A) (A) (A) (A) (A) (A) (A)
                 (A) (A) (A) (A) (A) (A) (A) (A) (A) (A) (A) (A)
                 (A) (A) (A) (A) (A) (A) (A) (A) (A) (A) (A) (A)
                 (A) (A) (A) (A) (A) (A) (A) (A) (A) (A) (A) (A)
                 (A) (A) (A) (A) (A) (A) (A) (A) (A) (A) (A) (A)
                 (A) (A) (A) (A) (A) (A) (A) (A) (A) (A) (A) (A)
                 (A) (A) (A) (A) (A) (A) (A) (A) (A) (A) (A) (A)
                 (A) (A) (A) (A) (A) (A) (A) (A) (A) (A) (A) (A)
                 (A) (A) (A)
 The electronic state is 1-A.
 Alpha  occ. eigenvalues --  -19.09090 -19.04733 -14.45969 -14.37855 -10.25846
 Alpha  occ. eigenvalues --  -10.24342 -10.22194 -10.21997 -10.20646 -10.18879
 Alpha  occ. eigenvalues --  -10.18677 -10.18661 -10.18586 -10.18477 -10.18085
 Alpha  occ. eigenvalues --   -1.04065  -1.01062  -0.98233  -0.88285  -0.84317
 Alpha  occ. eigenvalues --   -0.81356  -0.76334  -0.73766  -0.72308  -0.67277
 Alpha  occ. eigenvalues --   -0.62452  -0.61397  -0.60664  -0.59359  -0.56427
 Alpha  occ. eigenvalues --   -0.54205  -0.52178  -0.49177  -0.48119  -0.47156
 Alpha  occ. eigenvalues --   -0.44421  -0.43316  -0.43134  -0.42198  -0.41042
 Alpha  occ. eigenvalues --   -0.40638  -0.39325  -0.37993  -0.37038  -0.35700
 Alpha  occ. eigenvalues --   -0.34799  -0.33779  -0.33449  -0.27960  -0.23550
 Alpha  occ. eigenvalues --   -0.22683  -0.21638  -0.20850  -0.19593
 Alpha virt. eigenvalues --   -0.01341   0.02191   0.04369   0.05498   0.06900
 Alpha virt. eigenvalues --    0.09725   0.10072   0.10729   0.11633   0.12769
 Alpha virt. eigenvalues --    0.14287   0.15036   0.15266   0.16883   0.17938
 Alpha virt. eigenvalues --    0.18690   0.18980   0.21018   0.23242   0.23952
 Alpha virt. eigenvalues --    0.24695   0.26832   0.27732   0.28468   0.32388
 Alpha virt. eigenvalues --    0.34435   0.35373   0.37095   0.38797   0.40434
 Alpha virt. eigenvalues --    0.43941   0.48692   0.50250   0.50991   0.52020
 Alpha virt. eigenvalues --    0.53427   0.55468   0.55620   0.55966   0.57075
 Alpha virt. eigenvalues --    0.58341   0.58565   0.59549   0.60327   0.60871
 Alpha virt. eigenvalues --    0.61249   0.62014   0.62353   0.62569   0.64537
 Alpha virt. eigenvalues --    0.65711   0.68860   0.69246   0.69863   0.71410
 Alpha virt. eigenvalues --    0.72227   0.74193   0.77085   0.78400   0.80746
 Alpha virt. eigenvalues --    0.80914   0.81663   0.82398   0.83023   0.84034
 Alpha virt. eigenvalues --    0.84239   0.85096   0.85583   0.86626   0.88116
 Alpha virt. eigenvalues --    0.88320   0.91282   0.92256   0.93152   0.93625
 Alpha virt. eigenvalues --    0.94820   0.96036   0.97439   0.97878   0.99991
 Alpha virt. eigenvalues --    1.01625   1.02831   1.04487   1.08486   1.10175
 Alpha virt. eigenvalues --    1.11580   1.12427   1.12635   1.14173   1.18633
 Alpha virt. eigenvalues --    1.22527   1.22956   1.24020   1.25621   1.27122
 Alpha virt. eigenvalues --    1.31869   1.33836   1.35034   1.37222   1.39303
 Alpha virt. eigenvalues --    1.41508   1.42896   1.44771   1.45890   1.46735
 Alpha virt. eigenvalues --    1.49662   1.49882   1.50558   1.53003   1.53820
 Alpha virt. eigenvalues --    1.58583   1.61265   1.69984   1.73607   1.74379
 Alpha virt. eigenvalues --    1.77165   1.78886   1.80621   1.80956   1.82151
 Alpha virt. eigenvalues --    1.83142   1.87174   1.87937   1.88491   1.90384
 Alpha virt. eigenvalues --    1.91718   1.92594   1.95253   1.95621   1.97176
 Alpha virt. eigenvalues --    1.98270   2.00185   2.02423   2.02781   2.04281
 Alpha virt. eigenvalues --    2.05323   2.07429   2.07958   2.11672   2.13814
 Alpha virt. eigenvalues --    2.15744   2.17085   2.18051   2.19049   2.24313
 Alpha virt. eigenvalues --    2.25426   2.25968   2.28123   2.29734   2.32775
 Alpha virt. eigenvalues --    2.35439   2.37013   2.39567   2.40291   2.43559
 Alpha virt. eigenvalues --    2.45803   2.50064   2.51263   2.57248   2.59926
 Alpha virt. eigenvalues --    2.60672   2.61647   2.63817   2.67177   2.69254
 Alpha virt. eigenvalues --    2.71472   2.74538   2.75940   2.78125   2.82106
 Alpha virt. eigenvalues --    2.84001   2.87203   2.92399   2.94057   2.99686
 Alpha virt. eigenvalues --    3.02884   3.13716   3.16425   3.25224   3.45803
 Alpha virt. eigenvalues --    3.77376   3.94695   4.02679   4.09845   4.11732
 Alpha virt. eigenvalues --    4.16632   4.20802   4.22020   4.29536   4.35487
 Alpha virt. eigenvalues --    4.38677   4.40820   4.55858   4.63993   4.80010
          Condensed to atoms (all electrons):
               1          2          3          4          5          6
     1  N    6.831515   0.100912  -0.029557  -0.002063  -0.038124  -0.006499
     2  C    0.100912   5.596120   0.184049  -0.120127   0.337903  -0.048574
     3  C   -0.029557   0.184049   4.389909   0.520510  -0.031253   0.003162
     4  O   -0.002063  -0.120127   0.520510   8.234246  -0.003037  -0.000047
     5  C   -0.038124   0.337903  -0.031253  -0.003037   5.231393   0.348108
     6  C   -0.006499  -0.048574   0.003162  -0.000047   0.348108   5.008016
     7  C   -0.001486  -0.002848  -0.000176   0.000000  -0.090424   0.483977
     8  C   -0.000254  -0.002027   0.000173  -0.000000  -0.064987   0.402542
     9  N    0.000008   0.000027   0.000000  -0.000000   0.005751  -0.055095
    10  C    0.000039  -0.000067   0.000003  -0.000000   0.010788   0.006773
    11  C    0.000044   0.000573  -0.000110  -0.000000  -0.014384  -0.115607
    12  C    0.000000  -0.000001  -0.000000  -0.000000  -0.000230   0.013602
    13  C   -0.000000   0.000003  -0.000001  -0.000000   0.000053   0.008671
    14  C   -0.000000  -0.000000   0.000000   0.000000   0.000006  -0.000182
    15  O    0.003497  -0.117729   0.457777  -0.102515  -0.005495   0.000050
    16  H    0.270119  -0.037318   0.002689   0.032548  -0.001248  -0.000174
    17  H    0.275249  -0.021876   0.003781  -0.000123  -0.005262   0.019142
    18  H   -0.042014   0.357516  -0.021811   0.003101  -0.031007  -0.007011
    19  H   -0.004170  -0.043083  -0.002378   0.003415   0.361385  -0.030099
    20  H    0.004669  -0.039730   0.001561  -0.000003   0.348178  -0.022776
    21  H   -0.000025   0.000078   0.000001   0.000000  -0.002672  -0.032618
    22  H   -0.000000   0.000001  -0.000000   0.000000  -0.000083   0.003908
    23  H    0.000029  -0.000205   0.000145   0.000001   0.002517  -0.008952
    24  H   -0.000000  -0.000000  -0.000000   0.000000   0.000002  -0.000233
    25  H   -0.000000   0.000000  -0.000000  -0.000000   0.000000  -0.000187
    26  H   -0.000000   0.000000   0.000000   0.000000  -0.000000   0.000011
    27  H    0.314928  -0.024530   0.000607   0.001206   0.003684  -0.000069
               7          8          9         10         11         12
     1  N   -0.001486  -0.000254   0.000008   0.000039   0.000044   0.000000
     2  C   -0.002848  -0.002027   0.000027  -0.000067   0.000573  -0.000001
     3  C   -0.000176   0.000173   0.000000   0.000003  -0.000110  -0.000000
     4  O    0.000000  -0.000000  -0.000000  -0.000000  -0.000000  -0.000000
     5  C   -0.090424  -0.064987   0.005751   0.010788  -0.014384  -0.000230
     6  C    0.483977   0.402542  -0.055095   0.006773  -0.115607   0.013602
     7  C    5.055798   0.009502   0.317576  -0.135927   0.016877   0.005557
     8  C    0.009502   4.807026  -0.059882   0.455827   0.483004  -0.051918
     9  N    0.317576  -0.059882   6.996902   0.280263   0.011722  -0.094785
    10  C   -0.135927   0.455827   0.280263   4.757517  -0.063084   0.478870
    11  C    0.016877   0.483004   0.011722  -0.063084   5.165572  -0.061160
    12  C    0.005557  -0.051918  -0.094785   0.478870  -0.061160   5.074770
    13  C   -0.000381  -0.000898  -0.000214  -0.045380   0.505144  -0.027093
    14  C   -0.000108  -0.038887   0.005515  -0.000903  -0.024090   0.523895
    15  O   -0.000003   0.000030   0.000000  -0.000000  -0.000093  -0.000000
    16  H    0.000107   0.000001  -0.000002  -0.000002   0.000001   0.000000
    17  H    0.011622   0.000183  -0.000584  -0.000236  -0.000134   0.000002
    18  H   -0.000124   0.003113   0.000002  -0.000054   0.001897  -0.000003
    19  H   -0.004781   0.003445  -0.000022  -0.000025  -0.000042   0.000004
    20  H    0.003087  -0.004130  -0.000071  -0.000205   0.003237  -0.000007
    21  H    0.369831   0.003578  -0.045160   0.004747  -0.000143  -0.000114
    22  H   -0.028289   0.006603   0.323886  -0.024894  -0.000104  -0.004248
    23  H   -0.000180  -0.039704  -0.000104   0.005384   0.355199   0.000288
    24  H   -0.000020   0.004397  -0.005738  -0.035359   0.000487   0.353904
    25  H    0.000005   0.002523   0.000003   0.000982  -0.038955   0.004705
    26  H    0.000003   0.001031  -0.000113   0.002700   0.004608  -0.039490
    27  H   -0.000004  -0.000031   0.000000  -0.000002  -0.000002   0.000000
              13         14         15         16         17         18
     1  N   -0.000000  -0.000000   0.003497   0.270119   0.275249  -0.042014
     2  C    0.000003  -0.000000  -0.117729  -0.037318  -0.021876   0.357516
     3  C   -0.000001   0.000000   0.457777   0.002689   0.003781  -0.021811
     4  O   -0.000000   0.000000  -0.102515   0.032548  -0.000123   0.003101
     5  C    0.000053   0.000006  -0.005495  -0.001248  -0.005262  -0.031007
     6  C    0.008671  -0.000182   0.000050  -0.000174   0.019142  -0.007011
     7  C   -0.000381  -0.000108  -0.000003   0.000107   0.011622  -0.000124
     8  C   -0.000898  -0.038887   0.000030   0.000001   0.000183   0.003113
     9  N   -0.000214   0.005515   0.000000  -0.000002  -0.000584   0.000002
    10  C   -0.045380  -0.000903  -0.000000  -0.000002  -0.000236  -0.000054
    11  C    0.505144  -0.024090  -0.000093   0.000001  -0.000134   0.001897
    12  C   -0.027093   0.523895  -0.000000   0.000000   0.000002  -0.000003
    13  C    4.921559   0.517849  -0.000000   0.000000  -0.000001  -0.000014
    14  C    0.517849   4.902896   0.000000  -0.000000   0.000001   0.000001
    15  O   -0.000000   0.000000   8.469632   0.000812  -0.000128   0.010100
    16  H    0.000000  -0.000000   0.000812   0.332527  -0.011948   0.004888
    17  H   -0.000001   0.000001  -0.000128  -0.011948   0.328307  -0.002328
    18  H   -0.000014   0.000001   0.010100   0.004888  -0.002328   0.523307
    19  H    0.000002  -0.000000   0.000093   0.003660  -0.000034   0.005406
    20  H   -0.000029   0.000002   0.011129  -0.000093   0.000359  -0.003526
    21  H    0.000004   0.000002   0.000000   0.000047   0.000196   0.000011
    22  H   -0.000003  -0.000068  -0.000000   0.000000  -0.000002   0.000000
    23  H   -0.046307   0.004833   0.000353  -0.000001  -0.000003   0.001470
    24  H    0.004321  -0.041812  -0.000000  -0.000000   0.000000  -0.000000
    25  H    0.361680  -0.041212  -0.000000   0.000000   0.000000  -0.000003
    26  H   -0.040117   0.361071   0.000000  -0.000000  -0.000000  -0.000000
    27  H    0.000000   0.000000   0.000182  -0.010144  -0.012682  -0.004380
              19         20         21         22         23         24
     1  N   -0.004170   0.004669  -0.000025  -0.000000   0.000029  -0.000000
     2  C   -0.043083  -0.039730   0.000078   0.000001  -0.000205  -0.000000
     3  C   -0.002378   0.001561   0.000001  -0.000000   0.000145  -0.000000
     4  O    0.003415  -0.000003   0.000000   0.000000   0.000001   0.000000
     5  C    0.361385   0.348178  -0.002672  -0.000083   0.002517   0.000002
     6  C   -0.030099  -0.022776  -0.032618   0.003908  -0.008952  -0.000233
     7  C   -0.004781   0.003087   0.369831  -0.028289  -0.000180  -0.000020
     8  C    0.003445  -0.004130   0.003578   0.006603  -0.039704   0.004397
     9  N   -0.000022  -0.000071  -0.045160   0.323886  -0.000104  -0.005738
    10  C   -0.000025  -0.000205   0.004747  -0.024894   0.005384  -0.035359
    11  C   -0.000042   0.003237  -0.000143  -0.000104   0.355199   0.000487
    12  C    0.000004  -0.000007  -0.000114  -0.004248   0.000288   0.353904
    13  C    0.000002  -0.000029   0.000004  -0.000003  -0.046307   0.004321
    14  C   -0.000000   0.000002   0.000002  -0.000068   0.004833  -0.041812
    15  O    0.000093   0.011129   0.000000  -0.000000   0.000353  -0.000000
    16  H    0.003660  -0.000093   0.000047   0.000000  -0.000001  -0.000000
    17  H   -0.000034   0.000359   0.000196  -0.000002  -0.000003   0.000000
    18  H    0.005406  -0.003526   0.000011   0.000000   0.001470  -0.000000
    19  H    0.558921  -0.027256   0.003309  -0.000006  -0.000052  -0.000000
    20  H   -0.027256   0.535972  -0.000033   0.000003   0.002028   0.000000
    21  H    0.003309  -0.000033   0.519391  -0.001953  -0.000002   0.000001
    22  H   -0.000006   0.000003  -0.001953   0.361467   0.000004   0.002386
    23  H   -0.000052   0.002028  -0.000002   0.000004   0.586020   0.000018
    24  H   -0.000000   0.000000   0.000001   0.002386   0.000018   0.573794
    25  H   -0.000000  -0.000000  -0.000000  -0.000000  -0.005253  -0.000167
    26  H   -0.000000  -0.000000  -0.000000  -0.000001  -0.000177  -0.005263
    27  H   -0.000068  -0.000085   0.000001   0.000000  -0.000001  -0.000000
              25         26         27
     1  N   -0.000000  -0.000000   0.314928
     2  C    0.000000   0.000000  -0.024530
     3  C   -0.000000   0.000000   0.000607
     4  O   -0.000000   0.000000   0.001206
     5  C    0.000000  -0.000000   0.003684
     6  C   -0.000187   0.000011  -0.000069
     7  C    0.000005   0.000003  -0.000004
     8  C    0.002523   0.001031  -0.000031
     9  N    0.000003  -0.000113   0.000000
    10  C    0.000982   0.002700  -0.000002
    11  C   -0.038955   0.004608  -0.000002
    12  C    0.004705  -0.039490   0.000000
    13  C    0.361680  -0.040117   0.000000
    14  C   -0.041212   0.361071   0.000000
    15  O   -0.000000   0.000000   0.000182
    16  H    0.000000  -0.000000  -0.010144
    17  H    0.000000  -0.000000  -0.012682
    18  H   -0.000003  -0.000000  -0.004380
    19  H   -0.000000  -0.000000  -0.000068
    20  H   -0.000000  -0.000000  -0.000085
    21  H   -0.000000  -0.000000   0.000001
    22  H   -0.000000  -0.000001   0.000000
    23  H   -0.005253  -0.000177  -0.000001
    24  H   -0.000167  -0.005263  -0.000000
    25  H    0.585554  -0.005286   0.000000
    26  H   -0.005286   0.581585  -0.000000
    27  H    0.000000  -0.000000   0.289968
 Mulliken charges:
               1
     1  N   -0.676816
     2  C   -0.119067
     3  C    0.520920
     4  O   -0.567111
     5  C   -0.361562
     6  C    0.030164
     7  C   -0.009191
     8  C    0.079741
     9  N   -0.679888
    10  C    0.302243
    11  C   -0.230454
    12  C   -0.176546
    13  C   -0.158847
    14  C   -0.168809
    15  O   -0.727693
    16  H    0.413533
    17  H    0.416499
    18  H    0.201462
    19  H    0.172379
    20  H    0.187719
    21  H    0.181523
    22  H    0.361395
    23  H    0.142653
    24  H    0.149283
    25  H    0.135609
    26  H    0.139440
    27  H    0.441422
 Sum of Mulliken charges =  -0.00000
 Mulliken charges with hydrogens summed into heavy atoms:
               1
     1  N    0.594638
     2  C    0.082395
     3  C    0.520920
     4  O   -0.567111
     5  C   -0.001464
     6  C    0.030164
     7  C    0.172332
     8  C    0.079741
     9  N   -0.318493
    10  C    0.302243
    11  C   -0.087802
    12  C   -0.027263
    13  C   -0.023239
    14  C   -0.029369
    15  O   -0.727693
 APT charges:
               1
     1  N   -0.415969
     2  C    0.141697
     3  C    1.319212
     4  O   -1.070541
     5  C    0.240385
     6  C   -0.180653
     7  C    0.205366
     8  C   -0.004274
     9  N   -0.694376
    10  C    0.208389
    11  C    0.046606
    12  C    0.010961
    13  C   -0.096519
    14  C   -0.052806
    15  O   -1.093195
    16  H    0.336849
    17  H    0.333000
    18  H    0.028760
    19  H   -0.040567
    20  H    0.012291
    21  H    0.083129
    22  H    0.301343
    23  H    0.029324
    24  H    0.027488
    25  H    0.008790
    26  H    0.013294
    27  H    0.302016
 Sum of APT charges =   0.00000
 APT charges with hydrogens summed into heavy atoms:
               1
     1  N    0.555896
     2  C    0.170457
     3  C    1.319212
     4  O   -1.070541
     5  C    0.212109
     6  C   -0.180653
     7  C    0.288495
     8  C   -0.004274
     9  N   -0.393032
    10  C    0.208389
    11  C    0.075930
    12  C    0.038449
    13  C   -0.087729
    14  C   -0.039512
    15  O   -1.093195
 Electronic spatial extent (au):  <R**2>=           3738.2188
 Charge=             -0.0000 electrons
 Dipole moment (field-independent basis, Debye):
    X=              9.6424    Y=            -11.2735    Z=              6.8959  Tot=             16.3591
 Quadrupole moment (field-independent basis, Debye-Ang):
   XX=           -127.0352   YY=            -77.4904   ZZ=            -78.3278
   XY=             16.7267   XZ=            -15.9320   YZ=             -1.3765
 Traceless Quadrupole moment (field-independent basis, Debye-Ang):
   XX=            -32.7507   YY=             16.7941   ZZ=             15.9566
   XY=             16.7267   XZ=            -15.9320   YZ=             -1.3765
 Octapole moment (field-independent basis, Debye-Ang**2):
  XXX=            251.7999  YYY=            -66.6114  ZZZ=             29.1904  XYY=             42.4460
  XXY=            -94.5781  XXZ=             60.9035  XZZ=            -43.3695  YZZ=            -13.5479
  YYZ=             11.6315  XYZ=              3.0548
 Hexadecapole moment (field-independent basis, Debye-Ang**3):
 XXXX=          -4514.6823 YYYY=           -808.2688 ZZZZ=           -214.6566 XXXY=            153.7800
 XXXZ=           -121.8342 YYYX=             31.7734 YYYZ=              5.9182 ZZZX=            -67.7959
 ZZZY=            -26.6823 XXYY=           -767.8970 XXZZ=           -620.1877 YYZZ=           -196.7178
 XXYZ=             13.0889 YYXZ=            -32.5051 ZZXY=             14.5712
 N-N= 9.496617176431D+02 E-N=-3.497315448663D+03  KE= 6.803198464628D+02
 There are a total of      609276 grid points.
 ElSum from          density=      107.9999995907
 ElSum from atomic densities=      108.0000062722
 Hirshfeld populations at iteration   1 (CA, CB, DipXYZ):
               1          2          3          4          5
     1  N    3.466993   3.466993  -0.002245  -0.028917   0.047532
     2  C    2.982923   2.982923   0.012633  -0.093530   0.072911
     3  C    2.945235   2.945235   0.066288  -0.059730   0.042107
     4  O    4.200265   4.200265   0.129967   0.074599   0.007788
     5  C    3.019872   3.019872   0.003017   0.007925   0.003319
     6  C    3.026221   3.026221  -0.072788   0.061077  -0.021481
     7  C    3.003390   3.003390   0.035426  -0.116020  -0.002810
     8  C    3.019753   3.019753  -0.021807   0.019132  -0.005562
     9  N    3.527743   3.527743   0.046124  -0.052132   0.003563
    10  C    2.987291   2.987291   0.013245  -0.082700  -0.001814
    11  C    3.027170   3.027170  -0.063846   0.026593  -0.015674
    12  C    3.030753   3.030753   0.046412  -0.061114   0.007340
    13  C    3.032525   3.032525   0.020274   0.063074   0.007539
    14  C    3.028657   3.028657   0.055628   0.037458   0.014892
    15  O    4.262860   4.262860   0.023092  -0.186058   0.058777
    16  H    0.409948   0.409948  -0.090036  -0.148043  -0.020381
    17  H    0.410902   0.410902   0.121663  -0.091905   0.059134
    18  H    0.473872   0.473872   0.070019   0.105335   0.076572
    19  H    0.478163   0.478163  -0.066747  -0.110063  -0.068837
    20  H    0.475024   0.475024   0.015084   0.099543  -0.104925
    21  H    0.467007   0.467007  -0.074729  -0.144766  -0.029224
    22  H    0.418143   0.418143   0.120419  -0.169843   0.014846
    23  H    0.477367   0.477367  -0.111270   0.095755  -0.022965
    24  H    0.474811   0.474811   0.123095  -0.091539   0.024006
    25  H    0.478716   0.478716   0.017876   0.150255   0.011415
    26  H    0.477588   0.477588   0.134774   0.062321   0.034704
    27  H    0.396807   0.396807  -0.050856   0.070864   0.187567
       Tot  54.000000  54.000000   0.500713  -0.562430   0.380342

 Dip from Atomic Chgs              3.292921  -3.872905   2.332745
         Total Dipole              3.793634  -4.435335   2.713087

 Hirshfeld charges, spin densities, dipoles, and CM5 charges using IRadAn=      5:
              Q-H        S-H        Dx         Dy         Dz        Q-CM5   
     1  N    0.066014   0.000000  -0.002245  -0.028917   0.047532  -0.582833
     2  C    0.034153   0.000000   0.012633  -0.093530   0.072911   0.026056
     3  C    0.109529   0.000000   0.066288  -0.059730   0.042107   0.169438
     4  O   -0.400530   0.000000   0.129967   0.074599   0.007788  -0.446399
     5  C   -0.039744   0.000000   0.003017   0.007925   0.003319  -0.135972
     6  C   -0.052442   0.000000  -0.072788   0.061077  -0.021481  -0.056411
     7  C   -0.006779   0.000000   0.035426  -0.116020  -0.002810   0.006763
     8  C   -0.039506   0.000000  -0.021807   0.019132  -0.005562  -0.036797
     9  N   -0.055487   0.000000   0.046124  -0.052132   0.003563  -0.413007
    10  C    0.025419   0.000000   0.013245  -0.082700  -0.001814   0.086182
    11  C   -0.054340   0.000000  -0.063846   0.026593  -0.015674  -0.107076
    12  C   -0.061505   0.000000   0.046412  -0.061114   0.007340  -0.110489
    13  C   -0.065050   0.000000   0.020274   0.063074   0.007539  -0.120882
    14  C   -0.057315   0.000000   0.055628   0.037458   0.014892  -0.112941
    15  O   -0.525719   0.000000   0.023092  -0.186058   0.058777  -0.560394
    16  H    0.180104   0.000000  -0.090036  -0.148043  -0.020381   0.380278
    17  H    0.178196   0.000000   0.121663  -0.091905   0.059134   0.374488
    18  H    0.052256   0.000000   0.070019   0.105335   0.076572   0.126053
    19  H    0.043674   0.000000  -0.066747  -0.110063  -0.068837   0.103540
    20  H    0.049952   0.000000   0.015084   0.099543  -0.104925   0.108999
    21  H    0.065987   0.000000  -0.074729  -0.144766  -0.029224   0.130652
    22  H    0.163714   0.000000   0.120419  -0.169843   0.014846   0.359016
    23  H    0.045266   0.000000  -0.111270   0.095755  -0.022965   0.102287
    24  H    0.050378   0.000000   0.123095  -0.091539   0.024006   0.108133
    25  H    0.042568   0.000000   0.017876   0.150255   0.011415   0.098759
    26  H    0.044824   0.000000   0.134774   0.062321   0.034704   0.101031
    27  H    0.206385   0.000000  -0.050856   0.070864   0.187567   0.401527
       Tot   0.000000   0.000000   0.500713  -0.562430   0.380342   0.000000
 Hirshfeld charges with hydrogens summed into heavy atoms:
              Q-H       Q-CM5   
     1  N    0.630699   0.573460
     2  C    0.086409   0.152110
     3  C    0.109529   0.169438
     4  O   -0.400530  -0.446399
     5  C    0.053882   0.076567
     6  C   -0.052442  -0.056411
     7  C    0.059208   0.137415
     8  C   -0.039506  -0.036797
     9  N    0.108227  -0.053992
    10  C    0.025419   0.086182
[...]
 715,-0.00070167,-0.00023098,0.00020372,-0.00038566,0.00000759,-0.00023
 240,-0.00026457,-0.00054038,0.00088758,0.00025185,0.00075397,-0.018122
 20,0.01639760,-0.01041291,0.21342514,0.00333481,-0.00174782,-0.0053918
 6,0.00202229,0.02118362,-0.02046236,-0.00107656,0.00240543,-0.00169662
 ,0.00019714,-0.00083579,0.00073003,-0.00710572,0.12977508,-0.16118769,
 -0.00189256,0.00322254,-0.00118299,0.00049854,-0.00067222,-0.00034257,
 0.00033501,0.00025789,0.00049211,-0.00048179,-0.00018823,-0.00025868,-
 0.00010243,0.00052619,0.00003177,-0.00029396,0.00006777,-0.00014751,-0
 .00000583,-0.00011852,0.00003458,0.00012999,-0.00015704,0.00003074,-0.
 00002083,0.00009131,-0.00001938,-0.00144783,-0.00091640,0.00162779,-0.
 00089053,0.00019628,-0.00063767,-0.00007685,-0.00068841,0.00023618,-0.
 00095541,0.00006054,0.00113696,0.00104993,-0.01056856,0.01036467,0.006
 49982,-0.14255071,0.17714909,0.00006232,-0.00004415,-0.00004264,-0.000
 04479,0.00013994,-0.00002871,-0.00001238,0.00002324,0.00000737,0.00000
 951,-0.00001373,0.00000499,0.00093281,-0.00043202,0.00133828,0.0109685
 5,0.00825734,0.00318306,-0.11800687,-0.10819939,-0.03468942,-0.0007223
 6,0.00341513,-0.00141038,-0.01102991,-0.03069006,-0.00550113,-0.004680
 26,0.00327431,-0.00150397,0.00092920,-0.00028401,-0.00017408,0.0004159
 6,-0.00176293,-0.00055819,0.00021798,0.00019631,0.00023902,-0.00065375
 ,0.00034814,-0.00013770,0.00001862,-0.00001364,0.00000159,-0.00002206,
 -0.00000948,0.00000165,-0.00005147,-0.00000625,0.00009630,-0.00001995,
 -0.00000999,-0.00001633,-0.00005233,-0.00028088,-0.00024305,0.00008478
 ,-0.00019266,-0.00009297,0.12091468,0.00018139,-0.00012455,-0.00000116
 ,0.00006547,0.00006670,-0.00002041,0.00001088,-0.00000025,-0.00001315,
 0.00001341,0.00001853,-0.00000409,-0.00117995,0.00075298,0.00017649,-0
 .01458954,-0.00997301,-0.00540904,-0.11740877,-0.28705119,-0.05815957,
 0.00232403,-0.00431981,-0.00038035,0.00360000,0.00708140,0.00194319,0.
 00184791,0.00034525,0.00022810,-0.00117167,0.00026814,-0.00038151,0.00
 002206,0.00045659,-0.00021205,0.00012534,-0.00053671,0.00005128,0.0001
 1881,0.00007372,0.00002473,-0.00000428,0.00001540,-0.00001357,0.000029
 58,0.00000235,-0.00000112,-0.00011930,-0.00015759,-0.00016258,-0.00005
 548,0.00003157,0.00006756,0.00071502,0.00014878,0.00022105,0.00009402,
 0.00007860,0.00006530,0.12624180,0.29285501,-0.00037933,0.00020978,0.0
 0018455,0.00052124,-0.00058844,0.00041477,-0.00018066,-0.00007629,-0.0
 0017293,0.00004406,0.00010314,-0.00005039,0.00146419,0.00040714,-0.003
 23970,0.00042076,0.00218091,0.00302623,-0.03670848,-0.05733813,-0.0424
 7260,-0.00142647,-0.00002304,0.00495241,-0.00134497,-0.00637284,-0.002
 85408,-0.00168047,0.00023491,0.00207431,-0.00016071,-0.00001159,0.0013
 1807,-0.00028162,-0.00046525,0.00198353,0.00006924,0.00008792,-0.00054
 670,-0.00014897,-0.00005962,-0.00001238,0.00002025,0.00000171,0.000042
 89,0.00012923,0.00004944,0.00004365,0.00061860,-0.00053380,-0.00062990
 ,0.00000716,0.00000603,-0.00006095,-0.00015198,-0.00025122,-0.00003103
 ,-0.00020986,0.00024610,0.00012651,0.03882651,0.06195841,0.03784160,-0
 .00002805,-0.00002284,0.00006263,0.00005089,0.00001626,-0.00016623,0.0
 0007356,0.00002544,0.00000815,-0.00004154,-0.00001797,0.00000749,0.000
 50743,0.00131192,-0.00051755,-0.00549705,-0.00260297,-0.00182201,-0.00
 803791,0.02701581,0.00250279,-0.00009839,-0.00357377,-0.00085553,-0.20
 302032,0.18307649,-0.03285589,0.01402778,-0.00789603,0.00416938,0.0007
 4240,-0.00022917,-0.00020406,0.00056069,-0.00028256,0.00051103,0.00028
 125,-0.00024282,0.00012077,-0.00027244,0.00050945,-0.00001404,-0.00005
 089,0.00000394,0.00001753,0.00001129,0.00001490,0.00000179,0.00005052,
 0.00002193,-0.00005452,-0.00002261,0.00001866,0.00003479,0.00009972,-0
 .00003207,0.00005187,-0.00043516,0.00013971,-0.00002044,0.00068189,-0.
 00065433,0.00049701,0.20090228,-0.00012798,0.00001965,0.00007719,-0.00
 032055,0.00002786,-0.00016803,0.00035246,-0.00000976,0.00021142,-0.000
 21562,-0.00007518,-0.00002383,0.00029206,0.00072738,-0.00012045,-0.002
 75676,0.00205812,-0.00052746,-0.00223986,0.00902236,0.00104861,-0.0043
 8165,-0.00515630,-0.00174921,0.18467876,-0.32522002,0.01455283,0.01989
 201,-0.01417031,0.00411981,0.00209065,0.00042923,0.00043155,0.00041773
 ,0.00210482,0.00043532,-0.00068594,0.00036390,-0.00011734,0.00053877,-
 0.00071687,0.00008388,-0.00014320,0.00007669,-0.00006866,0.00005135,0.
 00004000,0.00000959,0.00016574,0.00007100,-0.00014960,0.00002641,-0.00
 000259,-0.00000098,-0.00003521,-0.00003461,-0.00000221,-0.00031264,0.0
 0011339,-0.00006740,0.00020906,0.00004215,0.00022938,-0.19661459,0.330
 98967,0.00003528,0.00002502,-0.00004774,-0.00078653,0.00026367,-0.0002
 0534,0.00021109,-0.00001208,0.00029219,-0.00013829,-0.00007218,-0.0000
 2053,-0.00031262,-0.00013680,0.00250777,-0.00203760,-0.00044512,0.0009
 7098,-0.00028503,0.00821604,-0.00711971,-0.00091577,-0.00147975,0.0018
 0150,-0.03261283,0.01384970,-0.00508284,0.00678590,-0.00237588,-0.0050
 2145,-0.00001000,-0.00011218,0.00149350,0.00044764,0.00025538,-0.00118
 636,0.00009298,-0.00002510,-0.00028423,-0.00001288,0.00007856,-0.00000
 902,-0.00003834,0.00004327,-0.00010023,-0.00002073,0.00000101,-0.00001
 715,-0.00005745,-0.00004549,0.00005742,0.00002908,-0.00000117,-0.00002
 123,0.00003517,-0.00003432,-0.00001283,0.00050005,-0.00005888,0.000065
 58,0.00058328,0.00002997,-0.00147409,0.02869232,-0.01787919,0.01355998
 ,0.00010196,0.00007884,-0.00004092,-0.00020483,-0.00016541,0.00015970,
 -0.00022396,-0.00000307,-0.00004007,0.00010728,0.00002840,-0.00000557,
 0.00011996,0.00017651,0.00007838,-0.00036725,-0.00006912,0.00068641,0.
 00024583,0.00037361,0.00008069,0.00677504,-0.00232990,0.00086081,0.000
 21050,0.00008656,0.00008033,0.00131711,-0.00153924,-0.00143316,-0.2258
 4816,0.13072939,-0.03755191,-0.00000244,-0.00055265,0.00003956,-0.0175
 4713,0.01986343,-0.00345080,-0.00261401,-0.00379375,-0.00290441,0.0001
 0204,-0.00003190,0.00003085,-0.00003663,-0.00000592,-0.00001149,-0.000
 05551,0.00000015,0.00005183,-0.00033230,-0.00028003,0.00011291,0.00013
 001,0.00008820,-0.00005082,-0.00007017,-0.00003456,-0.00012076,-0.0000
 0454,0.00005873,-0.00002305,0.00003943,-0.00013747,-0.00004567,0.23832
 581,0.00007289,0.00016048,-0.00003655,-0.00013755,-0.00037939,0.000048
 50,-0.00035783,0.00019701,-0.00002172,0.00019361,0.00002534,-0.0000454
 0,-0.00007122,-0.00051974,0.00000885,-0.00000299,0.00171153,0.00040088
 ,0.00051276,-0.00014957,0.00013815,0.02620290,-0.01364242,0.00524954,0
 .00138806,-0.00147697,0.00022611,-0.00251265,-0.00354583,-0.00137295,0
 .13295143,-0.16465958,0.02316553,-0.00078808,-0.00089584,-0.00022832,-
 0.01058600,0.01137199,-0.00193715,-0.00241515,0.00001479,-0.00119413,0
 .00012410,-0.00007047,0.00005734,-0.00002055,0.00002607,-0.00001177,0.
 00008213,-0.00000692,-0.00005763,-0.00038750,0.00009668,0.00038813,-0.
 00008670,0.00015675,-0.00007908,-0.00030814,-0.00005426,-0.00038278,-0
 .00005252,-0.00004318,-0.00003712,-0.00028593,-0.00039340,-0.00013120,
 -0.14343831,0.17063472,-0.00001750,-0.00003173,-0.00006593,-0.00006503
 ,0.00026646,0.00014185,0.00014273,-0.00011354,0.00001658,-0.00006945,-
 0.00000069,0.00001626,0.00006631,0.00011774,0.00010908,0.00070234,0.00
 036394,-0.00255188,0.00011919,0.00010311,-0.00016138,0.00322717,-0.001
 98731,0.00319934,0.00023258,-0.00005972,-0.00008596,-0.00150096,-0.001
 26599,0.00571396,-0.03770134,0.02277930,-0.04220451,0.00005513,-0.0001
 1685,-0.00027697,-0.00575087,0.00557232,0.00150154,-0.00268434,-0.0015
 8112,0.00691800,-0.00002621,0.00003399,-0.00003630,-0.00000123,-0.0000
 0192,0.00000792,-0.00000976,-0.00000820,0.00003164,0.00027441,0.000028
 93,-0.00008462,0.00004692,0.00006392,-0.00008273,-0.00030199,-0.000147
 65,-0.00020700,-0.00004906,-0.00001118,0.00015836,-0.00007054,-0.00008
 723,0.00021266,0.04202579,-0.02470316,0.03291765,-0.00005590,0.0000110
 7,0.00004317,-0.00005154,0.00002106,-0.00007229,0.00015987,-0.00001789
 ,0.00007077,-0.00009054,-0.00002501,-0.00000489,-0.00000596,-0.0004811
 6,-0.00013434,-0.00105789,0.00103229,-0.00008959,-0.00071513,0.0000860
 2,-0.00003540,-0.00163852,-0.00353361,-0.00203641,0.00225980,0.0004612
 9,0.00119348,-0.01757756,0.01947689,-0.00341450,-0.00030019,-0.0010358
 3,-0.00015612,-0.23431855,0.13227558,-0.03823332,0.00180090,-0.0010658
 3,-0.00148041,0.00645686,-0.00310375,0.00084139,-0.00006225,0.00003466
 ,-0.00002595,0.00002353,0.00001388,0.00000341,0.00007498,0.00000563,-0
 .00007208,0.00002444,-0.00000773,-0.00000095,-0.00019921,0.00002043,-0
 .00002405,0.00000446,0.00002960,0.00000767,0.00000614,-0.00006276,-0.0
 0002654,-0.00045673,-0.00072223,-0.00009689,-0.00009643,0.00017022,0.0
 0035586,0.24504741,0.00002378,-0.00000723,-0.00000714,0.00003352,-0.00
 001105,-0.00000387,-0.00003280,0.00000798,-0.00001880,0.00002178,0.000
 00430,0.00000346,-0.00013711,-0.00014871,-0.00006135,-0.00073435,0.000
 47450,-0.00011765,0.00005073,0.00041880,0.00005071,-0.00215529,-0.0006
 6550,-0.00104852,0.00090530,0.00141696,0.00053227,-0.01080303,0.011085
 46,-0.00197429,-0.00063387,-0.00057097,-0.00020928,0.13133515,-0.15927
 324,0.02154342,-0.00240670,-0.00452359,-0.00160153,0.02667150,-0.01304
 300,0.00527397,0.00001270,-0.00000805,0.00000939,-0.00000868,-0.000004
 75,-0.00000301,-0.00003775,0.00000452,0.00003047,-0.00001103,0.0000019
 7,0.00000811,-0.00005168,0.00001013,-0.00001535,0.00002089,-0.00001111
 ,-0.00000106,0.00004992,-0.00001520,0.00001178,0.00034931,-0.00036464,
 0.00006426,0.00016999,0.00011084,0.00017579,-0.14360031,0.16457702,-0.
 00001091,0.00000087,0.00000717,-0.00005433,0.00000633,-0.00004587,0.00
 004650,0.00000215,0.00002883,-0.00002392,-0.00000906,-0.00000176,-0.00
 005860,-0.00013159,0.00017607,-0.00027560,0.00027462,-0.00015704,-0.00
 008142,0.00009029,-0.00035861,-0.00197691,-0.00132429,0.00493435,0.001
 25370,0.00043735,-0.00214513,-0.00587050,0.00543442,0.00205492,-0.0001
 8273,-0.00031513,-0.00009013,-0.03832722,0.02169992,-0.04067194,-0.001
 56427,-0.00128939,0.00698967,0.00334430,-0.00194513,0.00261044,-0.0000
 1721,0.00001086,-0.00001191,0.00000489,0.00000394,0.00000031,0.0000127
 1,0.00000164,-0.00001326,0.00001600,0.00000191,0.00000318,-0.00003155,
 0.00000943,0.00000079,0.00001298,0.00000851,-0.00000474,-0.00000759,-0
 .00002028,0.00004505,-0.00005303,-0.00020412,-0.00044740,0.00036100,0.
 00015668,-0.00138667,0.04224091,-0.02327496,0.03208071,-0.00002529,-0.
 00000337,0.00002188,-0.00002142,0.00000952,-0.00004926,0.00007979,-0.0
 0001528,0.00003164,-0.00004566,-0.00001086,-0.00000113,0.00009445,-0.0
 0003901,-0.00001659,0.00090301,-0.00093921,-0.00007394,-0.00057168,-0.
 00027593,0.00001367,-0.00479156,-0.00083831,-0.00314600,0.00032756,-0.
 00002164,0.00013515,-0.00114062,0.00003273,-0.00020173,0.00065020,-0.0
 2977928,-0.00252290,-0.00353454,0.00221214,-0.00202898,-0.06117681,-0.
 02940547,-0.00947206,0.00630840,0.02615657,0.00341044,-0.00003268,0.00
 001936,-0.00001217,0.00001177,0.00000577,0.00000213,0.00003267,0.00000
 429,-0.00003145,0.00002062,-0.00000506,-0.00000550,-0.00006052,-0.0000
 0544,-0.00000378,-0.00000939,0.00001647,0.00001057,0.00008162,-0.00013
 470,0.00005940,-0.00002664,-0.00003423,-0.00000659,0.00101731,0.000345
 26,0.00138637,0.00023353,0.00136333,0.00003888,0.06080042,-0.00006063,
 0.00001298,0.00003461,-0.00006893,0.00003058,-0.00004805,0.00014104,-0
 .00002553,0.00006547,-0.00008197,-0.00001939,-0.00000574,0.00011720,-0
 .00007922,-0.00000567,0.00042100,-0.00043778,0.00000647,-0.00060147,-0
 .00021259,-0.00006688,-0.00183554,0.00130329,-0.00095391,0.00010967,-0
 .00017387,0.00002978,0.00024023,0.00084740,0.00015692,0.00077114,-0.00
 796525,-0.00053938,0.00349638,-0.00000722,0.00043442,-0.02967354,-0.33
 247823,-0.03140858,-0.00453967,-0.01452065,-0.00237528,-0.00005379,0.0
 0003434,-0.00002692,0.00002338,0.00001265,0.00000533,0.00008062,-0.000
 00018,-0.00007229,0.00003852,-0.00000942,-0.00001450,-0.00006663,-0.00
 001171,-0.00000008,-0.00001387,0.00003207,0.00001148,0.00001310,-0.000
 06245,0.00000586,-0.00002027,0.00003119,-0.00000429,-0.00026277,0.0009
 0976,0.00036905,-0.00020565,-0.00087010,-0.00017390,0.03199749,0.35270
 521,-0.00000715,-0.00000184,0.00000405,-0.00002362,0.00002401,-0.00002
 656,0.00003499,-0.00000507,0.00002642,-0.00002279,-0.00000596,-0.00000
 419,0.00001366,-0.00006623,0.00009884,0.00000493,-0.00029718,0.0010700
 7,-0.00002693,-0.00004392,-0.00066940,-0.00321901,-0.00079634,0.006734
 22,0.00013482,0.00001908,-0.00019335,-0.00020668,0.00007728,-0.0003593
 2,-0.00000409,-0.00800322,0.00065139,-0.00193989,0.00012156,0.00498714
 ,-0.00959594,-0.03133408,-0.03732818,0.00099662,0.00516722,0.00163856,
 -0.00001282,0.00000915,-0.00001101,0.00000727,0.00000300,0.00000139,0.
 00001953,0.00000500,-0.00001468,-0.00000528,-0.00001050,0.00000441,-0.
 00002946,0.00000232,-0.00001308,0.00001824,0.00000691,0.00000276,0.000
 08310,-0.00001867,-0.00021146,-0.00000311,-0.00000693,-0.00001872,0.00
 135290,0.00050492,-0.00410808,-0.00009427,0.00022720,0.00055381,0.0114
 7612,0.03423440,0.03026818,-0.00004264,0.00000302,0.00002698,-0.000054
 01,0.00003425,-0.00003751,0.00011268,-0.00002085,0.00004995,-0.0000667
 1,-0.00001729,-0.00000258,0.00009279,-0.00004171,0.00001112,0.00002369
 ,-0.00000544,0.00009552,0.00000856,-0.00023319,0.00005450,0.00033542,0
 .00060692,0.00028825,-0.00005158,-0.00023893,-0.00035285,0.00189148,0.
 00068952,-0.00120741,-0.00161938,0.00423612,-0.00144100,0.00138742,0.0
 0093988,-0.00006680,-0.01744791,-0.01237008,-0.00571216,-0.27574644,-0
 .09858437,-0.06786107,-0.00004346,0.00002463,-0.00002110,0.00001734,0.
 00000771,0.00000338,0.00004914,0.00000226,-0.00004845,0.00003911,-0.00
 000805,-0.00002382,-0.00003985,-0.00001523,0.00000064,0.00000317,0.000
 02978,0.00001332,-0.00003409,-0.00003496,0.00009248,-0.00003192,0.0000
 2001,-0.00003812,-0.00108750,-0.00058756,-0.00040607,0.00054015,-0.000
 39619,0.00120342,0.00087776,0.00003860,0.00104938,0.29088961,-0.000021
 68,0.00000919,0.00001543,-0.00004340,-0.00000291,-0.00002999,0.0000527
 9,0.00000054,0.00003504,-0.00003197,-0.00000992,-0.00000565,0.00004070
 ,-0.00003842,0.00000065,-0.00005198,0.00038953,0.00005416,0.00030723,-
 0.00075246,0.00004301,0.00027132,-0.00093537,0.00004943,-0.00195947,0.
 00009824,-0.00057294,0.00144258,-0.00539949,-0.00069904,0.00294733,-0.
 00202606,0.00011592,-0.02921569,-0.00867355,-0.00807015,0.01799254,0.0
 1138410,0.00523243,-0.09798546,-0.10451620,-0.03002130,-0.00002080,0.0
 0001273,-0.00001141,0.00001057,0.00000717,0.00000153,0.00003842,0.0000
 0097,-0.00003567,-0.00000303,0.00000176,0.00001066,-0.00003045,-0.0000
 0168,-0.00000406,-0.00002636,0.00001463,-0.00001098,-0.00017490,0.0000
 2196,-0.00000675,-0.00002166,0.00004758,-0.00001295,0.00098456,0.00042
 102,0.00023871,0.00022927,0.00140474,0.00054986,-0.00065198,0.00095892
 ,0.00018782,0.10592401,0.10758517,-0.00001466,-0.00000045,-0.00000556,
 -0.00002918,0.00002041,0.00000662,0.00004760,-0.00001396,0.00001372,-0
 .00002313,-0.00000455,0.00000082,0.00000217,0.00003394,-0.00000414,0.0
 0008993,0.00003255,-0.00025356,0.00008006,-0.00011278,-0.00017964,0.00
 024913,0.00011750,-0.00059178,-0.00047672,-0.00015738,0.00117770,-0.00
 113098,-0.00087616,0.00671095,-0.00153084,0.00042794,0.00526288,-0.002
 56748,-0.00067846,0.00126378,-0.00323294,-0.00223736,0.00062545,-0.067
 81295,-0.03015460,-0.05266999,-0.00001526,0.00001088,-0.00000926,0.000
 00319,0.00000459,0.00000281,0.00002191,0.00000766,-0.00000237,0.000012
 10,-0.00001169,-0.00000508,-0.00000551,0.00000019,-0.00000371,-0.00003
 083,-0.00002498,0.00000433,0.00008407,0.00004965,-0.00042083,-0.000038
 27,-0.00000088,0.00010929,-0.00026948,-0.00013438,0.00032646,0.0012531
 6,0.00040151,-0.00414840,0.00099172,0.00035378,-0.00307990,0.07433945,
 0.03295075,0.04587271,-0.07242673,-0.02499074,-0.06928862,-0.00103976,
 0.00170637,0.00388244,-0.00164218,-0.00045176,-0.00006492,-0.00154634,
 0.00262197,0.00018260,0.00004701,-0.00150838,0.00176455,0.00039485,-0.
 00012098,-0.00001940,-0.00003227,-0.00004332,-0.00006137,-0.00003994,0
 .00000876,0.00002583,-0.00002137,0.00001947,0.00004489,-0.00007837,-0.
 00001644,-0.00002735,0.00000227,-0.00000375,-0.00001084,0.00002706,0.0
 0002007,-0.00000321,-0.00002134,-0.00000148,-0.00002635,-0.00000620,-0
 .00003237,-0.00000182,0.00017444,0.00037437,-0.00042913,0.00122642,-0.
 01282788,-0.03236459,0.00776096,0.00921034,0.02599331,0.00056307,-0.00
 015248,0.00019884,0.00000480,0.00000631,-0.00018657,-0.00034291,0.0000
 6649,0.00048541,0.00001072,-0.00003271,-0.00004699,-0.00000945,-0.0000
 0708,0.00000254,-0.00000143,-0.00000469,0.00001956,-0.00000567,0.00000
 088,0.00000051,-0.00000231,-0.00000363,-0.00000053,-0.00000284,-0.0000
 0248,0.00000372,0.06700749,-0.02188811,-0.10962764,-0.12572981,0.00524
 900,0.01237264,0.02304377,-0.00200595,-0.00155987,0.00196357,-0.000137
 61,0.00100603,-0.00013473,0.00160637,-0.00355359,0.00201236,0.00002246
 ,0.00017787,-0.00014559,0.00017082,-0.00013886,-0.00000181,0.00003143,
 0.00011002,-0.00000651,-0.00028941,-0.00000586,-0.00009765,-0.00001367
 ,0.00013017,0.00001335,-0.00001038,-0.00000905,-0.00000317,-0.00001690
 ,-0.00001215,0.00000144,0.00001824,-0.00002316,0.00000967,-0.00001248,
 0.00001764,-0.00000208,0.00122828,-0.00062455,0.00002895,0.00047909,-0
 .00505102,-0.01041740,-0.00948348,-0.00913523,-0.02545859,-0.00063596,
 0.00045664,0.00069935,0.00017341,0.00013134,-0.00004843,-0.00063541,0.
 00026863,0.00104250,-0.00000171,0.00002481,0.00003156,-0.00000680,-0.0
 0002131,-0.00000030,0.00000576,0.00000057,0.00000305,-0.00000611,-0.00
 000006,-0.00000091,-0.00000319,-0.00000481,0.00000005,-0.00000283,-0.0
 0000218,-0.00000373,0.02616511,0.11507300,-0.06397822,-0.12844041,-0.3
 5254546,-0.00317477,-0.00803852,-0.01646875,-0.00004089,0.00137368,-0.
 00158920,0.00104298,-0.00100944,0.00089113,-0.00061968,0.00291836,-0.0
 0173985,-0.00046697,0.00018502,0.00025182,0.00019791,-0.00032801,0.000
 18450,0.00019712,0.00010614,0.00009360,-0.00023004,0.00000486,-0.00009
 691,-0.00004715,0.00008660,-0.00000380,-0.00002321,-0.00000445,0.00000
 435,0.00001523,-0.00000608,0.00000246,-0.00000025,-0.00000578,0.000004
 74,-0.00003440,-0.00001482,-0.00001074,-0.00000811,-0.00017278,0.00036
 133,-0.00217458,0.00202420,0.00308539,-0.00149222,-0.00116340,-0.00373
 531,0.00067365,-0.00049832,0.00207895,-0.00019277,0.00005022,0.0002699
 0,0.00042535,-0.00025170,-0.00049403,0.00000601,-0.00000702,-0.0000348
 9,-0.00000230,-0.00002607,-0.00000200,0.00002695,0.00002874,-0.0000192
 5,-0.00001179,0.00000448,-0.00000242,-0.00000588,-0.00001208,-0.000003
 30,-0.00000946,-0.00000449,-0.00000331,0.06992749,0.13320109,0.3695210
 6\\-0.00000089,-0.00000125,-0.00000225,-0.00000013,-0.00000010,-0.0000
 0117,0.00000019,0.00000045,-0.00000195,-0.00000038,-0.00000028,-0.0000
 0328,0.00000069,0.00000112,-0.00000117,0.00000044,0.00000078,-0.000000
 64,0.00000025,0.00000076,-0.00000170,0.00000020,0.00000014,0.00000094,
 0.00000016,0.00000029,-0.00000079,0.00000011,0.00000014,0.00000085,0.0
 0000012,0.00000013,0.00000249,-0.00000019,-0.00000045,0.00000216,0.000
 00010,-0.00000020,0.00000389,-0.00000008,-0.00000065,0.00000371,0.0000
 0065,0.00000112,-0.00000107,-0.00000087,-0.00000117,-0.00000327,-0.000
 00082,-0.00000109,-0.00000263,-0.00000039,-0.00000060,0.00000005,0.000
 00087,0.00000163,-0.00000240,0.00000114,0.00000189,-0.00000033,0.00000
 044,0.00000097,-0.00000298,0.00000004,0.00000016,-0.00000127,0.0000003
 8,0.00000038,0.00000268,-0.00000028,-0.00000061,0.00000204,0.00000002,
 -0.00000041,0.00000507,-0.00000030,-0.00000089,0.00000477,-0.00000148,
 -0.00000225,-0.00000173\\\@
 The archive entry for this job was punched.


 We make a living by what we get,
 we make a life by what we give.
                   -- Sir Winston Churchill
 Job cpu time:       0 days  0 hours 50 minutes 55.2 seconds.
 Elapsed time:       0 days  0 hours  3 minutes 12.2 seconds.
 File lengths (MBytes):  RWF=    300 Int=      0 D2E=      0 Chk=     14 Scr=      1
 Normal termination of Gaussian 16 at Thu Jun 23 13:43:43 2022.
