 Entering Gaussian System, Link 0=/home/emanuele/chemical_software/g16/g16
 Input=wat.com
 Output=wat.log
 Initial command:
 /home/emanuele/chemical_software//gdv/l1.exe "/home/emanuele/chemical_software/Gau-843855.inp" -scrdir="/home/emanuele/chemical_software/"
 Entering Link 1 = /home/emanuele/chemical_software//gdv/l1.exe PID=    843857.
  
 Copyright (c) 1988-2020, Gaussian, Inc.  All Rights Reserved.
  
 This is the private, development version of
 the Gaussian(R) DV system of programs. It is based on
 the Gaussian(R) 16 system (copyright 2016, Gaussian, Inc.),
 the Gaussian(R) 09 system (copyright 2009, Gaussian, Inc.),
 the Gaussian(R) 03 system (copyright 2003, Gaussian, Inc.),
 the Gaussian(R) 98 system (copyright 1998, Gaussian, Inc.),
 the Gaussian(R) 94 system (copyright 1995, Gaussian, Inc.),
 the Gaussian 92(TM) system (copyright 1992, Gaussian, Inc.),
 the Gaussian 90(TM) system (copyright 1990, Gaussian, Inc.),
 the Gaussian 88(TM) system (copyright 1988, Gaussian, Inc.),
 the Gaussian 86(TM) system (copyright 1986, Carnegie Mellon
 University), and the Gaussian 82(TM) system (copyright 1983,
 Carnegie Mellon University). Gaussian is a federally registered
 trademark of Gaussian, Inc.
  
 This software contains proprietary and confidential information,
 including trade secrets, belonging to Gaussian, Inc.
  
 This software is provided under written license and may be
 used, copied, transmitted, or stored only in accord with that
 written license.
  
 The following legend is applicable only to US Government
 contracts under FAR:
  
                    RESTRICTED RIGHTS LEGEND
  
 Use, reproduction and disclosure by the US Government is
 subject to restrictions as set forth in subparagraphs (a)
 and (c) of the Commercial Computer Software - Restricted
 Rights clause in FAR 52.227-19.
  
 Gaussian, Inc.
 340 Quinnipiac St., Bldg. 40, Wallingford CT 06492
  
  
 ---------------------------------------------------------------
 Warning -- This program may not be used in any manner that
 competes with the business of Gaussian, Inc. or will provide
 assistance to any competitor of Gaussian, Inc.  The licensee
 of this program is prohibited from giving any competitor of
 Gaussian, Inc. access to this program.  By using this program,
 the user acknowledges that Gaussian, Inc. is engaged in the
 business of creating and licensing software in the field of
 computational chemistry and represents and warrants to the
 licensee that it is not a competitor of Gaussian, Inc. and that
 it will not use this program in any manner prohibited above.
 ---------------------------------------------------------------
  

 Cite this work as:
 Gaussian Development Version, Revision J.14,
 M. J. Frisch, G. W. Trucks, H. B. Schlegel, G. E. Scuseria, 
 M. A. Robb, J. R. Cheeseman, G. Scalmani, V. Barone, 
 G. A. Petersson, H. Nakatsuji, X. Li, A. V. Marenich, M. Caricato, 
 J. Bloino, B. G. Janesko, J. Zheng, R. Gomperts, B. Mennucci, 
 H. P. Hratchian, J. V. Ortiz, A. F. Izmaylov, J. L. Sonnenberg, 
 D. Williams-Young, F. Ding, F. Lipparini, F. Egidi, J. Goings, 
 B. Peng, A. Petrone, T. Henderson, D. Ranasinghe, V. G. Zakrzewski, 
 J. Gao, N. Rega, G. Zheng, W. Liang, M. Hada, M. Ehara, K. Toyota, 
 R. Fukuda, J. Hasegawa, M. Ishida, T. Nakajima, Y. Honda, O. Kitao, 
 H. Nakai, T. Vreven, K. Throssell, J. A. Montgomery, Jr., 
 J. E. Peralta, F. Ogliaro, M. J. Bearpark, J. J. Heyd, 
 E. N. Brothers, K. N. Kudin, V. N. Staroverov, T. A. Keith, 
 R. Kobayashi, J. Normand, K. Raghavachari, A. P. Rendell, 
 J. C. Burant, S. S. Iyengar, J. Tomasi, M. Cossi, J. M. Millam, 
 M. Klene, C. Adamo, R. Cammi, J. W. Ochterski, R. L. Martin, 
 K. Morokuma, O. Farkas, J. B. Foresman, and D. J. Fox, 
 Gaussian, Inc., Wallingford CT, 2020.
 
 ******************************************
 Gaussian DV:  ES64L-GDVRevJ.14 29-Dec-2020
                21-Oct-2021 
 ******************************************
 %nprocs=4
 Will use up to    4 processors via shared memory.
 %chk=wat.chk
 ----------------------------------------
 # b3lyp/6-31g geom=connectivity opt freq
 ----------------------------------------
 1/18=20,19=15,26=3,37=210000000,38=1,57=2/1,3;
 2/9=110,12=2,40=1/2;
 3/5=1,6=6,11=2,25=1,30=1,71=1,74=-5/1,2,3;
 4//1;
 5/5=2,38=5/2;
 6/7=2,8=2,9=2,10=2,28=1/1;
 7//1,2,3,16;
 1/18=20,19=15,26=3/3(2);
 2/9=110/2;
 99//99;
 2/9=110/2;
 3/5=1,6=6,11=2,25=1,30=1,71=1,74=-5/1,2,3;
 4/5=5,16=3,69=1/1;
 5/5=2,38=5/2;
 7//1,2,3,16;
 1/18=20,19=15,26=3/3(-5);
 2/9=110/2;
 6/7=2,8=2,9=2,10=2,19=2,28=1/1;
 99/9=1/99;
 -------------------
 Title Card Required
 -------------------
 Symbolic Z-matrix:
 Charge =  0 Multiplicity = 1
 O                     5.10901   2.31105   0. 
 H                     6.06901   2.31105   0. 
 H                     4.78856   3.21598   0. 
 
 DXMax1 from symmetrization= 1.13D-08

 GradGradGradGradGradGradGradGradGradGradGradGradGradGradGradGradGradGrad
 Berny optimization.
 Initialization pass.
                           ----------------------------
                           !    Initial Parameters    !
                           ! (Angstroms and Degrees)  !
 --------------------------                            --------------------------
 ! Name  Definition              Value          Derivative Info.                !
 --------------------------------------------------------------------------------
 ! R1    R(1,2)                  0.96           estimate D2E/DX2                !
 ! R2    R(1,3)                  0.96           estimate D2E/DX2                !
 ! A1    A(2,1,3)              109.5            estimate D2E/DX2                !
 --------------------------------------------------------------------------------
 Trust Radius=3.00D-01 FncErr=1.00D-07 GrdErr=1.00D-06 EigMax=2.50D+02 EigMin=1.00D-04
 Number of steps in this run=     20 maximum allowed number of steps=    100.
 GradGradGradGradGradGradGradGradGradGradGradGradGradGradGradGradGradGrad

                          Input orientation:                          
 ---------------------------------------------------------------------
 Center     Atomic      Atomic             Coordinates (Angstroms)
 Number     Number       Type             X           Y           Z
 ---------------------------------------------------------------------
      1          8           0        5.109012    2.311046   -0.000000
      2          1           0        6.069012    2.311046   -0.000000
      3          1           0        4.788557    3.215982    0.000000
 ---------------------------------------------------------------------
                    Distance matrix (angstroms):
                    1          2          3
     1  O    0.000000
     2  H    0.960000   0.000000
     3  H    0.960000   1.567952   0.000000
 Stoichiometry    H2O
 Framework group  C2V[C2(O),SGV(H2)]
 Deg. of freedom     2
 Full point group                 C2V     NOp   4
 Largest Abelian subgroup         C2V     NOp   4
 Largest concise Abelian subgroup C2      NOp   2
                         Standard orientation:                         
 ---------------------------------------------------------------------
 Center     Atomic      Atomic             Coordinates (Angstroms)
 Number     Number       Type             X           Y           Z
 ---------------------------------------------------------------------
      1          8           0        0.000000   -0.000000    0.110812
      2          1           0       -0.000000    0.783976   -0.443248
      3          1           0       -0.000000   -0.783976   -0.443248
 ---------------------------------------------------------------------
 Rotational constants (GHZ):         919.6759688         407.9403309         282.5913776
 Standard basis: 6-31G (6D, 7F)
 There are     7 symmetry adapted cartesian basis functions of A1  symmetry.
 There are     0 symmetry adapted cartesian basis functions of A2  symmetry.
 There are     2 symmetry adapted cartesian basis functions of B1  symmetry.
 There are     4 symmetry adapted cartesian basis functions of B2  symmetry.
 There are     7 symmetry adapted basis functions of A1  symmetry.
 There are     0 symmetry adapted basis functions of A2  symmetry.
 There are     2 symmetry adapted basis functions of B1  symmetry.
 There are     4 symmetry adapted basis functions of B2  symmetry.
    13 basis functions,    30 primitive gaussians,    13 cartesian basis functions
     5 alpha electrons        5 beta electrons
       nuclear repulsion energy         9.1571160303 Hartrees.
 NAtoms=    3 NActive=    3 NUniq=    2 SFac= 2.25D+00 NAtFMM=   60 NAOKFM=F Big=F
 Integral buffers will be    131072 words long.
 Raffenetti 2 integral format.
 Two-electron integral symmetry is turned on.
 One-electron integrals computed using PRISM.
 NBasis=    13 RedAO= T EigKep=  6.95D-02  NBF=     7     0     2     4
 NBsUse=    13 1.00D-06 EigRej= -1.00D+00 NBFU=     7     0     2     4
 ExpMin= 1.61D-01 ExpMax= 5.48D+03 ExpMxC= 8.25D+02 IAcc=3 IRadAn=         5 AccDes= 0.00D+00
 Harris functional with IExCor= 4002 and IRadAn=       5 diagonalized for initial guess.
 HarFok:  IExCor=    4002 AccDes= 0.00D+00 IRadAn=         5 IDoV= 1 UseB2=F ITyADJ=14 ICtDFT=  3500011
 FoFCou: FMM=F IPFlag=           0 FMFlag=      100000 FMFlg1=           0
         NFxFlg=           0 DoJE=T BraDBF=F KetDBF=T FulRan=T
         wScrn=  0.000000 ICntrl=       500 IOpCl=  0 I1Cent=   200000004 NGrid=           0
         NMat0=    1 NMatS0=      1 NMatT0=    0 NMatD0=    1 NMtDS0=    0 NMtDT0=    0
 Petite list used in FoFCou.
 Initial guess orbital symmetries:
       Occupied  (A1) (A1) (B2) (A1) (B1)
       Virtual   (A1) (B2) (A1) (B1) (B2) (A1) (B2) (A1)
 The electronic state of the initial guess is 1-A1.
 Keep R1 ints in memory in symmetry-blocked form, NReq=3460752.
 Requested convergence on RMS density matrix=1.00D-08 within 128 cycles.
 Requested convergence on MAX density matrix=1.00D-06.
 Requested convergence on             energy=1.00D-06.
 No special actions if energy rises.
 Integral accuracy reduced to 1.0D-05 until final iterations.
 Initial convergence to 1.0D-05 achieved.  Increase integral accuracy.
 SCF Done:  E(RB3LYP) =  -76.3856894710     A.U. after    8 cycles
            NFock=  8  Conv=0.76D-08     -V/T= 2.0043

 **********************************************************************

            Population analysis using the SCF Density.

 **********************************************************************

 Orbital symmetries:
       Occupied  (A1) (A1) (B2) (A1) (B1)
       Virtual   (A1) (B2) (B2) (A1) (B1) (A1) (B2) (A1)
 The electronic state is 1-A1.
 Alpha  occ. eigenvalues --      -19.12992      -1.01216      -0.53763      -0.34656      -0.29013
 Alpha virt. eigenvalues --        0.05764       0.14830       0.83618       0.86463       0.89080
 Alpha virt. eigenvalues --        0.94094       1.07490       1.40744
          Condensed to atoms (all electrons):
               1          2          3
     1  O    8.225260   0.247498   0.247498
     2  H    0.247498   0.426374  -0.034000
     3  H    0.247498  -0.034000   0.426374
 Mulliken charges:
               1
     1  O   -0.720256
     2  H    0.360128
     3  H    0.360128
 Sum of Mulliken charges =  -0.00000
 Mulliken charges with hydrogens summed into heavy atoms:
               1
     1  O   -0.000000
 Electronic spatial extent (au):  <R**2>=             19.1666
 Charge=             -0.0000 electrons
 Dipole moment (field-independent basis, Debye):
    X=             -0.0000    Y=             -0.0000    Z=             -2.3852  Tot=              2.3852
 Quadrupole moment (field-independent basis, Debye-Ang):
   XX=             -7.1686   YY=             -4.0847   ZZ=             -6.2630
   XY=              0.0000   XZ=              0.0000   YZ=              0.0000
 Traceless Quadrupole moment (field-independent basis, Debye-Ang):
   XX=             -1.3299   YY=              1.7540   ZZ=             -0.4242
   XY=              0.0000   XZ=              0.0000   YZ=              0.0000
 Octapole moment (field-independent basis, Debye-Ang**2):
  XXX=              0.0000  YYY=             -0.0000  ZZZ=             -1.2916  XYY=             -0.0000
  XXY=             -0.0000  XXZ=             -0.3770  XZZ=              0.0000  YZZ=             -0.0000
  YYZ=             -1.1519  XYZ=             -0.0000
 Hexadecapole moment (field-independent basis, Debye-Ang**3):
 XXXX=             -5.1591 YYYY=             -5.9064 ZZZZ=             -6.2011 XXXY=             -0.0000
 XXXZ=             -0.0000 YYYX=             -0.0000 YYYZ=             -0.0000 ZZZX=             -0.0000
 ZZZY=             -0.0000 XXYY=             -2.0940 XXZZ=             -1.9299 YYZZ=             -1.7879
 XXYZ=             -0.0000 YYXZ=              0.0000 ZZXY=             -0.0000
 N-N= 9.157116030293D+00 E-N=-1.990738775032D+02  KE= 7.605489825750D+01
 Symmetry A1   KE= 6.791060191845D+01
 Symmetry A2   KE= 0.000000000000D+00
 Symmetry B1   KE= 4.602461675667D+00
 Symmetry B2   KE= 3.541834663380D+00
 Calling FoFJK, ICntrl=      2127 FMM=F ISym2X=1 I1Cent= 0 IOpClX= 0 NMat=1 NMatS=1 NMatT=0.
 ***** Axes restored to original set *****
 -------------------------------------------------------------------
 Center     Atomic                   Forces (Hartrees/Bohr)
 Number     Number              X              Y              Z
 -------------------------------------------------------------------
      1        8          -0.009901375   -0.014010122    0.000000000
      2        1           0.014250830    0.000432370   -0.000000000
      3        1          -0.004349454    0.013577752   -0.000000000
 -------------------------------------------------------------------
 Cartesian Forces:  Max     0.014250830 RMS     0.008824631

 GradGradGradGradGradGradGradGradGradGradGradGradGradGradGradGradGradGrad
 Berny optimization.
 FormGI is forming the generalized inverse of G from B-inverse, IUseBI=4.
 Internal  Forces:  Max     0.014250830 RMS     0.011644563
 Search for a local minimum.
 Step number   1 out of a maximum of   20
 All quantities printed in internal units (Hartrees-Bohrs-Radians)
 Mixed Optimization -- RFO/linear search
 Second derivative matrix not updated -- first step.
 The second derivative matrix:
                          R1        R2        A1
           R1           0.55473
           R2           0.00000   0.55473
           A1           0.00000   0.00000   0.16000
 ITU=  0
     Eigenvalues ---    0.16000   0.55473   0.55473
 RFO step:  Lambda=-7.35050358D-04 EMin= 1.60000000D-01
 Linear search not attempted -- first point.
 Iteration  1 RMS(Cart)=  0.01735044 RMS(Int)=  0.00003953
 Iteration  2 RMS(Cart)=  0.00004012 RMS(Int)=  0.00000000
 Iteration  3 RMS(Cart)=  0.00000000 RMS(Int)=  0.00000000
 ClnCor:  largest displacement from symmetrization is 4.78D-15 for atom     3.
 Variable       Old X    -DE/DX   Delta X   Delta X   Delta X     New X
                                 (Linear)    (Quad)   (Total)
    R1        1.81414   0.01425   0.00000   0.02566   0.02566   1.83979
    R2        1.81414   0.01425   0.00000   0.02566   0.02566   1.83979
    A1        1.91114  -0.00078   0.00000  -0.00488  -0.00488   1.90626
         Item               Value     Threshold  Converged?
 Maximum Force            0.014251     0.000450     NO 
 RMS     Force            0.011645     0.000300     NO 
 Maximum Displacement     0.018544     0.001800     NO 
 RMS     Displacement     0.017333     0.001200     NO 
 Predicted change in Energy=-3.680184D-04
 GradGradGradGradGradGradGradGradGradGradGradGradGradGradGradGradGradGrad

                          Input orientation:                          
 ---------------------------------------------------------------------
 Center     Atomic      Atomic             Coordinates (Angstroms)
 Number     Number       Type             X           Y           Z
 ---------------------------------------------------------------------
      1          8           0        5.105251    2.305725    0.000000
      2          1           0        6.078824    2.308101   -0.000000
      3          1           0        4.782505    3.224249    0.000000
 ---------------------------------------------------------------------
                    Distance matrix (angstroms):
                    1          2          3
     1  O    0.000000
     2  H    0.973576   0.000000
     3  H    0.973576   1.587379   0.000000
 Stoichiometry    H2O
 Framework group  C2V[C2(O),SGV(H2)]
 Deg. of freedom     2
 Full point group                 C2V     NOp   4
 Largest Abelian subgroup         C2V     NOp   4
 Largest concise Abelian subgroup C2      NOp   2
                         Standard orientation:                         
 ---------------------------------------------------------------------
 Center     Atomic      Atomic             Coordinates (Angstroms)
 Number     Number       Type             X           Y           Z
 ---------------------------------------------------------------------
      1          8           0       -0.000000    0.000000    0.112767
      2          1           0        0.000000    0.793689   -0.451067
      3          1           0       -0.000000   -0.793689   -0.451067
 ---------------------------------------------------------------------
 Rotational constants (GHZ):         888.0681039         398.0162511         274.8385330
 Standard basis: 6-31G (6D, 7F)
 There are     7 symmetry adapted cartesian basis functions of A1  symmetry.
 There are     0 symmetry adapted cartesian basis functions of A2  symmetry.
 There are     2 symmetry adapted cartesian basis functions of B1  symmetry.
 There are     4 symmetry adapted cartesian basis functions of B2  symmetry.
 There are     7 symmetry adapted basis functions of A1  symmetry.
 There are     0 symmetry adapted basis functions of A2  symmetry.
 There are     2 symmetry adapted basis functions of B1  symmetry.
 There are     4 symmetry adapted basis functions of B2  symmetry.
    13 basis functions,    30 primitive gaussians,    13 cartesian basis functions
     5 alpha electrons        5 beta electrons
       nuclear repulsion energy         9.0299979904 Hartrees.
 NAtoms=    3 NActive=    3 NUniq=    2 SFac= 2.25D+00 NAtFMM=   60 NAOKFM=F Big=F
 Integral buffers will be    131072 words long.
 Raffenetti 2 integral format.
 Two-electron integral symmetry is turned on.
 One-electron integrals computed using PRISM.
 NBasis=    13 RedAO= T EigKep=  7.13D-02  NBF=     7     0     2     4
 NBsUse=    13 1.00D-06 EigRej= -1.00D+00 NBFU=     7     0     2     4
 Initial guess from the checkpoint file:  "wat.chk"
 B after Tr=    -0.000000   -0.000000   -0.000000
         Rot=    1.000000    0.000000    0.000000    0.000000 Ang=   0.00 deg.
 Initial guess orbital symmetries:
       Occupied  (A1) (A1) (B2) (A1) (B1)
       Virtual   (A1) (B2) (B2) (A1) (B1) (A1) (B2) (A1)
 Keep R1 ints in memory in symmetry-blocked form, NReq=3460752.
 Requested convergence on RMS density matrix=1.00D-08 within 128 cycles.
 Requested convergence on MAX density matrix=1.00D-06.
 Requested convergence on             energy=1.00D-06.
 No special actions if energy rises.
 SCF Done:  E(RB3LYP) =  -76.3860926260     A.U. after    7 cycles
            NFock=  7  Conv=0.16D-08     -V/T= 2.0050
 Calling FoFJK, ICntrl=      2127 FMM=F ISym2X=1 I1Cent= 0 IOpClX= 0 NMat=1 NMatS=1 NMatT=0.
 ***** Axes restored to original set *****
 -------------------------------------------------------------------
 Center     Atomic                   Forces (Hartrees/Bohr)
 Number     Number              X              Y              Z
 -------------------------------------------------------------------
      1        8          -0.002076647   -0.002938388    0.000000000
      2        1           0.001381562    0.001226617   -0.000000000
      3        1           0.000695085    0.001711770   -0.000000000
 -------------------------------------------------------------------
 Cartesian Forces:  Max     0.002938388 RMS     0.001482235

 GradGradGradGradGradGradGradGradGradGradGradGradGradGradGradGradGradGrad
 Berny optimization.
 Using GEDIIS/GDIIS optimizer.
 FormGI is forming the generalized inverse of G from B-inverse, IUseBI=4.
 Internal  Forces:  Max     0.002250512 RMS     0.001722282
 Search for a local minimum.
 Step number   2 out of a maximum of   20
 All quantities printed in internal units (Hartrees-Bohrs-Radians)
 Mixed Optimization -- RFO/linear search
 Update second derivatives using D2CorX and points    1    2
 DE= -4.03D-04 DEPred=-3.68D-04 R= 1.10D+00
 TightC=F SS=  1.41D+00  RLast= 3.66D-02 DXNew= 5.0454D-01 1.0983D-01
 Trust test= 1.10D+00 RLast= 3.66D-02 DXMaxT set to 3.00D-01
 The second derivative matrix:
                          R1        R2        A1
           R1           0.53231
           R2          -0.02243   0.53231
           A1           0.04402   0.04402   0.16246
 ITU=  1  0
 Use linear search instead of GDIIS.
     Eigenvalues ---    0.15164   0.52070   0.55473
 RFO step:  Lambda=-3.81131409D-05 EMin= 1.51640637D-01
 Quartic linear search produced a step of  0.13298.
 Iteration  1 RMS(Cart)=  0.00811710 RMS(Int)=  0.00005442
 Iteration  2 RMS(Cart)=  0.00005730 RMS(Int)=  0.00000000
 Iteration  3 RMS(Cart)=  0.00000000 RMS(Int)=  0.00000000
 ClnCor:  largest displacement from symmetrization is 6.47D-15 for atom     3.
 Variable       Old X    -DE/DX   Delta X   Delta X   Delta X     New X
                                 (Linear)    (Quad)   (Total)
    R1        1.83979   0.00138   0.00341   0.00089   0.00430   1.84410
    R2        1.83979   0.00138   0.00341   0.00089   0.00430   1.84410
    A1        1.90626  -0.00225  -0.00065  -0.01564  -0.01629   1.88997
         Item               Value     Threshold  Converged?
 Maximum Force            0.002251     0.000450     NO 
 RMS     Force            0.001722     0.000300     NO 
 Maximum Displacement     0.008003     0.001800     NO 
 RMS     Displacement     0.008144     0.001200     NO 
 Predicted change in Energy=-2.375179D-05
 GradGradGradGradGradGradGradGradGradGradGradGradGradGradGradGradGradGrad

                          Input orientation:                          
 ---------------------------------------------------------------------
 Center     Atomic      Atomic             Coordinates (Angstroms)
 Number     Number       Type             X           Y           Z
 ---------------------------------------------------------------------
      1          8           0        5.102258    2.301490    0.000000
      2          1           0        6.078056    2.311819   -0.000000
      3          1           0        4.786266    3.224766    0.000000
 ---------------------------------------------------------------------
                    Distance matrix (angstroms):
                    1          2          3
     1  O    0.000000
     2  H    0.975853   0.000000
     3  H    0.975853   1.581833   0.000000
 Stoichiometry    H2O
 Framework group  C2V[C2(O),SGV(H2)]
 Deg. of freedom     2
 Full point group                 C2V     NOp   4
 Largest Abelian subgroup         C2V     NOp   4
 Largest concise Abelian subgroup C2      NOp   2
                         Standard orientation:                         
 ---------------------------------------------------------------------
 Center     Atomic      Atomic             Coordinates (Angstroms)
 Number     Number       Type             X           Y           Z
 ---------------------------------------------------------------------
      1          8           0        0.000000   -0.000000    0.114322
      2          1           0       -0.000000    0.790917   -0.457290
      3          1           0       -0.000000   -0.790917   -0.457290
 ---------------------------------------------------------------------
 Rotational constants (GHZ):         864.0612891         400.8120669         273.8030567
 Standard basis: 6-31G (6D, 7F)
 There are     7 symmetry adapted cartesian basis functions of A1  symmetry.
 There are     0 symmetry adapted cartesian basis functions of A2  symmetry.
 There are     2 symmetry adapted cartesian basis functions of B1  symmetry.
 There are     4 symmetry adapted cartesian basis functions of B2  symmetry.
 There are     7 symmetry adapted basis functions of A1  symmetry.
 There are     0 symmetry adapted basis functions of A2  symmetry.
 There are     2 symmetry adapted basis functions of B1  symmetry.
 There are     4 symmetry adapted basis functions of B2  symmetry.
    13 basis functions,    30 primitive gaussians,    13 cartesian basis functions
     5 alpha electrons        5 beta electrons
       nuclear repulsion energy         9.0108758750 Hartrees.
 NAtoms=    3 NActive=    3 NUniq=    2 SFac= 2.25D+00 NAtFMM=   60 NAOKFM=F Big=F
 Integral buffers will be    131072 words long.
 Raffenetti 2 integral format.
 Two-electron integral symmetry is turned on.
 One-electron integrals computed using PRISM.
 NBasis=    13 RedAO= T EigKep=  7.14D-02  NBF=     7     0     2     4
 NBsUse=    13 1.00D-06 EigRej= -1.00D+00 NBFU=     7     0     2     4
 Initial guess from the checkpoint file:  "wat.chk"
 B after Tr=     0.000000    0.000000    0.000000
         Rot=    1.000000   -0.000000    0.000000    0.000000 Ang=   0.00 deg.
 Initial guess orbital symmetries:
       Occupied  (A1) (A1) (B2) (A1) (B1)
       Virtual   (A1) (B2) (B2) (A1) (B1) (A1) (B2) (A1)
 Keep R1 ints in memory in symmetry-blocked form, NReq=3460752.
 Requested convergence on RMS density matrix=1.00D-08 within 128 cycles.
 Requested convergence on MAX density matrix=1.00D-06.
 Requested convergence on             energy=1.00D-06.
 No special actions if energy rises.
 SCF Done:  E(RB3LYP) =  -76.3861166701     A.U. after    6 cycles
            NFock=  6  Conv=0.86D-08     -V/T= 2.0050
 Calling FoFJK, ICntrl=      2127 FMM=F ISym2X=1 I1Cent= 0 IOpClX= 0 NMat=1 NMatS=1 NMatT=0.
 ***** Axes restored to original set *****
 -------------------------------------------------------------------
 Center     Atomic                   Forces (Hartrees/Bohr)
 Number     Number              X              Y              Z
 -------------------------------------------------------------------
      1        8           0.000010548    0.000014924    0.000000000
      2        1           0.000018103   -0.000023983   -0.000000000
      3        1          -0.000028651    0.000009059   -0.000000000
 -------------------------------------------------------------------
 Cartesian Forces:  Max     0.000028651 RMS     0.000015420

 GradGradGradGradGradGradGradGradGradGradGradGradGradGradGradGradGradGrad
 Berny optimization.
 Using GEDIIS/GDIIS optimizer.
 FormGI is forming the generalized inverse of G from B-inverse, IUseBI=4.
 Internal  Forces:  Max     0.000044579 RMS     0.000029577
 Search for a local minimum.
 Step number   3 out of a maximum of   20
 All quantities printed in internal units (Hartrees-Bohrs-Radians)
 Mixed Optimization -- En-DIIS/RFO-DIIS
 Update second derivatives using D2CorX and points    1    2    3
 DE= -2.40D-05 DEPred=-2.38D-05 R= 1.01D+00
 TightC=F SS=  1.41D+00  RLast= 1.74D-02 DXNew= 5.0454D-01 5.2165D-02
 Trust test= 1.01D+00 RLast= 1.74D-02 DXMaxT set to 3.00D-01
 The second derivative matrix:
                          R1        R2        A1
           R1           0.52498
           R2          -0.02976   0.52498
           A1           0.04691   0.04691   0.16568
 ITU=  1  1  0
 Use linear search instead of GDIIS.
     Eigenvalues ---    0.15283   0.50807   0.55473
 RFO step:  Lambda= 0.00000000D+00 EMin= 1.52828439D-01
 Quartic linear search produced a step of -0.01159.
 Iteration  1 RMS(Cart)=  0.00015176 RMS(Int)=  0.00000001
 Iteration  2 RMS(Cart)=  0.00000001 RMS(Int)=  0.00000000
 ClnCor:  largest displacement from symmetrization is 1.99D-15 for atom     1.
 Variable       Old X    -DE/DX   Delta X   Delta X   Delta X     New X
                                 (Linear)    (Quad)   (Total)
    R1        1.84410   0.00002  -0.00005   0.00006   0.00001   1.84411
    R2        1.84410   0.00002  -0.00005   0.00006   0.00001   1.84411
    A1        1.88997   0.00004   0.00019   0.00007   0.00026   1.89023
         Item               Value     Threshold  Converged?
 Maximum Force            0.000045     0.000450     YES
 RMS     Force            0.000030     0.000300     YES
 Maximum Displacement     0.000159     0.001800     YES
 RMS     Displacement     0.000152     0.001200     YES
 Predicted change in Energy=-6.055485D-09
 Optimization completed.
    -- Stationary point found.
                           ----------------------------
                           !   Optimized Parameters   !
                           ! (Angstroms and Degrees)  !
 --------------------------                            --------------------------
 ! Name  Definition              Value          Derivative Info.                !
 --------------------------------------------------------------------------------
 ! R1    R(1,2)                  0.9759         -DE/DX =    0.0                 !
 ! R2    R(1,3)                  0.9759         -DE/DX =    0.0                 !
 ! A1    A(2,1,3)              108.2871         -DE/DX =    0.0                 !
 --------------------------------------------------------------------------------
 GradGradGradGradGradGradGradGradGradGradGradGradGradGradGradGradGradGrad

                          Input orientation:                          
 ---------------------------------------------------------------------
 Center     Atomic      Atomic             Coordinates (Angstroms)
 Number     Number       Type             X           Y           Z
 ---------------------------------------------------------------------
      1          8           0        5.102258    2.301490    0.000000
      2          1           0        6.078056    2.311819   -0.000000
      3          1           0        4.786266    3.224766    0.000000
 ---------------------------------------------------------------------
                    Distance matrix (angstroms):
                    1          2          3
     1  O    0.000000
     2  H    0.975853   0.000000
     3  H    0.975853   1.581833   0.000000
 Stoichiometry    H2O
 Framework group  C2V[C2(O),SGV(H2)]
 Deg. of freedom     2
 Full point group                 C2V     NOp   4
 Largest Abelian subgroup         C2V     NOp   4
 Largest concise Abelian subgroup C2      NOp   2
                         Standard orientation:                         
 ---------------------------------------------------------------------
 Center     Atomic      Atomic             Coordinates (Angstroms)
 Number     Number       Type             X           Y           Z
 ---------------------------------------------------------------------
      1          8           0        0.000000   -0.000000    0.114322
      2          1           0       -0.000000    0.790917   -0.457290
      3          1           0       -0.000000   -0.790917   -0.457290
 ---------------------------------------------------------------------
 Rotational constants (GHZ):         864.0612891         400.8120669         273.8030567

 **********************************************************************

            Population analysis using the SCF Density.

 **********************************************************************

 Orbital symmetries:
       Occupied  (A1) (A1) (B2) (A1) (B1)
       Virtual   (A1) (B2) (B2) (A1) (B1) (A1) (B2) (A1)
 The electronic state is 1-A1.
 Alpha  occ. eigenvalues --      -19.13356      -1.00642      -0.52949      -0.34861      -0.28961
 Alpha virt. eigenvalues --        0.05282       0.14242       0.82196       0.85115       0.89052
 Alpha virt. eigenvalues --        0.94466       1.07117       1.40875
          Condensed to atoms (all electrons):
               1          2          3
     1  O    8.234665   0.241495   0.241495
     2  H    0.241495   0.432413  -0.032736
     3  H    0.241495  -0.032736   0.432413
 Mulliken charges:
               1
     1  O   -0.717655
     2  H    0.358827
     3  H    0.358827
 Sum of Mulliken charges =  -0.00000
 Mulliken charges with hydrogens summed into heavy atoms:
               1
     1  O   -0.000000
 Electronic spatial extent (au):  <R**2>=             19.3914
 Charge=             -0.0000 electrons
 Dipole moment (field-independent basis, Debye):
    X=             -0.0000    Y=             -0.0000    Z=             -2.3989  Tot=              2.3989
 Quadrupole moment (field-independent basis, Debye-Ang):
   XX=             -7.2016   YY=             -4.1160   ZZ=             -6.2441
   XY=              0.0000   XZ=              0.0000   YZ=              0.0000
 Traceless Quadrupole moment (field-independent basis, Debye-Ang):
   XX=             -1.3477   YY=              1.7379   ZZ=             -0.3902
   XY=              0.0000   XZ=              0.0000   YZ=              0.0000
 Octapole moment (field-independent basis, Debye-Ang**2):
  XXX=              0.0000  YYY=             -0.0000  ZZZ=             -1.2793  XYY=             -0.0000
  XXY=             -0.0000  XXZ=             -0.3663  XZZ=              0.0000  YZZ=             -0.0000
  YYZ=             -1.1807  XYZ=             -0.0000
 Hexadecapole moment (field-independent basis, Debye-Ang**3):
 XXXX=             -5.1964 YYYY=             -6.0916 ZZZZ=             -6.3276 XXXY=             -0.0000
 XXXZ=             -0.0000 YYYX=             -0.0000 YYYZ=              0.0000 ZZZX=             -0.0000
 ZZZY=              0.0000 XXYY=             -2.1380 XXZZ=             -1.9616 YYZZ=             -1.8119
 XXYZ=              0.0000 YYXZ=              0.0000 ZZXY=             -0.0000
 N-N= 9.010875874962D+00 E-N=-1.987554306475D+02  KE= 7.600251543731D+01
 Symmetry A1   KE= 6.788585207340D+01
 Symmetry A2   KE= 0.000000000000D+00
 Symmetry B1   KE= 4.607468188041D+00
 Symmetry B2   KE= 3.509195175866D+00
 Unable to Open any file for archive entry.
 1\1\GINC-EMANUELE-SNS\FOpt\RB3LYP\6-31G\H2O1\EMANUELE\21-Oct-2021\0\\#
  b3lyp/6-31g geom=connectivity opt freq\\Title Card Required\\0,1\O,5.
 1022579634,2.3014902617,0.\H,6.0780564526,2.3118188504,0.\H,4.78626588
 86,3.2247661576,0.\\Version=ES64L-GDVRevJ.14\State=1-A1\HF=-76.3861167
 \RMSD=8.640e-09\RMSF=1.542e-05\Dipole=0.5447013,0.7707345,0.\Quadrupol
 e=0.7650603,0.2369114,-1.0019716,-0.7457233,0.,0.\PG=C02V [C2(O1),SGV(
 H2)]\\@
 The archive entry for this job was punched.


 THE UNDERLYING PHYSICAL LAWS NECESSARY FOR THE 
 MATHEMATICAL THEORY OF A LARGE PART OF PHYSICS AND THE
 WHOLE OF CHEMISTRY ARE THUS COMPLETELY KNOWN, AND THE
 DIFFICULTY IS ONLY THAT THE EXACT APPLICATION OF THESE
 LAWS LEADS TO EQUATIONS MUCH TOO COMPLICATED 
 TO BE SOLUBLE.

                                        -- P. A. M. DIRAC, 1929
 Job cpu time:       0 days  0 hours  0 minutes  6.3 seconds.
 Elapsed time:       0 days  0 hours  0 minutes  1.6 seconds.
 File lengths (MBytes):  RWF=      6 Int=      0 D2E=      0 Chk=      1 Scr=      1
 Normal termination of Gaussian DV at Thu Oct 21 14:43:31 2021.
 Link1:  Proceeding to internal job step number  2.
 -----------------------------------------------------------------
 #N Geom=AllCheck Guess=TCheck SCRF=Check GenChk RB3LYP/6-31G Freq
 -----------------------------------------------------------------
 1/10=4,29=7,30=1,38=1,40=1/1,3;
 2/12=2,40=1/2;
 3/5=1,6=6,11=2,14=-4,25=1,30=1,70=2,71=2,74=-5,116=1,140=1/1,2,3;
 4/5=101/1;
 5/5=2,38=6,98=1/2;
 8/6=4,10=90,11=11/1;
 11/6=1,8=1,9=11,15=111,16=1/1,2,10;
 10/6=1/2;
 6/7=2,8=2,9=2,10=2,28=1/1;
 7/8=1,10=1,25=1/1,2,3,16;
 1/10=4,30=1/3;
 99//99;
 Structure from the checkpoint file:  "wat.chk"
 -------------------
 Title Card Required
 -------------------
 Charge =  0 Multiplicity = 1
 Redundant internal coordinates found in file.  (old form).
 O,0,5.1022579634,2.3014902617,0.
 H,0,6.0780564526,2.3118188504,0.
 H,0,4.7862658886,3.2247661576,0.
 Recover connectivity data from disk.

 GradGradGradGradGradGradGradGradGradGradGradGradGradGradGradGradGradGrad
 Berny optimization.
 Initialization pass.
                           ----------------------------
                           !    Initial Parameters    !
                           ! (Angstroms and Degrees)  !
 --------------------------                            --------------------------
 ! Name  Definition              Value          Derivative Info.                !
 --------------------------------------------------------------------------------
 ! R1    R(1,2)                  0.9759         calculate D2E/DX2 analytically  !
 ! R2    R(1,3)                  0.9759         calculate D2E/DX2 analytically  !
 ! A1    A(2,1,3)              108.2871         calculate D2E/DX2 analytically  !
 --------------------------------------------------------------------------------
 Trust Radius=3.00D-01 FncErr=1.00D-07 GrdErr=1.00D-07 EigMax=2.50D+02 EigMin=1.00D-04
 Number of steps in this run=      2 maximum allowed number of steps=      2.
 GradGradGradGradGradGradGradGradGradGradGradGradGradGradGradGradGradGrad

                          Input orientation:                          
 ---------------------------------------------------------------------
 Center     Atomic      Atomic             Coordinates (Angstroms)
 Number     Number       Type             X           Y           Z
 ---------------------------------------------------------------------
      1          8           0        5.102258    2.301490    0.000000
      2          1           0        6.078056    2.311819   -0.000000
      3          1           0        4.786266    3.224766    0.000000
 ---------------------------------------------------------------------
                    Distance matrix (angstroms):
                    1          2          3
     1  O    0.000000
     2  H    0.975853   0.000000
     3  H    0.975853   1.581833   0.000000
 Stoichiometry    H2O
 Framework group  C2V[C2(O),SGV(H2)]
 Deg. of freedom     2
 Full point group                 C2V     NOp   4
 Largest Abelian subgroup         C2V     NOp   4
 Largest concise Abelian subgroup C2      NOp   2
                         Standard orientation:                         
 ---------------------------------------------------------------------
 Center     Atomic      Atomic             Coordinates (Angstroms)
 Number     Number       Type             X           Y           Z
 ---------------------------------------------------------------------
      1          8           0        0.000000    0.000000    0.114322
      2          1           0       -0.000000    0.790917   -0.457290
      3          1           0       -0.000000   -0.790917   -0.457290
 ---------------------------------------------------------------------
 Rotational constants (GHZ):         864.0612891         400.8120669         273.8030567
 Standard basis: 6-31G (6D, 7F)
 There are     7 symmetry adapted cartesian basis functions of A1  symmetry.
 There are     0 symmetry adapted cartesian basis functions of A2  symmetry.
 There are     2 symmetry adapted cartesian basis functions of B1  symmetry.
 There are     4 symmetry adapted cartesian basis functions of B2  symmetry.
 There are     7 symmetry adapted basis functions of A1  symmetry.
 There are     0 symmetry adapted basis functions of A2  symmetry.
 There are     2 symmetry adapted basis functions of B1  symmetry.
 There are     4 symmetry adapted basis functions of B2  symmetry.
    13 basis functions,    30 primitive gaussians,    13 cartesian basis functions
     5 alpha electrons        5 beta electrons
       nuclear repulsion energy         9.0108758750 Hartrees.
 NAtoms=    3 NActive=    3 NUniq=    2 SFac= 2.25D+00 NAtFMM=   60 NAOKFM=F Big=F
 Integral buffers will be    131072 words long.
 Raffenetti 2 integral format.
 Two-electron integral symmetry is turned on.
 One-electron integrals computed using PRISM.
 NBasis=    13 RedAO= T EigKep=  7.14D-02  NBF=     7     0     2     4
 NBsUse=    13 1.00D-06 EigRej= -1.00D+00 NBFU=     7     0     2     4
 Initial guess from the checkpoint file:  "wat.chk"
 B after Tr=    -0.000000    0.000000   -0.000000
         Rot=    1.000000    0.000000   -0.000000   -0.000000 Ang=   0.00 deg.
 Initial guess orbital symmetries:
       Occupied  (A1) (A1) (B2) (A1) (B1)
       Virtual   (A1) (B2) (B2) (A1) (B1) (A1) (B2) (A1)
 Keep R1 ints in memory in symmetry-blocked form, NReq=3460752.
 Requested convergence on RMS density matrix=1.00D-08 within 128 cycles.
 Requested convergence on MAX density matrix=1.00D-06.
 Requested convergence on             energy=1.00D-06.
 No special actions if energy rises.
 SCF Done:  E(RB3LYP) =  -76.3861166701     A.U. after    1 cycles
            NFock=  1  Conv=0.59D-09     -V/T= 2.0050
 DoSCS=F DFT=T ScalE2(SS,OS)=  1.000000  1.000000
 Range of M.O.s used for correlation:     1    13
 NBasis=    13 NAE=     5 NBE=     5 NFC=     0 NFV=     0
 NROrb=     13 NOA=     5 NOB=     5 NVA=     8 NVB=     8
 Symmetrizing basis deriv contribution to polar:
 IMax=3 JMax=2 DiffMx= 0.00D+00
 G2DrvN: will do     4 centers at a time, making    1 passes.
 Calling FoFCou, ICntrl=  3107 FMM=F I1Cent=   0 AccDes= 0.00D+00.
 End of G2Drv F.D. properties file    721 does not exist.
 End of G2Drv F.D. properties file    722 does not exist.
 End of G2Drv F.D. properties file    788 does not exist.
          IDoAtm=111
          Differentiating once with respect to electric field.
                with respect to dipole field.
          Differentiating once with respect to nuclear coordinates.
 Keep R1 ints in memory in symmetry-blocked form, NReq=3450311.
          There are     9 degrees of freedom in the 1st order CPHF.  IDoFFX=4 NUNeed=     9.
      9 vectors produced by pass  0 Test12= 4.44D-16 1.11D-08 XBig12= 3.57D+00 1.37D+00.
 AX will form     9 AO Fock derivatives at one time.
      9 vectors produced by pass  1 Test12= 4.44D-16 1.11D-08 XBig12= 3.25D-01 2.89D-01.
      9 vectors produced by pass  2 Test12= 4.44D-16 1.11D-08 XBig12= 1.81D-03 2.58D-02.
      8 vectors produced by pass  3 Test12= 4.44D-16 1.11D-08 XBig12= 5.24D-07 3.90D-04.
      3 vectors produced by pass  4 Test12= 4.44D-16 1.11D-08 XBig12= 1.34D-11 2.59D-06.
      1 vectors produced by pass  5 Test12= 4.44D-16 1.11D-08 XBig12= 1.67D-15 1.79D-08.
 InvSVY:  IOpt=1 It=  1 EMax= 8.33D-17
 Solved reduced A of dimension    39 with     9 vectors.
 Isotropic polarizability for W=    0.000000        4.55 Bohr**3.
 End of Minotr F.D. properties file    721 does not exist.
 End of Minotr F.D. properties file    722 does not exist.
 End of Minotr F.D. properties file    788 does not exist.

 **********************************************************************

            Population analysis using the SCF Density.

 **********************************************************************

 Orbital symmetries:
       Occupied  (A1) (A1) (B2) (A1) (B1)
       Virtual   (A1) (B2) (B2) (A1) (B1) (A1) (B2) (A1)
 The electronic state is 1-A1.
 Alpha  occ. eigenvalues --      -19.13356      -1.00642      -0.52949      -0.34861      -0.28961
 Alpha virt. eigenvalues --        0.05282       0.14242       0.82196       0.85115       0.89052
 Alpha virt. eigenvalues --        0.94466       1.07117       1.40875
          Condensed to atoms (all electrons):
               1          2          3
     1  O    8.234665   0.241495   0.241495
     2  H    0.241495   0.432413  -0.032736
     3  H    0.241495  -0.032736   0.432413
 Mulliken charges:
               1
     1  O   -0.717655
     2  H    0.358827
     3  H    0.358827
 Sum of Mulliken charges =  -0.00000
 Mulliken charges with hydrogens summed into heavy atoms:
               1
     1  O   -0.000000
 APT charges:
               1
     1  O   -0.504180
     2  H    0.252090
     3  H    0.252090
 Sum of APT charges =  -0.00000
 APT charges with hydrogens summed into heavy atoms:
               1
     1  O   -0.000000
 Electronic spatial extent (au):  <R**2>=             19.3914
 Charge=             -0.0000 electrons
 Dipole moment (field-independent basis, Debye):
    X=             -0.0000    Y=              0.0000    Z=             -2.3989  Tot=              2.3989
 Quadrupole moment (field-independent basis, Debye-Ang):
   XX=             -7.2016   YY=             -4.1160   ZZ=             -6.2441
   XY=              0.0000   XZ=              0.0000   YZ=             -0.0000
 Traceless Quadrupole moment (field-independent basis, Debye-Ang):
   XX=             -1.3477   YY=              1.7379   ZZ=             -0.3902
   XY=              0.0000   XZ=              0.0000   YZ=             -0.0000
 Octapole moment (field-independent basis, Debye-Ang**2):
  XXX=              0.0000  YYY=             -0.0000  ZZZ=             -1.2793  XYY=             -0.0000
  XXY=             -0.0000  XXZ=             -0.3663  XZZ=              0.0000  YZZ=             -0.0000
  YYZ=             -1.1807  XYZ=             -0.0000
 Hexadecapole moment (field-independent basis, Debye-Ang**3):
 XXXX=             -5.1964 YYYY=             -6.0916 ZZZZ=             -6.3276 XXXY=             -0.0000
 XXXZ=             -0.0000 YYYX=             -0.0000 YYYZ=             -0.0000 ZZZX=             -0.0000
 ZZZY=             -0.0000 XXYY=             -2.1380 XXZZ=             -1.9616 YYZZ=             -1.8119
 XXYZ=             -0.0000 YYXZ=              0.0000 ZZXY=             -0.0000
 N-N= 9.010875874962D+00 E-N=-1.987554305189D+02  KE= 7.600251537687D+01
 Symmetry A1   KE= 6.788585204385D+01
 Symmetry A2   KE= 0.000000000000D+00
 Symmetry B1   KE= 4.607468170604D+00
 Symmetry B2   KE= 3.509195162412D+00
  Exact polarizability:       1.450       0.000       7.496       0.000      -0.000       4.707
 Approx polarizability:       1.389       0.000       8.685       0.000       0.000       5.529
 Calling FoFJK, ICntrl=    100127 FMM=F ISym2X=1 I1Cent= 0 IOpClX= 0 NMat=1 NMatS=1 NMatT=0.
 Full mass-weighted force constant matrix:
 Low frequencies ---  -16.0231   -9.2998   -0.0027   -0.0022   -0.0021   22.9688
 Low frequencies --- 1619.2966 3616.1106 3780.9665
 Diagonal vibrational polarizability:
        0.0000000       0.0165742       0.7105662
 Harmonic frequencies (cm**-1), IR intensities (KM/Mole), Raman scattering
 activities (A**4/AMU), depolarization ratios for plane and unpolarized
 incident light, reduced masses (AMU), force constants (mDyne/A),
 and normal coordinates:
                      1                      2                      3
                     A1                     A1                     B2
 Frequencies --   1619.2966              3616.1106              3780.9665
 Red. masses --      1.0918                 1.0368                 1.0856
 Frc consts  --      1.6867                 7.9881                 9.1437
 IR Inten    --     68.3504                 4.4101                 8.8045
  Atom  AN      X      Y      Z        X      Y      Z        X      Y      Z
     1   8    -0.00   0.00  -0.07     0.00  -0.00   0.04    -0.00  -0.07  -0.00
     2   1     0.00   0.38   0.59     0.00   0.61  -0.35    -0.00   0.57  -0.41
     3   1     0.00  -0.38   0.59    -0.00  -0.61  -0.35     0.00   0.57   0.41

 -------------------
 - Thermochemistry -
 -------------------
 Temperature   298.150 Kelvin.  Pressure      1.00000 Atm.
 Atom     1 has atomic number  8 and mass  15.99491
 Atom     2 has atomic number  1 and mass   1.00783
 Atom     3 has atomic number  1 and mass   1.00783
 Molecular mass:    18.01056 amu.
 Principal axes and moments of inertia in atomic units:
                                 1                 2                 3
     Eigenvalues --            2.088673          4.502712          6.591384
           X                   0.000000          0.000000          1.000000
           Y                   1.000000         -0.000000         -0.000000
           Z                   0.000000          1.000000         -0.000000
 This molecule is an asymmetric top.
 Rotational symmetry number  2.
 Rotational temperatures (Kelvin)     41.46840    19.23595    13.14047
 Rotational constants (GHZ):         864.06129   400.81207   273.80306
 Zero-point vibrational energy      53929.9 (Joules/Mol)
                                   12.88955 (Kcal/Mol)
 Vibrational temperatures:   2329.81  5202.78  5439.97
          (Kelvin)
 
 Zero-point correction=                           0.020541 (Hartree/Particle)
 Thermal correction to Energy=                    0.023376
 Thermal correction to Enthalpy=                  0.024321
 Thermal correction to Gibbs Free Energy=         0.002872
 Sum of electronic and zero-point Energies=            -76.365576
 Sum of electronic and thermal Energies=               -76.362740
 Sum of electronic and thermal Enthalpies=             -76.361796
 Sum of electronic and thermal Free Energies=          -76.383244
 
                     E (Thermal)             CV                S
                      KCal/Mol        Cal/Mol-Kelvin    Cal/Mol-Kelvin
 Total                   14.669              6.011             45.141
 Electronic               0.000              0.000              0.000
 Translational            0.889              2.981             34.608
 Rotational               0.889              2.981             10.526
 Vibrational             12.891              0.049              0.007
                       Q            Log10(Q)             Ln(Q)
 Total Bot       0.477296D-01         -1.321212         -3.042203
 Total V=0       0.133936D+09          8.126897         18.712871
 Vib (Bot)       0.356506D-09         -9.447933        -21.754670
 Vib (V=0)       0.100040D+01          0.000175          0.000404
 Electronic      0.100000D+01          0.000000          0.000000
 Translational   0.300431D+07          6.477745         14.915559
 Rotational      0.445632D+02          1.648976          3.796908
 ***** Axes restored to original set *****
 -------------------------------------------------------------------
 Center     Atomic                   Forces (Hartrees/Bohr)
 Number     Number              X              Y              Z
 -------------------------------------------------------------------
      1        8           0.000010546    0.000014923    0.000000000
      2        1           0.000018104   -0.000023983    0.000000000
      3        1          -0.000028651    0.000009060   -0.000000000
 -------------------------------------------------------------------
 Cartesian Forces:  Max     0.000028651 RMS     0.000015419
 FormGI is forming the generalized inverse of G from B-inverse, IUseBI=4.

 GradGradGradGradGradGradGradGradGradGradGradGradGradGradGradGradGradGrad
 Berny optimization.
 Internal  Forces:  Max     0.000044578 RMS     0.000029577
 Search for a local minimum.
 Step number   1 out of a maximum of    2
 All quantities printed in internal units (Hartrees-Bohrs-Radians)
 Second derivative matrix not updated -- analytic derivatives used.
 The second derivative matrix:
                          R1        R2        A1
           R1           0.49098
           R2          -0.01257   0.49098
           A1           0.04342   0.04342   0.16533
 ITU=  0
     Eigenvalues ---    0.15372   0.49002   0.50354
 Angle between quadratic step and forces=  25.37 degrees.
 Linear search not attempted -- first point.
 Iteration  1 RMS(Cart)=  0.00015307 RMS(Int)=  0.00000001
 Iteration  2 RMS(Cart)=  0.00000001 RMS(Int)=  0.00000000
 ClnCor:  largest displacement from symmetrization is 1.99D-15 for atom     1.
 Variable       Old X    -DE/DX   Delta X   Delta X   Delta X     New X
                                 (Linear)    (Quad)   (Total)
    R1        1.84410   0.00002   0.00000   0.00001   0.00001   1.84411
    R2        1.84410   0.00002   0.00000   0.00001   0.00001   1.84411
    A1        1.88997   0.00004   0.00000   0.00026   0.00026   1.89023
         Item               Value     Threshold  Converged?
 Maximum Force            0.000045     0.000450     YES
 RMS     Force            0.000030     0.000300     YES
 Maximum Displacement     0.000161     0.001800     YES
 RMS     Displacement     0.000153     0.001200     YES
 Predicted change in Energy=-6.092488D-09
 Optimization completed.
    -- Stationary point found.
                           ----------------------------
                           !   Optimized Parameters   !
                           ! (Angstroms and Degrees)  !
 --------------------------                            --------------------------
 ! Name  Definition              Value          Derivative Info.                !
 --------------------------------------------------------------------------------
 ! R1    R(1,2)                  0.9759         -DE/DX =    0.0                 !
 ! R2    R(1,3)                  0.9759         -DE/DX =    0.0                 !
 ! A1    A(2,1,3)              108.2871         -DE/DX =    0.0                 !
 --------------------------------------------------------------------------------
 GradGradGradGradGradGradGradGradGradGradGradGradGradGradGradGradGradGrad


 ----------------------------------------------------------------------

 Electric dipole moment (input orientation):
 (Debye = 10**-18 statcoulomb cm , SI units = C m)
                  (au)            (Debye)         (10**-30 SI)
   Tot        0.943786D+00      0.239886D+01      0.800175D+01
   x          0.544701D+00      0.138449D+01      0.461817D+01
   y          0.770734D+00      0.195901D+01      0.653456D+01
   z          0.000000D+00      0.000000D+00      0.000000D+00

 Dipole polarizability, Alpha (input orientation).
 (esu units = cm**3 , SI units = C**2 m**2 J**-1)
 Alpha(0;0):
               (au)            (10**-24 esu)      (10**-40 SI)
   iso        0.455123D+01      0.674423D+00      0.750397D+00
   aniso      0.524092D+01      0.776624D+00      0.864111D+00
   xx         0.656711D+01      0.973145D+00      0.108277D+01
   yx        -0.131440D+01     -0.194775D+00     -0.216716D+00
   yy         0.563620D+01      0.835199D+00      0.929284D+00
   zx         0.000000D+00      0.000000D+00      0.000000D+00
   zy         0.000000D+00      0.000000D+00      0.000000D+00
   zz         0.145039D+01      0.214925D+00      0.239136D+00

 ----------------------------------------------------------------------

 Dipole orientation:
     8          4.38033458         -3.09571441          9.11648523
     1          5.60089977         -3.95832459         10.19667565
     1          3.15976939         -2.23310422         10.19667565

 Electric dipole moment (dipole orientation):
 (Debye = 10**-18 statcoulomb cm , SI units = C m)
                  (au)            (Debye)         (10**-30 SI)
   Tot        0.943786D+00      0.239886D+01      0.800175D+01
   x          0.000000D+00      0.000000D+00      0.000000D+00
   y          0.000000D+00      0.000000D+00      0.000000D+00
   z          0.943786D+00      0.239886D+01      0.800175D+01

 Dipole polarizability, Alpha (dipole orientation).
 (esu units = cm**3 , SI units = C**2 m**2 J**-1)
 Alpha(0;0):
               (au)            (10**-24 esu)      (10**-40 SI)
   iso        0.455123D+01      0.674423D+00      0.750397D+00
   aniso      0.524092D+01      0.776624D+00      0.864111D+00
   xx         0.548225D+01      0.812386D+00      0.903901D+00
   yx        -0.284944D+01     -0.422244D+00     -0.469810D+00
   yy         0.346417D+01      0.513337D+00      0.571165D+00
   zx         0.000000D+00      0.000000D+00      0.000000D+00
   zy         0.000000D+00      0.000000D+00      0.000000D+00
   zz         0.470727D+01      0.697546D+00      0.776124D+00

 ----------------------------------------------------------------------
 Unable to Open any file for archive entry.
 1\1\GINC-EMANUELE-SNS\Freq\RB3LYP\6-31G\H2O1\EMANUELE\21-Oct-2021\0\\#
 N Geom=AllCheck Guess=TCheck SCRF=Check GenChk RB3LYP/6-31G Freq\\Titl
 e Card Required\\0,1\O,5.1022579634,2.3014902617,0.\H,6.0780564526,2.3
 118188504,0.\H,4.7862658886,3.2247661576,0.\\Version=ES64L-GDVRevJ.14\
 State=1-A1\HF=-76.3861167\RMSD=5.950e-10\RMSF=1.542e-05\ZeroPoint=0.02
 05408\Thermal=0.0233763\ETot=-76.3627403\HTot=-76.3617961\GTot=-76.383
 2443\Dipole=0.5447013,0.7707345,0.\DipoleDeriv=-0.3402878,0.0589561,0.
 ,0.0589561,-0.2985329,0.,0.,0.,-0.8737183,0.0213594,-0.062298,0.,-0.10
 20328,0.2980509,0.,0.,0.,0.4368592,0.3189284,0.0033419,0.,0.0430767,0.
 000482,0.,0.,0.,0.4368592\Polar=6.5671108,-1.3144037,5.6362013,0.,0.,1
 .4503856\Quadrupole=0.7650603,0.2369114,-1.0019716,-0.7457232,0.,0.\PG
 =C02V [C2(O1),SGV(H2)]\NImag=0\\0.56329869,-0.13903085,0.46483188,0.,0
 .,0.00003574,-0.47265029,0.03831472,0.,0.49142812,-0.03455784,-0.04141
 500,0.,-0.01886652,0.04816124,0.,0.,-0.00001787,0.,0.,0.00000404,-0.09
 064840,0.10071613,0.,-0.01877783,0.05342436,0.,0.10942623,0.17358869,-
 0.42341688,0.,-0.01944820,-0.00674625,0.,-0.15414048,0.43016313,0.,0.,
 -0.00001787,0.,0.,0.00001383,0.,0.,0.00000404\\-0.00001055,-0.00001492
 ,0.,-0.00001810,0.00002398,0.,0.00002865,-0.00000906,0.\\\@
 The archive entry for this job was punched.


 ACCORDING TO HEN3RY, LIFE IS MUCH LIKE A SEWER........
 YOU GET OUT OF IT JUST WHAT YOU PUT INTO IT...........
                         TOM LEHRER - (THE 3 IS SILENT)
 Job cpu time:       0 days  0 hours  0 minutes  4.2 seconds.
 Elapsed time:       0 days  0 hours  0 minutes  1.0 seconds.
 File lengths (MBytes):  RWF=      6 Int=      0 D2E=      0 Chk=      1 Scr=      1
 Normal termination of Gaussian DV at Thu Oct 21 14:43:32 2021.
