 Entering Gaussian System, Link 0=g09
 Input=GauHarm.gjf
 Output=GauHarm.log
 Initial command:
 /home/emanuele/chem_software/gaussian//gdv/l1.exe "/home/emanuele/chem_software/gaussian/scratch/Gau-20220.inp" -scrdir="/home/emanuele/chem_software/gaussian/scratch/"
 Entering Link 1 = /home/emanuele/chem_software/gaussian//gdv/l1.exe PID=     20222.
  
 Copyright (c) 1988-2020, Gaussian, Inc.  All Rights Reserved.
  
 This is the private, development version of
 the Gaussian(R) DV system of programs. It is based on
 the Gaussian(R) 16 system (copyright 2016, Gaussian, Inc.),
 the Gaussian(R) 09 system (copyright 2009, Gaussian, Inc.),
 the Gaussian(R) 03 system (copyright 2003, Gaussian, Inc.),
 the Gaussian(R) 98 system (copyright 1998, Gaussian, Inc.),
 the Gaussian(R) 94 system (copyright 1995, Gaussian, Inc.),
 the Gaussian 92(TM) system (copyright 1992, Gaussian, Inc.),
 the Gaussian 90(TM) system (copyright 1990, Gaussian, Inc.),
 the Gaussian 88(TM) system (copyright 1988, Gaussian, Inc.),
 the Gaussian 86(TM) system (copyright 1986, Carnegie Mellon
 University), and the Gaussian 82(TM) system (copyright 1983,
 Carnegie Mellon University). Gaussian is a federally registered
 trademark of Gaussian, Inc.
  
 This software contains proprietary and confidential information,
 including trade secrets, belonging to Gaussian, Inc.
  
 This software is provided under written license and may be
 used, copied, transmitted, or stored only in accord with that
 written license.
  
 The following legend is applicable only to US Government
 contracts under FAR:
  
                    RESTRICTED RIGHTS LEGEND
  
 Use, reproduction and disclosure by the US Government is
 subject to restrictions as set forth in subparagraphs (a)
 and (c) of the Commercial Computer Software - Restricted
 Rights clause in FAR 52.227-19.
  
 Gaussian, Inc.
 340 Quinnipiac St., Bldg. 40, Wallingford CT 06492
  
  
 ---------------------------------------------------------------
 Warning -- This program may not be used in any manner that
 competes with the business of Gaussian, Inc. or will provide
 assistance to any competitor of Gaussian, Inc.  The licensee
 of this program is prohibited from giving any competitor of
 Gaussian, Inc. access to this program.  By using this program,
 the user acknowledges that Gaussian, Inc. is engaged in the
 business of creating and licensing software in the field of
 computational chemistry and represents and warrants to the
 licensee that it is not a competitor of Gaussian, Inc. and that
 it will not use this program in any manner prohibited above.
 ---------------------------------------------------------------
  

 Cite this work as:
 Gaussian Development Version, Revision J.14,
 M. J. Frisch, G. W. Trucks, H. B. Schlegel, G. E. Scuseria, 
 M. A. Robb, J. R. Cheeseman, G. Scalmani, V. Barone, 
 G. A. Petersson, H. Nakatsuji, X. Li, A. V. Marenich, M. Caricato, 
 J. Bloino, B. G. Janesko, J. Zheng, R. Gomperts, B. Mennucci, 
 H. P. Hratchian, J. V. Ortiz, A. F. Izmaylov, J. L. Sonnenberg, 
 D. Williams-Young, F. Ding, F. Lipparini, F. Egidi, J. Goings, 
 B. Peng, A. Petrone, T. Henderson, D. Ranasinghe, V. G. Zakrzewski, 
 J. Gao, N. Rega, G. Zheng, W. Liang, M. Hada, M. Ehara, K. Toyota, 
 R. Fukuda, J. Hasegawa, M. Ishida, T. Nakajima, Y. Honda, O. Kitao, 
 H. Nakai, T. Vreven, K. Throssell, J. A. Montgomery, Jr., 
 J. E. Peralta, F. Ogliaro, M. J. Bearpark, J. J. Heyd, 
 E. N. Brothers, K. N. Kudin, V. N. Staroverov, T. A. Keith, 
 R. Kobayashi, J. Normand, K. Raghavachari, A. P. Rendell, 
 J. C. Burant, S. S. Iyengar, J. Tomasi, M. Cossi, J. M. Millam, 
 M. Klene, C. Adamo, R. Cammi, J. W. Ochterski, R. L. Martin, 
 K. Morokuma, O. Farkas, J. B. Foresman, and D. J. Fox, 
 Gaussian, Inc., Wallingford CT, 2020.
 
 ******************************************
 Gaussian DV:  ES64L-GDVRevJ.14 29-Dec-2020
                21-Oct-2022 
 ******************************************
 %mem=1GB
 %nprocshared=1
 Will use up to    1 processors via shared memory.
 %chk=GauHarm.chk
 ----------------------------------------------
 #p Amber=(SoftOnly,Print) nosymm Freq=intmodes
 ----------------------------------------------
 1/10=4,18=20,30=1,37=210000000,38=1,56=2,64=303/1,3;
 2/9=110,12=2,15=1,40=1/2;
 3/5=30,11=9,25=1,30=1,41=10030000,43=2,71=2,140=1/1;
 4/20=11,22=2,24=3,119=11/2;
 7/8=21,25=1,30=1,44=-1/16;
 1/10=4,18=20,30=1,64=303/3;
 99//99;
 Leave Link    1 at Fri Oct 21 15:33:03 2022, MaxMem=   134217728 cpu:               0.0 elap:               0.0
 (Enter /home/emanuele/chem_software/gaussian//gdv/l101.exe)
 -----
 Title
 -----
 Symbolic Z-matrix:
 Charge =  0 Multiplicity = 1
 C-CT-0.00             1.9569   -0.12039   0. 
 H-HC-0.00             2.74201   0.63726   0. 
 H-HC-0.00             2.10375  -0.74938  -0.88076 
 H-HC-0.00             2.10375  -0.74938   0.88076 
 C-CT-0.00             0.56696   0.51292   0. 
 H-HC-0.00             0.46175   1.1634   -0.87403 
 H-HC-0.00             0.46175   1.1634    0.87403 
 C-CT-0.00            -0.56696  -0.51292   0. 
 H-HC-0.00            -0.46175  -1.1634   -0.87403 
 H-HC-0.00            -0.46175  -1.1634    0.87403 
 C-CT-0.00            -1.9569    0.12039   0. 
 H-HC-0.00            -2.10375   0.74938  -0.88076 
 H-HC-0.00            -2.74201  -0.63726   0. 
 H-HC-0.00            -2.10375   0.74938   0.88076 
 
 ITRead=  0  0  0  0  0  0  0  0  0  0  0  0  0  0
 MicOpt= -1 -1 -1 -1 -1 -1 -1 -1 -1 -1 -1 -1 -1 -1
 DXMax1 from symmetrization= 1.89D-06
 NAtoms=     14 NQM=       14 NQMF=       0 NMMI=      0 NMMIF=      0
                NMic=       0 NMicF=      0.
                    Isotopes and Nuclear Properties:
 (Nuclear quadrupole moments (NQMom) in fm**2, nuclear magnetic moments (NMagM)
  in nuclear magnetons)

  Atom         1           2           3           4           5           6           7           8           9          10
 IAtWgt=          12           1           1           1          12           1           1          12           1           1
 AtmWgt=  12.0000000   1.0078250   1.0078250   1.0078250  12.0000000   1.0078250   1.0078250  12.0000000   1.0078250   1.0078250
 NucSpn=           0           1           1           1           0           1           1           0           1           1
 AtZEff=  -0.0000000  -0.0000000  -0.0000000  -0.0000000  -0.0000000  -0.0000000  -0.0000000  -0.0000000  -0.0000000  -0.0000000
 NQMom=    0.0000000   0.0000000   0.0000000   0.0000000   0.0000000   0.0000000   0.0000000   0.0000000   0.0000000   0.0000000
 NMagM=    0.0000000   2.7928460   2.7928460   2.7928460   0.0000000   2.7928460   2.7928460   0.0000000   2.7928460   2.7928460
 AtZNuc=   6.0000000   1.0000000   1.0000000   1.0000000   6.0000000   1.0000000   1.0000000   6.0000000   1.0000000   1.0000000

  Atom        11          12          13          14
 IAtWgt=          12           1           1           1
 AtmWgt=  12.0000000   1.0078250   1.0078250   1.0078250
 NucSpn=           0           1           1           1
 AtZEff=  -0.0000000  -0.0000000  -0.0000000  -0.0000000
 NQMom=    0.0000000   0.0000000   0.0000000   0.0000000
 NMagM=    0.0000000   2.7928460   2.7928460   2.7928460
 AtZNuc=   6.0000000   1.0000000   1.0000000   1.0000000
 Generating MM parameters.
 Read MM parameter file:
 Include all MM classes

 MM sanity checks:
 All charges sum to:                0.00000000
 Charges of atoms sum to:           0.00000000
 WARNING -- There are centers with partial charges, but
 there is no Vanderwaals repulsion. Centers can collapse
 onto each other.
 MMInit generated parameter data with length LenPar=        2209.
 Leave Link  101 at Fri Oct 21 15:33:03 2022, MaxMem=   134217728 cpu:               0.3 elap:               0.3
 (Enter /home/emanuele/chem_software/gaussian//gdv/l103.exe)

 GradGradGradGradGradGradGradGradGradGradGradGradGradGradGradGradGradGrad
 Berny optimization.
 Initialization pass.
                           ----------------------------
                           !    Initial Parameters    !
                           ! (Angstroms and Degrees)  !
 --------------------------                            --------------------------
 ! Name  Definition              Value          Derivative Info.                !
 --------------------------------------------------------------------------------
 ! R1    R(1,2)                  1.0911         calculate D2E/DX2 analytically  !
 ! R2    R(1,3)                  1.0922         calculate D2E/DX2 analytically  !
 ! R3    R(1,4)                  1.0922         calculate D2E/DX2 analytically  !
 ! R4    R(1,5)                  1.5274         calculate D2E/DX2 analytically  !
 ! R5    R(5,6)                  1.0946         calculate D2E/DX2 analytically  !
 ! R6    R(5,7)                  1.0946         calculate D2E/DX2 analytically  !
 ! R7    R(5,8)                  1.5291         calculate D2E/DX2 analytically  !
 ! R8    R(8,9)                  1.0946         calculate D2E/DX2 analytically  !
 ! R9    R(8,10)                 1.0946         calculate D2E/DX2 analytically  !
 ! R10   R(8,11)                 1.5274         calculate D2E/DX2 analytically  !
 ! R11   R(11,12)                1.0922         calculate D2E/DX2 analytically  !
 ! R12   R(11,13)                1.0911         calculate D2E/DX2 analytically  !
 ! R13   R(11,14)                1.0922         calculate D2E/DX2 analytically  !
 ! A1    A(2,1,3)              107.6468         calculate D2E/DX2 analytically  !
 ! A2    A(2,1,4)              107.6468         calculate D2E/DX2 analytically  !
 ! A3    A(2,1,5)              111.5239         calculate D2E/DX2 analytically  !
 ! A4    A(3,1,4)              107.4912         calculate D2E/DX2 analytically  !
 ! A5    A(3,1,5)              111.1697         calculate D2E/DX2 analytically  !
 ! A6    A(4,1,5)              111.1697         calculate D2E/DX2 analytically  !
 ! A7    A(1,5,6)              109.5036         calculate D2E/DX2 analytically  !
 ! A8    A(1,5,7)              109.5036         calculate D2E/DX2 analytically  !
 ! A9    A(1,5,8)              113.3692         calculate D2E/DX2 analytically  !
 ! A10   A(6,5,7)              105.9737         calculate D2E/DX2 analytically  !
 ! A11   A(6,5,8)              109.1118         calculate D2E/DX2 analytically  !
 ! A12   A(7,5,8)              109.1118         calculate D2E/DX2 analytically  !
 ! A13   A(5,8,9)              109.1118         calculate D2E/DX2 analytically  !
 ! A14   A(5,8,10)             109.1118         calculate D2E/DX2 analytically  !
 ! A15   A(5,8,11)             113.3692         calculate D2E/DX2 analytically  !
 ! A16   A(9,8,10)             105.9737         calculate D2E/DX2 analytically  !
 ! A17   A(9,8,11)             109.5036         calculate D2E/DX2 analytically  !
 ! A18   A(10,8,11)            109.5036         calculate D2E/DX2 analytically  !
 ! A19   A(8,11,12)            111.1697         calculate D2E/DX2 analytically  !
 ! A20   A(8,11,13)            111.5239         calculate D2E/DX2 analytically  !
 ! A21   A(8,11,14)            111.1697         calculate D2E/DX2 analytically  !
 ! A22   A(12,11,13)           107.6468         calculate D2E/DX2 analytically  !
 ! A23   A(12,11,14)           107.4912         calculate D2E/DX2 analytically  !
 ! A24   A(13,11,14)           107.6468         calculate D2E/DX2 analytically  !
 ! D1    D(2,1,5,6)             57.898          calculate D2E/DX2 analytically  !
 ! D2    D(2,1,5,7)            -57.898          calculate D2E/DX2 analytically  !
 ! D3    D(2,1,5,8)            180.0            calculate D2E/DX2 analytically  !
 ! D4    D(3,1,5,6)            -62.247          calculate D2E/DX2 analytically  !
 ! D5    D(3,1,5,7)           -178.043          calculate D2E/DX2 analytically  !
 ! D6    D(3,1,5,8)             59.855          calculate D2E/DX2 analytically  !
 ! D7    D(4,1,5,6)            178.043          calculate D2E/DX2 analytically  !
 ! D8    D(4,1,5,7)             62.247          calculate D2E/DX2 analytically  !
 ! D9    D(4,1,5,8)            -59.855          calculate D2E/DX2 analytically  !
 ! D10   D(1,5,8,9)            -57.6801         calculate D2E/DX2 analytically  !
 ! D11   D(1,5,8,10)            57.6801         calculate D2E/DX2 analytically  !
 ! D12   D(1,5,8,11)           180.0            calculate D2E/DX2 analytically  !
 ! D13   D(6,5,8,9)             64.6397         calculate D2E/DX2 analytically  !
 ! D14   D(6,5,8,10)           180.0            calculate D2E/DX2 analytically  !
 ! D15   D(6,5,8,11)           -57.6801         calculate D2E/DX2 analytically  !
 ! D16   D(7,5,8,9)           -180.0            calculate D2E/DX2 analytically  !
 ! D17   D(7,5,8,10)           -64.6397         calculate D2E/DX2 analytically  !
 ! D18   D(7,5,8,11)            57.6801         calculate D2E/DX2 analytically  !
 ! D19   D(5,8,11,12)           59.855          calculate D2E/DX2 analytically  !
 ! D20   D(5,8,11,13)          180.0            calculate D2E/DX2 analytically  !
 ! D21   D(5,8,11,14)          -59.855          calculate D2E/DX2 analytically  !
 ! D22   D(9,8,11,12)          -62.247          calculate D2E/DX2 analytically  !
 ! D23   D(9,8,11,13)           57.898          calculate D2E/DX2 analytically  !
 ! D24   D(9,8,11,14)          178.043          calculate D2E/DX2 analytically  !
 ! D25   D(10,8,11,12)        -178.043          calculate D2E/DX2 analytically  !
 ! D26   D(10,8,11,13)         -57.898          calculate D2E/DX2 analytically  !
 ! D27   D(10,8,11,14)          62.247          calculate D2E/DX2 analytically  !
 --------------------------------------------------------------------------------
 Trust Radius=3.00D-01 FncErr=1.00D-07 GrdErr=1.00D-07 EigMax=2.50D+02 EigMin=1.00D-04
 Number of steps in this run=      2 maximum allowed number of steps=      2.
 GradGradGradGradGradGradGradGradGradGradGradGradGradGradGradGradGradGrad

 Leave Link  103 at Fri Oct 21 15:33:03 2022, MaxMem=   134217728 cpu:               0.0 elap:               0.0
 (Enter /home/emanuele/chem_software/gaussian//gdv/l202.exe)
                          Input orientation:                          
 ---------------------------------------------------------------------
 Center     Atomic      Atomic             Coordinates (Angstroms)
 Number     Number       Type             X           Y           Z
 ---------------------------------------------------------------------
      1          6    20001001        1.956897   -0.120392    0.000000
      2          1    20001034        2.742005    0.637259    0.000000
      3          1    20001034        2.103753   -0.749379   -0.880760
      4          1    20001034        2.103753   -0.749379    0.880760
      5          6    20001001        0.566957    0.512915    0.000000
      6          1    20001034        0.461751    1.163403   -0.874026
      7          1    20001034        0.461751    1.163403    0.874026
      8          6    20001001       -0.566957   -0.512915    0.000000
      9          1    20001034       -0.461751   -1.163403   -0.874026
     10          1    20001034       -0.461751   -1.163403    0.874026
     11          6    20001001       -1.956897    0.120392    0.000000
     12          1    20001034       -2.103753    0.749379   -0.880760
     13          1    20001034       -2.742005   -0.637259    0.000000
     14          1    20001034       -2.103753    0.749379    0.880760
 ---------------------------------------------------------------------
                    Distance matrix (angstroms):
                    1          2          3          4          5
     1  C    0.000000
     2  H    1.091068   0.000000
     3  H    1.092213   1.762348   0.000000
     4  H    1.092213   1.762348   1.761520   0.000000
     5  C    1.527420   2.178599   2.175055   2.175055   0.000000
     6  H    2.155809   2.498061   2.520903   3.071511   1.094589
     7  H    2.155809   2.498061   3.071511   2.520903   1.094589
     8  C    2.554195   3.503160   2.822117   2.822117   1.529081
     9  H    2.775185   3.777613   2.598706   3.135682   2.152255
    10  H    2.775185   3.777613   3.135682   2.598706   2.152255
    11  C    3.921194   4.727244   4.245129   4.245129   2.554195
    12  H    4.245129   4.926427   4.466473   4.801285   2.822117
    13  H    4.727244   5.630165   4.926427   4.926427   3.503160
    14  H    4.245129   4.926427   4.801285   4.466473   2.822117
                    6          7          8          9         10
     6  H    0.000000
     7  H    1.748052   0.000000
     8  C    2.152255   2.152255   0.000000
     9  H    2.503374   3.053288   1.094589   0.000000
    10  H    3.053288   2.503374   1.094589   1.748052   0.000000
    11  C    2.775185   2.775185   1.527420   2.155809   2.155809
    12  H    2.598706   3.135682   2.175055   2.520903   3.071511
    13  H    3.777613   3.777613   2.178599   2.498061   2.498061
    14  H    3.135682   2.598706   2.175055   3.071511   2.520903
                   11         12         13         14
    11  C    0.000000
    12  H    1.092213   0.000000
    13  H    1.091068   1.762348   0.000000
    14  H    1.092213   1.761520   1.762348   0.000000
 Symmetry turned off by external request.
 Stoichiometry    C4H10
 Framework group  C2H[SGH(C4H2),X(H8)]
 Deg. of freedom    11
 Full point group                 C2H     NOp   4
 Rotational constants (GHZ):          23.6116490           3.6179190           3.3991535
 Leave Link  202 at Fri Oct 21 15:33:03 2022, MaxMem=   134217728 cpu:               0.0 elap:               0.0
 (Enter /home/emanuele/chem_software/gaussian//gdv/l301.exe)
 Standard basis: Dummy (5D, 7F)
    14 basis functions,    14 primitive gaussians,    14 cartesian basis functions
     9 alpha electrons        9 beta electrons
       nuclear repulsion energy        36.5440176861 Hartrees.
 IExCor=       0 DFT=F Ex=HF Corr=None N6=None ScaHFX=  1.000000
 ScaDFX=  1.000000  1.000000  1.000000  1.000000  1.000000  0.000000
 ScaDFX=  0.000000  0.000000  0.000000  0.000000  0.000000  0.000000
 IRadAn=      5 IRanWt=     -1 IRanGd=            0 ICorTp=0 IEmpDi=  4
 NAtoms=   14 NActive=   14 NUniq=   14 SFac= 1.00D+00 NAtFMM=   60 NAOKFM=F Big=F
 Integral buffers will be    131072 words long.
 Raffenetti 1 integral format.
 Two-electron integral symmetry is turned off.
 Leave Link  301 at Fri Oct 21 15:33:03 2022, MaxMem=   134217728 cpu:               0.0 elap:               0.0
 (Enter /home/emanuele/chem_software/gaussian//gdv/l402.exe)
 AMBER calculation of energy, first and second derivatives.
 ****************************
 MOLECULAR MECHANICS FUNCTION
 ****************************
 Molecular mechanics terms:
 NBDir 3 1      0      0
 HrmStr1  1- 2    1.00 1.0930
 HrmStr1  1- 3    1.00 1.0930
 HrmStr1  1- 4    1.00 1.0930
 HrmStr1  1- 5    1.00 1.5280
 HrmStr1  5- 6    1.00 1.0930
 HrmStr1  5- 7    1.00 1.0930
 HrmStr1  5- 8    1.00 1.5280
 HrmStr1  8- 9    1.00 1.0930
 HrmStr1  8-10    1.00 1.0930
 HrmStr1  8-11    1.00 1.5280
 HrmStr1 11-12    1.00 1.0930
 HrmStr1 11-13    1.00 1.0930
 HrmStr1 11-14    1.00 1.0930
 HrmBnd1  1- 5- 6   1.00 110.16
 HrmBnd1  1- 5- 7   1.00 110.16
 HrmBnd1  1- 5- 8   1.00 113.37
 HrmBnd1  2- 1- 3   1.00 110.16
 HrmBnd1  2- 1- 4   1.00 110.16
 HrmBnd1  5- 1- 2   1.00 110.16
 HrmBnd1  3- 1- 4   1.00 110.16
 HrmBnd1  5- 1- 3   1.00 110.16
 HrmBnd1  5- 1- 4   1.00 110.16
 HrmBnd1  5- 8- 9   1.00 110.16
 HrmBnd1  5- 8-10   1.00 110.16
 HrmBnd1  5- 8-11   1.00 113.37
 HrmBnd1  6- 5- 7   1.00 110.16
 HrmBnd1  8- 5- 6   1.00 110.16
 HrmBnd1  8- 5- 7   1.00 110.16
 HrmBnd1  8-11-12   1.00 110.16
 HrmBnd1  8-11-13   1.00 110.16
 HrmBnd1  8-11-14   1.00 110.16
 HrmBnd1  9- 8-10   1.00 110.16
 HrmBnd1 11- 8- 9   1.00 110.16
 HrmBnd1 11- 8-10   1.00 110.16
 HrmBnd1 12-11-13   1.00 110.16
 HrmBnd1 12-11-14   1.00 110.16
 HrmBnd1 13-11-14   1.00 110.16
 NBPair  2- 1 3 1      0      0 -1.000 -1.000
 NBPair  3- 2 3 1      0      0 -1.000 -1.000
 NBPair  4- 2 3 1      0      0 -1.000 -1.000
 NBPair  5- 2 3 1      0      0 -1.000 -1.000
 NBPair  3- 1 3 1      0      0 -1.000 -1.000
 NBPair  4- 3 3 1      0      0 -1.000 -1.000
 NBPair  5- 3 3 1      0      0 -1.000 -1.000
 NBPair  4- 1 3 1      0      0 -1.000 -1.000
 NBPair  5- 4 3 1      0      0 -1.000 -1.000
 NBPair  5- 1 3 1      0      0 -1.000 -1.000
 NBPair  6- 2 3 1      0      0 -0.500 -0.167
 NBPair  7- 2 3 1      0      0 -0.500 -0.167
 NBPair  8- 2 3 1      0      0 -0.500 -0.167
 NBPair  6- 3 3 1      0      0 -0.500 -0.167
 NBPair  7- 3 3 1      0      0 -0.500 -0.167
 NBPair  8- 3 3 1      0      0 -0.500 -0.167
 NBPair  6- 4 3 1      0      0 -0.500 -0.167
 NBPair  7- 4 3 1      0      0 -0.500 -0.167
 NBPair  8- 4 3 1      0      0 -0.500 -0.167
 NBPair  6- 1 3 1      0      0 -1.000 -1.000
 NBPair  7- 1 3 1      0      0 -1.000 -1.000
 NBPair  8- 1 3 1      0      0 -1.000 -1.000
 NBPair  6- 5 3 1      0      0 -1.000 -1.000
 NBPair  7- 6 3 1      0      0 -1.000 -1.000
 NBPair  8- 6 3 1      0      0 -1.000 -1.000
 NBPair  7- 5 3 1      0      0 -1.000 -1.000
 NBPair  8- 7 3 1      0      0 -1.000 -1.000
 NBPair  8- 5 3 1      0      0 -1.000 -1.000
 NBPair  9- 1 3 1      0      0 -0.500 -0.167
 NBPair 10- 1 3 1      0      0 -0.500 -0.167
 NBPair 11- 1 3 1      0      0 -0.500 -0.167
 NBPair  9- 6 3 1      0      0 -0.500 -0.167
 NBPair 10- 6 3 1      0      0 -0.500 -0.167
 NBPair 11- 6 3 1      0      0 -0.500 -0.167
 NBPair  9- 7 3 1      0      0 -0.500 -0.167
 NBPair 10- 7 3 1      0      0 -0.500 -0.167
 NBPair 11- 7 3 1      0      0 -0.500 -0.167
 NBPair  9- 5 3 1      0      0 -1.000 -1.000
 NBPair 10- 5 3 1      0      0 -1.000 -1.000
 NBPair 11- 5 3 1      0      0 -1.000 -1.000
 NBPair  9- 8 3 1      0      0 -1.000 -1.000
 NBPair 10- 9 3 1      0      0 -1.000 -1.000
 NBPair 11- 9 3 1      0      0 -1.000 -1.000
 NBPair 10- 8 3 1      0      0 -1.000 -1.000
 NBPair 11-10 3 1      0      0 -1.000 -1.000
 NBPair 11- 8 3 1      0      0 -1.000 -1.000
 NBPair 12- 5 3 1      0      0 -0.500 -0.167
 NBPair 13- 5 3 1      0      0 -0.500 -0.167
 NBPair 14- 5 3 1      0      0 -0.500 -0.167
 NBPair 12- 9 3 1      0      0 -0.500 -0.167
 NBPair 13- 9 3 1      0      0 -0.500 -0.167
 NBPair 14- 9 3 1      0      0 -0.500 -0.167
 NBPair 12-10 3 1      0      0 -0.500 -0.167
 NBPair 13-10 3 1      0      0 -0.500 -0.167
 NBPair 14-10 3 1      0      0 -0.500 -0.167
 NBPair 12- 8 3 1      0      0 -1.000 -1.000
 NBPair 13- 8 3 1      0      0 -1.000 -1.000
 NBPair 14- 8 3 1      0      0 -1.000 -1.000
 NBPair 12-11 3 1      0      0 -1.000 -1.000
 NBPair 13-12 3 1      0      0 -1.000 -1.000
 NBPair 14-12 3 1      0      0 -1.000 -1.000
 NBPair 13-11 3 1      0      0 -1.000 -1.000
 NBPair 14-13 3 1      0      0 -1.000 -1.000
 NBPair 14-11 3 1      0      0 -1.000 -1.000
 Energy per function type:
 Direct Coulomb + vdW (small)                           0.000000000
 Direct Coulomb (large)                                 0.000000000
 Direct vdW (large)                                     0.000000000
 Non-direct Coulomb + vdW (small)                       0.000000000
 Non-direct Coulomb (large)                             0.000000000
 Non-direct vdW (large)                                 0.000000000
 Harmonic stretch I                                     0.000000035
 Harmonic bend I                                        0.000042858
 Energy per function class:
        Coulomb               0.000000000
    Vanderwaals               0.000000000
     Stretching               0.000000035
        Bending               0.000042858
 Energy=    4.289273729E-05 NIter=   0.
 Dipole moment=       0.000000       0.000000       0.000000
 Leave Link  402 at Fri Oct 21 15:33:03 2022, MaxMem=   134217728 cpu:               0.0 elap:               0.0
 (Enter /home/emanuele/chem_software/gaussian//gdv/l716.exe)
 Dipole        = 0.00000000D+00 0.00000000D+00 0.00000000D+00
 Full mass-weighted force constant matrix:
 Low frequencies ---  -23.2474  -23.2467   -7.1564   -1.1536   -0.8761   -0.0000
 Low frequencies ---   -0.0000    0.0000    5.0273
 ******    3 imaginary frequencies (negative Signs) ****** 
 Diagonal vibrational polarizability:
        0.0000000       0.0000000       0.0000000
 Harmonic frequencies (cm**-1), IR intensities (KM/Mole), Raman scattering
 activities (A**4/AMU), depolarization ratios for plane and unpolarized
 incident light, reduced masses (AMU), force constants (mDyne/A),
 and normal coordinates:
                      1                      2                      3
                      A                      A                      A
 Frequencies --    -23.2474               -20.3187                -1.1536
 Red. masses --      1.0080                 1.1206                 2.0911
 Frc consts  --      0.0003                 0.0003                 0.0000
 IR Inten    --      0.0000                 0.0000                 0.0000
  Atom  AN      X      Y      Z        X      Y      Z        X      Y      Z
     1   6    -0.00   0.00  -0.00     0.00   0.00  -0.00     0.00  -0.00  -0.15
     2   1    -0.00   0.00   0.41    -0.00   0.00   0.39     0.00  -0.00  -0.24
     3   1     0.14   0.32  -0.21     0.17   0.28  -0.17    -0.17   0.07  -0.22
     4   1    -0.14  -0.32  -0.21    -0.17  -0.28  -0.17     0.17  -0.07  -0.22
     5   6     0.00  -0.00   0.00    -0.00  -0.00  -0.07    -0.00   0.00   0.16
     6   1    -0.00   0.00   0.00    -0.01  -0.12  -0.15    -0.14   0.15   0.28
     7   1     0.00  -0.00   0.00     0.01   0.12  -0.15     0.14  -0.15   0.28
     8   6    -0.00  -0.00   0.00    -0.00  -0.00   0.07    -0.00  -0.00   0.16
     9   1     0.00  -0.00   0.00    -0.01  -0.12   0.15     0.14  -0.15   0.28
    10   1    -0.00   0.00   0.00     0.01   0.12   0.15    -0.14   0.15   0.28
    11   6     0.00   0.00  -0.00     0.00   0.00   0.00     0.00  -0.00  -0.15
    12   1    -0.14  -0.32  -0.21     0.17   0.28   0.17     0.17  -0.07  -0.22
    13   1     0.00  -0.00   0.41    -0.00   0.00  -0.39     0.00  -0.00  -0.24
    14   1     0.14   0.32  -0.21    -0.17  -0.28   0.17    -0.17   0.07  -0.22
                      4                      5                      6
                      A                      A                      A
 Frequencies --     31.8578                37.4941                56.6070
 Red. masses --      3.6094                 2.4440                 3.7960
 Frc consts  --      0.0022                 0.0020                 0.0072
 IR Inten    --      0.0000                 0.0000                 0.0000
  Atom  AN      X      Y      Z        X      Y      Z        X      Y      Z
     1   6     0.32  -0.00  -0.00    -0.08  -0.15   0.00    -0.21   0.11  -0.00
     2   1     0.30   0.03   0.00     0.12  -0.34   0.00    -0.26   0.13  -0.00
     3   1     0.35   0.00  -0.00    -0.24  -0.18   0.00    -0.22   0.13   0.01
     4   1     0.35   0.00   0.00    -0.24  -0.18  -0.00    -0.22   0.13  -0.01
     5   6     0.13   0.03   0.00     0.08   0.18  -0.00     0.23  -0.12   0.00
     6   1     0.14   0.04   0.01     0.16   0.17  -0.02     0.25  -0.13   0.01
     7   1     0.14   0.04  -0.01     0.16   0.17   0.02     0.25  -0.13  -0.01
     8   6    -0.13  -0.03   0.00     0.08   0.18   0.00     0.23  -0.12   0.00
     9   1    -0.14  -0.04   0.01     0.16   0.17   0.02     0.25  -0.13  -0.01
    10   1    -0.14  -0.04  -0.01     0.16   0.17  -0.02     0.25  -0.13   0.01
    11   6    -0.32   0.00  -0.00    -0.08  -0.15   0.00    -0.21   0.11  -0.00
    12   1    -0.35  -0.00  -0.00    -0.24  -0.18  -0.00    -0.22   0.13  -0.01
    13   1    -0.30  -0.03   0.00     0.12  -0.34  -0.00    -0.26   0.13  -0.00
    14   1    -0.35  -0.00   0.00    -0.24  -0.18   0.00    -0.22   0.13   0.01
                      7                      8                      9
                      A                      A                      A
 Frequencies --     60.9848                84.6990               100.2746
 Red. masses --      3.0736                 2.7070                 1.0956
 Frc consts  --      0.0067                 0.0114                 0.0065
 IR Inten    --      0.0000                 0.0000                 0.0000
  Atom  AN      X      Y      Z        X      Y      Z        X      Y      Z
     1   6    -0.10   0.07   0.00     0.03  -0.06   0.00    -0.00  -0.00   0.01
     2   1     0.01  -0.03   0.00     0.25  -0.27   0.00    -0.00  -0.00   0.08
     3   1    -0.21   0.06   0.01    -0.14  -0.12   0.01     0.10  -0.06   0.07
     4   1    -0.21   0.06  -0.01    -0.14  -0.12  -0.01    -0.10   0.06   0.07
     5   6     0.25   0.12  -0.00    -0.09   0.25  -0.00    -0.00  -0.00  -0.06
     6   1     0.36   0.15  -0.01    -0.19   0.26  -0.07    -0.03   0.44   0.17
     7   1     0.36   0.15   0.01    -0.19   0.26   0.07     0.03  -0.44   0.17
     8   6    -0.25  -0.12  -0.00     0.09  -0.25  -0.00     0.00   0.00  -0.06
     9   1    -0.36  -0.15  -0.01     0.19  -0.26  -0.07     0.03  -0.44   0.17
    10   1    -0.36  -0.15   0.01     0.19  -0.26   0.07    -0.03   0.44   0.17
    11   6     0.10  -0.07   0.00    -0.03   0.06   0.00    -0.00  -0.00   0.01
    12   1     0.21  -0.06   0.01     0.14   0.12   0.01    -0.10   0.06   0.07
    13   1    -0.01   0.03  -0.00    -0.25   0.27   0.00    -0.00  -0.00   0.08
    14   1     0.21  -0.06  -0.01     0.14   0.12  -0.01     0.10  -0.06   0.07
                     10                     11                     12
                      A                      A                      A
 Frequencies --    116.9476               138.2303               138.5765
 Red. masses --      1.1790                 1.0653                 1.0661
 Frc consts  --      0.0095                 0.0120                 0.0121
 IR Inten    --      0.0000                 0.0000                 0.0000
  Atom  AN      X      Y      Z        X      Y      Z        X      Y      Z
     1   6     0.00   0.00  -0.01    -0.00  -0.00  -0.04     0.02   0.04  -0.00
     2   1    -0.00   0.00   0.13    -0.00   0.00   0.18     0.53  -0.04   0.00
     3   1     0.21  -0.13   0.07     0.32  -0.31  -0.09    -0.26   0.02   0.16
     4   1    -0.21   0.13   0.07    -0.32   0.31  -0.09    -0.26   0.02  -0.16
     5   6     0.00   0.00  -0.09     0.00   0.00   0.03    -0.01  -0.03   0.00
     6   1    -0.13   0.39   0.04    -0.05  -0.12   0.08    -0.05  -0.08   0.05
     7   1     0.13  -0.39   0.04     0.05   0.12   0.08    -0.05  -0.08  -0.05
     8   6    -0.00   0.00   0.09    -0.00  -0.00   0.03    -0.01  -0.03   0.00
     9   1    -0.13   0.39  -0.04     0.05   0.12   0.08    -0.05  -0.08  -0.05
    10   1     0.13  -0.39  -0.04    -0.05  -0.12   0.08    -0.05  -0.08   0.05
    11   6     0.00  -0.00   0.01     0.00  -0.00  -0.04     0.02   0.04  -0.00
    12   1     0.21  -0.13  -0.07    -0.32   0.31  -0.09    -0.26   0.02  -0.16
    13   1     0.00   0.00  -0.13    -0.00   0.00   0.18     0.53  -0.04   0.00
    14   1    -0.21   0.13  -0.07     0.32  -0.31  -0.09    -0.26   0.02   0.16
                     13                     14                     15
                      A                      A                      A
 Frequencies --    139.7239               140.2964               155.1682
 Red. masses --      1.0795                 1.0725                 1.0291
 Frc consts  --      0.0124                 0.0124                 0.0146
 IR Inten    --      0.0000                 0.0000                 0.0000
  Atom  AN      X      Y      Z        X      Y      Z        X      Y      Z
     1   6     0.02   0.04  -0.00    -0.00  -0.00   0.04     0.03  -0.01   0.00
     2   1     0.52  -0.01   0.00    -0.00  -0.00  -0.15    -0.26  -0.30   0.00
     3   1    -0.25   0.03   0.16    -0.27   0.30   0.11    -0.02   0.23   0.34
     4   1    -0.25   0.03  -0.16     0.27  -0.30   0.11    -0.02   0.23  -0.34
     5   6    -0.01  -0.04   0.00     0.00   0.00  -0.04    -0.00  -0.00   0.00
     6   1    -0.02  -0.12   0.09    -0.04   0.20  -0.14    -0.01   0.02  -0.02
     7   1    -0.02  -0.12  -0.09     0.04  -0.20  -0.14    -0.01   0.02   0.02
     8   6     0.01   0.04   0.00    -0.00  -0.00   0.04    -0.00  -0.00   0.00
     9   1     0.02   0.12   0.09    -0.04   0.20   0.14    -0.01   0.02   0.02
    10   1     0.02   0.12  -0.09     0.04  -0.20   0.14    -0.01   0.02  -0.02
    11   6    -0.02  -0.04  -0.00     0.00  -0.00  -0.04     0.03  -0.01   0.00
    12   1     0.25  -0.03   0.16    -0.27   0.30  -0.11    -0.02   0.23  -0.34
    13   1    -0.52   0.01   0.00     0.00  -0.00   0.15    -0.26  -0.30   0.00
    14   1     0.25  -0.03  -0.16     0.27  -0.30  -0.11    -0.02   0.23   0.34
                     16                     17                     18
                      A                      A                      A
 Frequencies --    155.1695               157.3757               158.7185
 Red. masses --      1.0292                 1.0570                 1.0877
 Frc consts  --      0.0146                 0.0154                 0.0161
 IR Inten    --      0.0000                 0.0000                 0.0000
  Atom  AN      X      Y      Z        X      Y      Z        X      Y      Z
     1   6     0.03  -0.01  -0.00     0.01   0.00  -0.00     0.01   0.01  -0.00
     2   1    -0.26  -0.30   0.00    -0.09  -0.09   0.00    -0.14  -0.16  -0.00
     3   1    -0.02   0.23   0.34     0.02  -0.01  -0.03     0.02  -0.04  -0.08
     4   1    -0.02   0.23  -0.34     0.02  -0.01   0.03     0.02  -0.04   0.08
     5   6    -0.00  -0.00   0.00    -0.01   0.05   0.00    -0.00   0.06  -0.00
     6   1    -0.01   0.01  -0.01     0.06  -0.25   0.42     0.01  -0.24   0.40
     7   1    -0.01   0.01   0.01     0.06  -0.25  -0.42     0.01  -0.24  -0.40
     8   6     0.00   0.00  -0.00    -0.01   0.05   0.00     0.00  -0.06  -0.00
     9   1     0.01  -0.01  -0.01     0.06  -0.25  -0.42    -0.01   0.24   0.40
    10   1     0.01  -0.01   0.01     0.06  -0.25   0.42    -0.01   0.24  -0.40
    11   6    -0.03   0.01  -0.00     0.01   0.00   0.00    -0.01  -0.01  -0.00
    12   1     0.02  -0.23   0.34     0.02  -0.01   0.03    -0.02   0.04  -0.08
    13   1     0.26   0.30   0.00    -0.09  -0.09   0.00     0.14   0.16  -0.00
    14   1     0.02  -0.23  -0.34     0.02  -0.01  -0.03    -0.02   0.04   0.08
                     19                     20                     21
                      A                      A                      A
 Frequencies --    161.9336               161.9418               165.7999
 Red. masses --      1.0777                 1.1019                 1.0889
 Frc consts  --      0.0167                 0.0170                 0.0176
 IR Inten    --      0.0000                 0.0000                 0.0000
  Atom  AN      X      Y      Z        X      Y      Z        X      Y      Z
     1   6     0.00   0.00  -0.04     0.00  -0.00  -0.02     0.00   0.00  -0.06
     2   1    -0.00  -0.00   0.01    -0.00   0.00  -0.03    -0.00  -0.00   0.04
     3   1     0.04   0.15   0.28    -0.00   0.09   0.11     0.10   0.14   0.34
     4   1    -0.04  -0.15   0.28     0.00  -0.09   0.11    -0.10  -0.14   0.34
     5   6     0.00  -0.00  -0.04    -0.00   0.00  -0.06     0.00  -0.00   0.00
     6   1    -0.20  -0.17   0.27     0.18  -0.19   0.39    -0.31  -0.06  -0.02
     7   1     0.20   0.17   0.27    -0.18   0.19   0.39     0.31   0.06  -0.02
     8   6     0.00  -0.00   0.04    -0.00   0.00  -0.06     0.00  -0.00   0.00
     9   1    -0.20  -0.17  -0.27    -0.18   0.19   0.39     0.31   0.06  -0.02
    10   1     0.20   0.17  -0.27     0.18  -0.19   0.39    -0.31  -0.06  -0.02
    11   6    -0.00   0.00   0.04     0.00   0.00  -0.02     0.00   0.00  -0.06
    12   1     0.04   0.15  -0.28     0.00  -0.09   0.11    -0.10  -0.14   0.34
    13   1     0.00   0.00  -0.01     0.00  -0.00  -0.03    -0.00  -0.00   0.04
    14   1    -0.04  -0.15  -0.28    -0.00   0.09   0.11     0.10   0.14   0.34
                     22                     23                     24
                      A                      A                      A
 Frequencies --    170.1250               172.5448               177.5787
 Red. masses --      1.2322                 1.3299                 1.1433
 Frc consts  --      0.0210                 0.0233                 0.0212
 IR Inten    --      0.0000                 0.0000                 0.0000
  Atom  AN      X      Y      Z        X      Y      Z        X      Y      Z
     1   6    -0.04  -0.09  -0.00    -0.04  -0.10  -0.00     0.00   0.00  -0.08
     2   1     0.14   0.53   0.00     0.10   0.52  -0.00    -0.00  -0.00  -0.01
     3   1     0.12   0.13   0.21     0.13   0.12   0.21     0.12   0.09   0.22
     4   1     0.12   0.13  -0.21     0.13   0.12  -0.21    -0.12  -0.09   0.22
     5   6    -0.01   0.02  -0.00    -0.01   0.05  -0.00    -0.00  -0.00   0.00
     6   1     0.13   0.00   0.06     0.07  -0.01   0.14     0.41   0.06  -0.02
     7   1     0.13   0.00  -0.06     0.07  -0.01  -0.14    -0.41  -0.06  -0.02
     8   6    -0.01   0.02   0.00     0.01  -0.05   0.00    -0.00   0.00  -0.00
     9   1     0.13   0.00  -0.06    -0.07   0.01   0.14     0.41   0.06   0.02
    10   1     0.13   0.00   0.06    -0.07   0.01  -0.14    -0.41  -0.06   0.02
    11   6    -0.04  -0.09  -0.00     0.04   0.10   0.00    -0.00  -0.00   0.08
    12   1     0.12   0.13  -0.21    -0.13  -0.12   0.21     0.12   0.09  -0.22
    13   1     0.14   0.53   0.00    -0.10  -0.52   0.00     0.00   0.00   0.01
    14   1     0.12   0.13   0.21    -0.13  -0.12  -0.21    -0.12  -0.09  -0.22
                     25                     26                     27
                      A                      A                      A
 Frequencies --    180.7012               183.9113               202.0165
 Red. masses --      1.5445                 1.2714                 1.2648
 Frc consts  --      0.0297                 0.0253                 0.0304
 IR Inten    --      0.0000                 0.0000                 0.0000
  Atom  AN      X      Y      Z        X      Y      Z        X      Y      Z
     1   6    -0.00  -0.00  -0.06     0.00   0.00  -0.08     0.02   0.03   0.00
     2   1     0.00   0.00   0.08    -0.00   0.00   0.01     0.03  -0.12   0.00
     3   1     0.13   0.02   0.20     0.14   0.05   0.20    -0.03  -0.00  -0.03
     4   1    -0.13  -0.02   0.20    -0.14  -0.05   0.20    -0.03  -0.00   0.03
     5   6    -0.00   0.00   0.14    -0.00  -0.00   0.07    -0.10  -0.03  -0.00
     6   1    -0.25   0.02  -0.34     0.38   0.10  -0.15     0.48   0.06  -0.04
     7   1     0.25  -0.02  -0.34    -0.38  -0.10  -0.15     0.48   0.06   0.04
     8   6     0.00  -0.00  -0.14     0.00   0.00   0.07    -0.10  -0.03  -0.00
     9   1    -0.25   0.02   0.34    -0.38  -0.10  -0.15     0.48   0.06   0.04
    10   1     0.25  -0.02   0.34     0.38   0.10  -0.15     0.48   0.06  -0.04
    11   6    -0.00   0.00   0.06     0.00   0.00  -0.08     0.02   0.03   0.00
    12   1     0.13   0.02  -0.20    -0.14  -0.05   0.20    -0.03  -0.00   0.03
    13   1     0.00  -0.00  -0.08     0.00  -0.00   0.01     0.03  -0.12   0.00
    14   1    -0.13  -0.02  -0.20     0.14   0.05   0.20    -0.03  -0.00  -0.03
                     28                     29                     30
                      A                      A                      A
 Frequencies --    210.2654               226.6302               227.8468
 Red. masses --      1.3673                 1.0979                 1.0898
 Frc consts  --      0.0356                 0.0332                 0.0333
 IR Inten    --      0.0000                 0.0000                 0.0000
  Atom  AN      X      Y      Z        X      Y      Z        X      Y      Z
     1   6     0.01   0.03   0.00     0.01   0.01  -0.00     0.01   0.02  -0.00
     2   1     0.04  -0.09   0.00    -0.07   0.06   0.00    -0.09   0.08   0.00
     3   1    -0.01  -0.00  -0.02    -0.04  -0.13   0.08    -0.05  -0.19   0.12
     4   1    -0.01  -0.00   0.02    -0.04  -0.13  -0.08    -0.05  -0.19  -0.12
     5   6    -0.12  -0.01  -0.00     0.01  -0.06   0.00     0.01  -0.06  -0.00
     6   1     0.47   0.11   0.03    -0.09   0.37   0.27    -0.04   0.35   0.25
     7   1     0.47   0.11  -0.03    -0.09   0.37  -0.27    -0.04   0.35  -0.25
     8   6     0.12   0.01  -0.00    -0.01   0.06   0.00     0.01  -0.06  -0.00
     9   1    -0.47  -0.11   0.03     0.09  -0.37   0.27    -0.04   0.35  -0.25
    10   1    -0.47  -0.11  -0.03     0.09  -0.37  -0.27    -0.04   0.35   0.25
    11   6    -0.01  -0.03   0.00    -0.01  -0.01   0.00     0.01   0.02  -0.00
    12   1     0.01   0.00  -0.02     0.04   0.13   0.08    -0.05  -0.19  -0.12
    13   1    -0.04   0.09  -0.00     0.07  -0.06  -0.00    -0.09   0.08   0.00
    14   1     0.01   0.00   0.02     0.04   0.13  -0.08    -0.05  -0.19   0.12
                     31                     32                     33
                      A                      A                      A
 Frequencies --    230.6781               230.6823               230.7425
 Red. masses --      1.1330                 1.0670                 1.0690
 Frc consts  --      0.0355                 0.0335                 0.0335
 IR Inten    --      0.0000                 0.0000                 0.0000
  Atom  AN      X      Y      Z        X      Y      Z        X      Y      Z
     1   6     0.04  -0.06  -0.00    -0.00   0.00  -0.05     0.00  -0.00  -0.05
     2   1    -0.04   0.06   0.00     0.00  -0.00   0.52    -0.00   0.00   0.52
     3   1    -0.21   0.35  -0.27    -0.30  -0.14   0.08    -0.30  -0.14   0.08
     4   1    -0.21   0.35   0.27     0.30   0.14   0.08     0.30   0.14   0.08
     5   6    -0.00  -0.02  -0.00     0.00   0.00  -0.01    -0.00  -0.00  -0.01
     6   1    -0.02   0.08   0.06     0.02  -0.00  -0.00     0.03   0.00   0.00
     7   1    -0.02   0.08  -0.06    -0.02   0.00  -0.00    -0.03  -0.00   0.00
     8   6     0.00   0.02  -0.00    -0.00  -0.00  -0.01    -0.00  -0.00   0.01
     9   1     0.02  -0.08   0.06    -0.02   0.00  -0.00     0.03   0.00  -0.00
    10   1     0.02  -0.08  -0.06     0.02  -0.00  -0.00    -0.03  -0.00  -0.00
    11   6    -0.04   0.06  -0.00     0.00  -0.00  -0.05     0.00  -0.00   0.05
    12   1     0.21  -0.35  -0.27     0.30   0.14   0.08    -0.30  -0.14  -0.08
    13   1     0.04  -0.06   0.00    -0.00   0.00   0.52    -0.00   0.00  -0.52
    14   1     0.21  -0.35   0.27    -0.30  -0.14   0.08     0.30   0.14  -0.08
                     34                     35                     36
                      A                      A                      A
 Frequencies --    230.8032               231.4976               231.7095
 Red. masses --      1.1683                 1.1591                 1.1299
 Frc consts  --      0.0367                 0.0366                 0.0357
 IR Inten    --      0.0000                 0.0000                 0.0000
  Atom  AN      X      Y      Z        X      Y      Z        X      Y      Z
     1   6     0.06  -0.06   0.00    -0.08  -0.00   0.00    -0.07  -0.01   0.00
     2   1    -0.12   0.14  -0.00     0.33  -0.31  -0.00     0.30  -0.28   0.00
     3   1    -0.28   0.29  -0.24     0.30   0.18  -0.07     0.24   0.23  -0.12
     4   1    -0.28   0.29   0.24     0.30   0.18   0.07     0.24   0.23   0.12
     5   6    -0.00  -0.02   0.00     0.01  -0.02  -0.00     0.01  -0.03   0.00
     6   1    -0.01   0.10   0.07    -0.04   0.10   0.07    -0.04   0.16   0.12
     7   1    -0.01   0.10  -0.07    -0.04   0.10  -0.07    -0.04   0.16  -0.12
     8   6    -0.00  -0.02  -0.00    -0.01   0.02  -0.00     0.01  -0.03   0.00
     9   1    -0.01   0.10  -0.07     0.04  -0.10   0.07    -0.04   0.16  -0.12
    10   1    -0.01   0.10   0.07     0.04  -0.10  -0.07    -0.04   0.16   0.12
    11   6     0.06  -0.06  -0.00     0.08   0.00  -0.00    -0.07  -0.01   0.00
    12   1    -0.28   0.29   0.24    -0.30  -0.18  -0.07     0.24   0.23   0.12
    13   1    -0.12   0.14   0.00    -0.33   0.31   0.00     0.30  -0.28  -0.00
    14   1    -0.28   0.29  -0.24    -0.30  -0.18   0.07     0.24   0.23  -0.12

 -------------------
 - Thermochemistry -
 -------------------
 Temperature   298.150 Kelvin.  Pressure      1.00000 Atm.
 Atom     1 has atomic number  6 and mass  12.00000
 Atom     2 has atomic number  1 and mass   1.00783
 Atom     3 has atomic number  1 and mass   1.00783
 Atom     4 has atomic number  1 and mass   1.00783
 Atom     5 has atomic number  6 and mass  12.00000
 Atom     6 has atomic number  1 and mass   1.00783
 Atom     7 has atomic number  1 and mass   1.00783
 Atom     8 has atomic number  6 and mass  12.00000
 Atom     9 has atomic number  1 and mass   1.00783
 Atom    10 has atomic number  1 and mass   1.00783
 Atom    11 has atomic number  6 and mass  12.00000
 Atom    12 has atomic number  1 and mass   1.00783
 Atom    13 has atomic number  1 and mass   1.00783
 Atom    14 has atomic number  1 and mass   1.00783
 Molecular mass:    58.07825 amu.
 Principal axes and moments of inertia in atomic units:
                                 1                 2                 3
     Eigenvalues --           76.434357        498.834054        530.938426
           X                   0.999985         -0.005557          0.000000
           Y                   0.005557          0.999985          0.000000
           Z                   0.000000         -0.000000          1.000000
 This molecule is an asymmetric top.
 Rotational symmetry number  2.
 Rotational temperatures (Kelvin)      1.13318     0.17363     0.16313
 Rotational constants (GHZ):          23.61165     3.61792     3.39915
    3 imaginary frequencies ignored.
 Zero-point vibrational energy      31698.2 (Joules/Mol)
                                    7.57606 (Kcal/Mol)
 Warning -- explicit consideration of  33 degrees of freedom as
           vibrations may cause significant error
 Vibrational temperatures:     45.84    53.95    81.44    87.74   121.86
          (Kelvin)            144.27   168.26   198.88   199.38   201.03
                              201.86   223.25   223.25   226.43   228.36
                              232.99   233.00   238.55   244.77   248.25
                              255.50   259.99   264.61   290.66   302.53
                              326.07   327.82   331.89   331.90   331.99
                              332.07   333.07   333.38
 
 Zero-point correction=                           0.012073 (Hartree/Particle)
 Thermal correction to Energy=                    0.035726
 Thermal correction to Enthalpy=                  0.036670
 Thermal correction to Gibbs Free Energy=        -0.035483
 Sum of electronic and zero-point Energies=              0.012116
 Sum of electronic and thermal Energies=                 0.035769
 Sum of electronic and thermal Enthalpies=               0.036713
 Sum of electronic and thermal Free Energies=           -0.035440
 
                     E (Thermal)             CV                S
                      KCal/Mol        Cal/Mol-Kelvin    Cal/Mol-Kelvin
 Total                   22.418             67.994            151.858
 Electronic               0.000              0.000              0.000
 Translational            0.889              2.981             38.098
 Rotational               0.889              2.981             23.141
 Vibrational             20.641             62.033             90.619
 Vibration     1          0.594              1.983              5.710
 Vibration     2          0.594              1.982              5.387
 Vibration     3          0.596              1.975              4.572
 Vibration     4          0.597              1.973              4.425
 Vibration     5          0.601              1.960              3.779
 Vibration     6          0.604              1.949              3.449
 Vibration     7          0.608              1.935              3.150
 Vibration     8          0.614              1.915              2.828
 Vibration     9          0.614              1.915              2.823
 Vibration    10          0.615              1.914              2.808
 Vibration    11          0.615              1.913              2.800
 Vibration    12          0.620              1.897              2.608
 Vibration    13          0.620              1.897              2.608
 Vibration    14          0.621              1.894              2.581
 Vibration    15          0.621              1.893              2.565
 Vibration    16          0.622              1.889              2.527
 Vibration    17          0.622              1.889              2.527
 Vibration    18          0.624              1.885              2.483
 Vibration    19          0.625              1.879              2.434
 Vibration    20          0.626              1.876              2.408
 Vibration    21          0.628              1.870              2.354
 Vibration    22          0.630              1.866              2.321
 Vibration    23          0.631              1.862              2.288
 Vibration    24          0.639              1.837              2.115
 Vibration    25          0.642              1.825              2.041
 Vibration    26          0.650              1.800              1.905
 Vibration    27          0.651              1.799              1.896
 Vibration    28          0.652              1.794              1.874
 Vibration    29          0.652              1.794              1.874
 Vibration    30          0.652              1.794              1.873
 Vibration    31          0.653              1.794              1.873
 Vibration    32          0.653              1.793              1.867
 Vibration    33          0.653              1.792              1.866
                       Q            Log10(Q)             Ln(Q)
 Total Bot       0.209410D+17         16.320998         37.580486
 Total V=0       0.748669D+22         21.874290         50.367414
 Vib (Bot)       0.472676D+05          4.674563         10.763580
 Vib (Bot)    1  0.649827D+01          0.812798          1.871536
 Vib (Bot)    2  0.551933D+01          0.741886          1.708256
 Vib (Bot)    3  0.364940D+01          0.562222          1.294563
 Vib (Bot)    4  0.338574D+01          0.529653          1.219572
 Vib (Bot)    5  0.242965D+01          0.385544          0.887748
 Vib (Bot)    6  0.204655D+01          0.311021          0.716153
 Vib (Bot)    7  0.174865D+01          0.242702          0.558842
 Vib (Bot)    8  0.147169D+01          0.167816          0.386410
 Vib (Bot)    9  0.146788D+01          0.166689          0.383817
 Vib (Bot)   10  0.145537D+01          0.162975          0.375263
 Vib (Bot)   11  0.144921D+01          0.161132          0.371020
 Vib (Bot)   12  0.130479D+01          0.115540          0.266040
 Vib (Bot)   13  0.130478D+01          0.115536          0.266031
 Vib (Bot)   14  0.128563D+01          0.109117          0.251250
 Vib (Bot)   15  0.127424D+01          0.105250          0.242346
 Vib (Bot)   16  0.124770D+01          0.096110          0.221301
 Vib (Bot)   17  0.124763D+01          0.096087          0.221248
 Vib (Bot)   18  0.121712D+01          0.085334          0.196489
 Vib (Bot)   19  0.118453D+01          0.073545          0.169343
 Vib (Bot)   20  0.116699D+01          0.067065          0.154424
 Vib (Bot)   21  0.113199D+01          0.053843          0.123977
 Vib (Bot)   22  0.111124D+01          0.045807          0.105474
 Vib (Bot)   23  0.109062D+01          0.037672          0.086744
 Vib (Bot)   24  0.986260D+00         -0.006009         -0.013836
 Vib (Bot)   25  0.944496D+00         -0.024800         -0.057104
 Vib (Bot)   26  0.870346D+00         -0.060308         -0.138865
 Vib (Bot)   27  0.865243D+00         -0.062862         -0.144745
 Vib (Bot)   28  0.853569D+00         -0.068761         -0.158329
 Vib (Bot)   29  0.853552D+00         -0.068770         -0.158349
 Vib (Bot)   30  0.853307D+00         -0.068895         -0.158636
 Vib (Bot)   31  0.853059D+00         -0.069021         -0.158926
 Vib (Bot)   32  0.850241D+00         -0.070458         -0.162235
 Vib (Bot)   33  0.849384D+00         -0.070896         -0.163243
 Vib (V=0)       0.168988D+11         10.227856         23.550508
 Vib (V=0)    1  0.701748D+01          0.846181          1.948404
 Vib (V=0)    2  0.604193D+01          0.781176          1.798723
 Vib (V=0)    3  0.418349D+01          0.621539          1.431147
 Vib (V=0)    4  0.392246D+01          0.593558          1.366719
 Vib (V=0)    5  0.298057D+01          0.474299          1.092113
 Vib (V=0)    6  0.260674D+01          0.416098          0.958100
 Vib (V=0)    7  0.231873D+01          0.365250          0.841018
 Vib (V=0)    8  0.205431D+01          0.312665          0.719938
 Vib (V=0)    9  0.205070D+01          0.311901          0.718180
 Vib (V=0)   10  0.203887D+01          0.309389          0.712395
 Vib (V=0)   11  0.203304D+01          0.308146          0.709533
 Vib (V=0)   12  0.189731D+01          0.278138          0.640436
 Vib (V=0)   13  0.189730D+01          0.278135          0.640430
 Vib (V=0)   14  0.187944D+01          0.274028          0.630973
 Vib (V=0)   15  0.186882D+01          0.271568          0.625309
 Vib (V=0)   16  0.184416D+01          0.265797          0.612021
 Vib (V=0)   17  0.184409D+01          0.265783          0.611988
 Vib (V=0)   18  0.181582D+01          0.259073          0.596538
 Vib (V=0)   19  0.178573D+01          0.251816          0.579827
 Vib (V=0)   20  0.176959D+01          0.247872          0.570747
 Vib (V=0)   21  0.173750D+01          0.239924          0.552446
 Vib (V=0)   22  0.171854D+01          0.235160          0.541477
 Vib (V=0)   23  0.169977D+01          0.230390          0.530492
 Vib (V=0)   24  0.160576D+01          0.205681          0.473598
 Vib (V=0)   25  0.156868D+01          0.195534          0.450233
 Vib (V=0)   26  0.150374D+01          0.177174          0.407958
 Vib (V=0)   27  0.149932D+01          0.175895          0.405013
 Vib (V=0)   28  0.148923D+01          0.172962          0.398261
 Vib (V=0)   29  0.148922D+01          0.172958          0.398251
 Vib (V=0)   30  0.148901D+01          0.172896          0.398109
 Vib (V=0)   31  0.148879D+01          0.172834          0.397965
 Vib (V=0)   32  0.148636D+01          0.172125          0.396332
 Vib (V=0)   33  0.148562D+01          0.171909          0.395835
 Electronic      0.100000D+01          0.000000          0.000000
 Translational   0.173970D+08          7.240474         16.671808
 Rotational      0.254660D+05          4.405960         10.145098
                           ----------------------------
                           ! Normal Mode     1        !
 --------------------------                            --------------------------
 ! Name  Definition              Value          Relative Weight (%)             !
 --------------------------------------------------------------------------------
 ! D1    D(2,1,5,6)              0.2123                  5.5                    !
 ! D2    D(2,1,5,7)              0.2123                  5.5                    !
 ! D3    D(2,1,5,8)              0.2122                  5.5                    !
 ! D4    D(3,1,5,6)              0.2116                  5.5                    !
 ! D5    D(3,1,5,7)              0.2116                  5.5                    !
 ! D6    D(3,1,5,8)              0.2115                  5.5                    !
 ! D7    D(4,1,5,6)              0.2116                  5.5                    !
 ! D8    D(4,1,5,7)              0.2116                  5.5                    !
 ! D9    D(4,1,5,8)              0.2115                  5.5                    !
 ! D19   D(5,8,11,12)            0.2115                  5.5                    !
 ! D20   D(5,8,11,13)            0.2122                  5.5                    !
 ! D21   D(5,8,11,14)            0.2115                  5.5                    !
 ! D22   D(9,8,11,12)            0.2116                  5.5                    !
 ! D23   D(9,8,11,13)            0.2123                  5.5                    !
 ! D24   D(9,8,11,14)            0.2116                  5.5                    !
 ! D25   D(10,8,11,12)           0.2116                  5.5                    !
 ! D26   D(10,8,11,13)           0.2123                  5.5                    !
 ! D27   D(10,8,11,14)           0.2116                  5.5                    !
 --------------------------------------------------------------------------------
                           ----------------------------
                           ! Normal Mode     2        !
 --------------------------                            --------------------------
 ! Name  Definition              Value          Relative Weight (%)             !
 --------------------------------------------------------------------------------
 ! D1    D(2,1,5,6)              0.2582                  5.5                    !
 ! D2    D(2,1,5,7)              0.2582                  5.5                    !
 ! D3    D(2,1,5,8)              0.2581                  5.5                    !
 ! D4    D(3,1,5,6)              0.259                   5.5                    !
 ! D5    D(3,1,5,7)              0.259                   5.5                    !
 ! D6    D(3,1,5,8)              0.259                   5.5                    !
 ! D7    D(4,1,5,6)              0.259                   5.5                    !
 ! D8    D(4,1,5,7)              0.259                   5.5                    !
 ! D9    D(4,1,5,8)              0.259                   5.5                    !
 ! D19   D(5,8,11,12)           -0.259                   5.5                    !
 ! D20   D(5,8,11,13)           -0.2581                  5.5                    !
 ! D21   D(5,8,11,14)           -0.259                   5.5                    !
 ! D22   D(9,8,11,12)           -0.259                   5.5                    !
 ! D23   D(9,8,11,13)           -0.2582                  5.5                    !
 ! D24   D(9,8,11,14)           -0.259                   5.5                    !
 ! D25   D(10,8,11,12)          -0.259                   5.5                    !
 ! D26   D(10,8,11,13)          -0.2582                  5.5                    !
 ! D27   D(10,8,11,14)          -0.259                   5.5                    !
 --------------------------------------------------------------------------------
                           ----------------------------
                           ! Normal Mode     3        !
 --------------------------                            --------------------------
 ! Name  Definition              Value          Relative Weight (%)             !
 --------------------------------------------------------------------------------
 ! D1    D(2,1,5,6)             -0.0473                  1.5                    !
 ! D2    D(2,1,5,7)             -0.0473                  1.5                    !
 ! D3    D(2,1,5,8)             -0.0483                  1.5                    !
 ! D4    D(3,1,5,6)             -0.0535                  1.7                    !
 ! D5    D(3,1,5,7)             -0.0535                  1.7                    !
 ! D6    D(3,1,5,8)             -0.0545                  1.7                    !
 ! D7    D(4,1,5,6)             -0.0535                  1.7                    !
 ! D8    D(4,1,5,7)             -0.0535                  1.7                    !
 ! D9    D(4,1,5,8)             -0.0545                  1.7                    !
 ! D10   D(1,5,8,9)              0.2373                  7.4                    !
 ! D11   D(1,5,8,10)             0.2373                  7.4                    !
 ! D12   D(1,5,8,11)             0.2368                  7.4                    !
 ! D13   D(6,5,8,9)              0.2377                  7.5                    !
 ! D14   D(6,5,8,10)             0.2377                  7.5                    !
 ! D15   D(6,5,8,11)             0.2373                  7.4                    !
 ! D16   D(7,5,8,9)              0.2377                  7.5                    !
 ! D17   D(7,5,8,10)             0.2377                  7.5                    !
 ! D18   D(7,5,8,11)             0.2373                  7.4                    !
 ! D19   D(5,8,11,12)           -0.0545                  1.7                    !
 ! D20   D(5,8,11,13)           -0.0483                  1.5                    !
 ! D21   D(5,8,11,14)           -0.0545                  1.7                    !
 ! D22   D(9,8,11,12)           -0.0535                  1.7                    !
 ! D23   D(9,8,11,13)           -0.0473                  1.5                    !
 ! D24   D(9,8,11,14)           -0.0535                  1.7                    !
 ! D25   D(10,8,11,12)          -0.0535                  1.7                    !
 ! D26   D(10,8,11,13)          -0.0473                  1.5                    !
 ! D27   D(10,8,11,14)          -0.0535                  1.7                    !
 --------------------------------------------------------------------------------
                           ----------------------------
                           ! Normal Mode     4        !
 --------------------------                            --------------------------
 ! Name  Definition              Value          Relative Weight (%)             !
 --------------------------------------------------------------------------------
 ! R1    R(1,2)                  0.0081                  0.7                    !
 ! R4    R(1,5)                  0.1893                 15.4                    !
 ! R7    R(5,8)                  0.2275                 18.5                    !
 ! R10   R(8,11)                 0.1893                 15.4                    !
 ! R12   R(11,13)                0.0081                  0.7                    !
 ! A7    A(1,5,6)               -0.0149                  1.2                    !
 ! A8    A(1,5,7)               -0.0149                  1.2                    !
 ! A9    A(1,5,8)                0.06                    4.9                    !
 ! A10   A(6,5,7)               -0.012                   1.0                    !
 ! A11   A(6,5,8)               -0.0115                  0.9                    !
 ! A12   A(7,5,8)               -0.0115                  0.9                    !
 ! A13   A(5,8,9)               -0.0115                  0.9                    !
 ! A14   A(5,8,10)              -0.0115                  0.9                    !
 ! A15   A(5,8,11)               0.06                    4.9                    !
 ! A16   A(9,8,10)              -0.012                   1.0                    !
 ! A17   A(9,8,11)              -0.0149                  1.2                    !
 ! A18   A(10,8,11)             -0.0149                  1.2                    !
 ! D1    D(2,1,5,6)             -0.0156                  1.3                    !
 ! D2    D(2,1,5,7)              0.0156                  1.3                    !
 ! D4    D(3,1,5,6)             -0.0136                  1.1                    !
 ! D5    D(3,1,5,7)              0.0177                  1.4                    !
 ! D7    D(4,1,5,6)             -0.0177                  1.4                    !
 ! D8    D(4,1,5,7)              0.0136                  1.1                    !
 ! D10   D(1,5,8,9)              0.0134                  1.1                    !
 ! D11   D(1,5,8,10)            -0.0134                  1.1                    !
 ! D13   D(6,5,8,9)              0.0269                  2.2                    !
 ! D15   D(6,5,8,11)             0.0134                  1.1                    !
 ! D17   D(7,5,8,10)            -0.0269                  2.2                    !
 ! D18   D(7,5,8,11)            -0.0134                  1.1                    !
 ! D22   D(9,8,11,12)           -0.0136                  1.1                    !
 ! D23   D(9,8,11,13)           -0.0156                  1.3                    !
 ! D24   D(9,8,11,14)           -0.0177                  1.4                    !
 ! D25   D(10,8,11,12)           0.0177                  1.4                    !
 ! D26   D(10,8,11,13)           0.0156                  1.3                    !
 ! D27   D(10,8,11,14)           0.0136                  1.1                    !
 --------------------------------------------------------------------------------
                           ----------------------------
                           ! Normal Mode     5        !
 --------------------------                            --------------------------
 ! Name  Definition              Value          Relative Weight (%)             !
 --------------------------------------------------------------------------------
 ! R1    R(1,2)                  0.0077                  0.6                    !
 ! R4    R(1,5)                 -0.0134                  1.1                    !
 ! R10   R(8,11)                 0.0134                  1.1                    !
 ! R12   R(11,13)               -0.0077                  0.6                    !
 ! A3    A(2,1,5)                0.0126                  1.0                    !
 ! A7    A(1,5,6)                0.0266                  2.2                    !
 ! A8    A(1,5,7)                0.0266                  2.2                    !
 ! A9    A(1,5,8)               -0.1247                 10.1                    !
 ! A10   A(6,5,7)                0.0212                  1.7                    !
 ! A11   A(6,5,8)                0.0301                  2.4                    !
 ! A12   A(7,5,8)                0.0301                  2.4                    !
 ! A13   A(5,8,9)               -0.0301                  2.4                    !
 ! A14   A(5,8,10)              -0.0301                  2.4                    !
 ! A15   A(5,8,11)               0.1247                 10.1                    !
 ! A16   A(9,8,10)              -0.0212                  1.7                    !
 ! A17   A(9,8,11)              -0.0266                  2.2                    !
 ! A18   A(10,8,11)             -0.0266                  2.2                    !
 ! A20   A(8,11,13)             -0.0126                  1.0                    !
 ! D1    D(2,1,5,6)              0.0277                  2.3                    !
 ! D2    D(2,1,5,7)             -0.0277                  2.3                    !
 ! D4    D(3,1,5,6)              0.023                   1.9                    !
 ! D5    D(3,1,5,7)             -0.0325                  2.6                    !
 ! D7    D(4,1,5,6)              0.0325                  2.6                    !
 ! D8    D(4,1,5,7)             -0.023                   1.9                    !
 ! D10   D(1,5,8,9)              0.0291                  2.4                    !
 ! D11   D(1,5,8,10)            -0.0291                  2.4                    !
 ! D14   D(6,5,8,10)            -0.0582                  4.7                    !
 ! D15   D(6,5,8,11)            -0.0291                  2.4                    !
 ! D16   D(7,5,8,9)              0.0582                  4.7                    !
 ! D18   D(7,5,8,11)             0.0291                  2.4                    !
 ! D22   D(9,8,11,12)           -0.023                   1.9                    !
 ! D23   D(9,8,11,13)           -0.0277                  2.3                    !
 ! D24   D(9,8,11,14)           -0.0325                  2.6                    !
 ! D25   D(10,8,11,12)           0.0325                  2.6                    !
 ! D26   D(10,8,11,13)           0.0277                  2.3                    !
 ! D27   D(10,8,11,14)           0.023                   1.9                    !
 --------------------------------------------------------------------------------
                           ----------------------------
                           ! Normal Mode     6        !
 --------------------------                            --------------------------
 ! Name  Definition              Value          Relative Weight (%)             !
 --------------------------------------------------------------------------------
 ! R1    R(1,2)                 -0.0152                  1.0                    !
 ! R2    R(1,3)                 -0.0152                  1.0                    !
 ! R3    R(1,4)                 -0.0152                  1.0                    !
 ! R4    R(1,5)                 -0.5026                 33.9                    !
 ! R5    R(5,6)                 -0.0155                  1.0                    !
 ! R6    R(5,7)                 -0.0155                  1.0                    !
 ! R8    R(8,9)                  0.0155                  1.0                    !
 ! R9    R(8,10)                 0.0155                  1.0                    !
 ! R10   R(8,11)                 0.5026                 33.9                    !
 ! R11   R(11,12)                0.0152                  1.0                    !
 ! R12   R(11,13)                0.0152                  1.0                    !
 ! R13   R(11,14)                0.0152                  1.0                    !
 ! A1    A(2,1,3)                0.0091                  0.6                    !
 ! A2    A(2,1,4)                0.0091                  0.6                    !
 ! A3    A(2,1,5)               -0.0116                  0.8                    !
 ! A4    A(3,1,4)                0.0102                  0.7                    !
 ! A5    A(3,1,5)               -0.0076                  0.5                    !
 ! A6    A(4,1,5)               -0.0076                  0.5                    !
 ! A7    A(1,5,6)               -0.0137                  0.9                    !
 ! A8    A(1,5,7)               -0.0137                  0.9                    !
 ! A9    A(1,5,8)                0.0093                  0.6                    !
 ! A10   A(6,5,7)                0.0071                  0.5                    !
 ! A11   A(6,5,8)                0.0056                  0.4                    !
 ! A12   A(7,5,8)                0.0056                  0.4                    !
 ! A13   A(5,8,9)               -0.0056                  0.4                    !
 ! A14   A(5,8,10)              -0.0056                  0.4                    !
 ! A15   A(5,8,11)              -0.0093                  0.6                    !
 ! A16   A(9,8,10)              -0.0071                  0.5                    !
 ! A17   A(9,8,11)               0.0137                  0.9                    !
 ! A18   A(10,8,11)              0.0137                  0.9                    !
 ! A19   A(8,11,12)              0.0076                  0.5                    !
 ! A20   A(8,11,13)              0.0116                  0.8                    !
 ! A21   A(8,11,14)              0.0076                  0.5                    !
 ! A22   A(12,11,13)            -0.0091                  0.6                    !
 ! A23   A(12,11,14)            -0.0102                  0.7                    !
 ! A24   A(13,11,14)            -0.0091                  0.6                    !
 ! D5    D(3,1,5,7)              0.0049                  0.3                    !
 ! D7    D(4,1,5,6)             -0.0049                  0.3                    !
 ! D10   D(1,5,8,9)              0.0073                  0.5                    !
 ! D11   D(1,5,8,10)            -0.0073                  0.5                    !
 ! D14   D(6,5,8,10)            -0.0146                  1.0                    !
 ! D15   D(6,5,8,11)            -0.0073                  0.5                    !
 ! D16   D(7,5,8,9)              0.0146                  1.0                    !
 ! D18   D(7,5,8,11)             0.0073                  0.5                    !
 ! D24   D(9,8,11,14)            0.0049                  0.3                    !
 ! D25   D(10,8,11,12)          -0.0049                  0.3                    !
 --------------------------------------------------------------------------------
                           ----------------------------
                           ! Normal Mode     7        !
 --------------------------                            --------------------------
 ! Name  Definition              Value          Relative Weight (%)             !
 --------------------------------------------------------------------------------
 ! R1    R(1,2)                  0.0066                  0.4                    !
 ! R2    R(1,3)                 -0.0166                  1.0                    !
 ! R3    R(1,4)                 -0.0166                  1.0                    !
 ! R4    R(1,5)                 -0.301                  17.4                    !
 ! R5    R(5,6)                  0.0087                  0.5                    !
 ! R6    R(5,7)                  0.0087                  0.5                    !
 ! R7    R(5,8)                  0.5371                 31.1                    !
 ! R8    R(8,9)                  0.0087                  0.5                    !
 ! R9    R(8,10)                 0.0087                  0.5                    !
 ! R10   R(8,11)                -0.301                  17.4                    !
 ! R11   R(11,12)               -0.0166                  1.0                    !
 ! R12   R(11,13)                0.0066                  0.4                    !
 ! R13   R(11,14)               -0.0166                  1.0                    !
 ! A3    A(2,1,5)                0.0094                  0.5                    !
 ! A4    A(3,1,4)                0.0066                  0.4                    !
 ! A5    A(3,1,5)               -0.0127                  0.7                    !
 ! A6    A(4,1,5)               -0.0127                  0.7                    !
 ! A7    A(1,5,6)               -0.0129                  0.7                    !
 ! A8    A(1,5,7)               -0.0129                  0.7                    !
 ! A9    A(1,5,8)               -0.0132                  0.8                    !
 ! A11   A(6,5,8)                0.0213                  1.2                    !
 ! A12   A(7,5,8)                0.0213                  1.2                    !
 ! A13   A(5,8,9)                0.0213                  1.2                    !
 ! A14   A(5,8,10)               0.0213                  1.2                    !
 ! A15   A(5,8,11)              -0.0132                  0.8                    !
 ! A17   A(9,8,11)              -0.0129                  0.7                    !
 ! A18   A(10,8,11)             -0.0129                  0.7                    !
 ! A19   A(8,11,12)             -0.0127                  0.7                    !
 ! A20   A(8,11,13)              0.0094                  0.5                    !
 ! A21   A(8,11,14)             -0.0127                  0.7                    !
 ! A23   A(12,11,14)             0.0066                  0.4                    !
 ! D1    D(2,1,5,6)             -0.0089                  0.5                    !
 ! D2    D(2,1,5,7)              0.0089                  0.5                    !
 ! D4    D(3,1,5,6)             -0.0132                  0.8                    !
 ! D8    D(4,1,5,7)              0.0132                  0.8                    !
 ! D10   D(1,5,8,9)             -0.0101                  0.6                    !
 ! D11   D(1,5,8,10)             0.0101                  0.6                    !
 ! D13   D(6,5,8,9)             -0.0202                  1.2                    !
 ! D15   D(6,5,8,11)            -0.0101                  0.6                    !
 ! D17   D(7,5,8,10)             0.0202                  1.2                    !
 ! D18   D(7,5,8,11)             0.0101                  0.6                    !
 ! D22   D(9,8,11,12)           -0.0132                  0.8                    !
 ! D23   D(9,8,11,13)           -0.0089                  0.5                    !
 ! D26   D(10,8,11,13)           0.0089                  0.5                    !
 ! D27   D(10,8,11,14)           0.0132                  0.8                    !
 --------------------------------------------------------------------------------
                           ----------------------------
                           ! Normal Mode     8        !
 --------------------------                            --------------------------
 ! Name  Definition              Value          Relative Weight (%)             !
 --------------------------------------------------------------------------------
 ! R4    R(1,5)                  0.2421                  7.0                    !
 ! R5    R(5,6)                  0.0696                  2.0                    !
 ! R6    R(5,7)                  0.0696                  2.0                    !
 ! R7    R(5,8)                  0.1983                  5.7                    !
 ! R8    R(8,9)                  0.0696                  2.0                    !
 ! R9    R(8,10)                 0.0696                  2.0                    !
 ! R10   R(8,11)                 0.2421                  7.0                    !
 ! A3    A(2,1,5)                0.0683                  2.0                    !
 ! A5    A(3,1,5)               -0.027                   0.8                    !
 ! A6    A(4,1,5)               -0.027                   0.8                    !
 ! A7    A(1,5,6)                0.0758                  2.2                    !
 ! A8    A(1,5,7)                0.0758                  2.2                    !
 ! A9    A(1,5,8)               -0.2546                  7.3                    !
 ! A11   A(6,5,8)                0.0507                  1.5                    !
 ! A12   A(7,5,8)                0.0507                  1.5                    !
 ! A13   A(5,8,9)                0.0507                  1.5                    !
 ! A14   A(5,8,10)               0.0507                  1.5                    !
 ! A15   A(5,8,11)              -0.2546                  7.3                    !
 ! A17   A(9,8,11)               0.0758                  2.2                    !
 ! A18   A(10,8,11)              0.0758                  2.2                    !
 ! A19   A(8,11,12)             -0.027                   0.8                    !
 ! A20   A(8,11,13)              0.0683                  2.0                    !
 ! A21   A(8,11,14)             -0.027                   0.8                    !
 ! D1    D(2,1,5,6)              0.0546                  1.6                    !
 ! D2    D(2,1,5,7)             -0.0546                  1.6                    !
 ! D4    D(3,1,5,6)              0.0236                  0.7                    !
 ! D5    D(3,1,5,7)             -0.0857                  2.5                    !
 ! D6    D(3,1,5,8)             -0.0311                  0.9                    !
 ! D7    D(4,1,5,6)              0.0857                  2.5                    !
 ! D8    D(4,1,5,7)             -0.0236                  0.7                    !
 ! D9    D(4,1,5,8)              0.0311                  0.9                    !
 ! D10   D(1,5,8,9)             -0.0395                  1.1                    !
 ! D11   D(1,5,8,10)             0.0395                  1.1                    !
 ! D13   D(6,5,8,9)             -0.079                   2.3                    !
 ! D15   D(6,5,8,11)            -0.0395                  1.1                    !
 ! D17   D(7,5,8,10)             0.079                   2.3                    !
 ! D18   D(7,5,8,11)             0.0395                  1.1                    !
 ! D19   D(5,8,11,12)           -0.0311                  0.9                    !
 ! D21   D(5,8,11,14)            0.0311                  0.9                    !
 ! D22   D(9,8,11,12)            0.0236                  0.7                    !
 ! D23   D(9,8,11,13)            0.0546                  1.6                    !
 ! D24   D(9,8,11,14)            0.0857                  2.5                    !
 ! D25   D(10,8,11,12)          -0.0857                  2.5                    !
[...]
 Berny optimization.
 Internal  Forces:  Max     0.000110005 RMS     0.000048353
 Search for a local minimum.
 Step number   1 out of a maximum of    2
 All quantities printed in internal units (Hartrees-Bohrs-Radians)
 Second derivative matrix not updated -- analytic derivatives used.
 ITU=  0
     Eigenvalues ---    0.00000   0.00000   0.00000   0.00062   0.00062
     Eigenvalues ---    0.00086   0.00086   0.00089   0.00089   0.00089
     Eigenvalues ---    0.00089   0.00089   0.00089   0.00089   0.00089
     Eigenvalues ---    0.00089   0.00089   0.00089   0.00089   0.00089
     Eigenvalues ---    0.00105   0.00105   0.00106   0.00106   0.00175
     Eigenvalues ---    0.00175   0.00239   0.00239   0.00318   0.00318
     Eigenvalues ---    0.00318   0.00318   0.00321   0.00321   0.00322
     Eigenvalues ---    0.00322
 Angle between quadratic step and forces=  34.20 degrees.
 Linear search not attempted -- first point.
 Iteration  1 RMS(Cart)=  0.02817612 RMS(Int)=  0.00051873
 Iteration  2 RMS(Cart)=  0.00062171 RMS(Int)=  0.00025158
 Iteration  3 RMS(Cart)=  0.00000027 RMS(Int)=  0.00025158
 ITry= 1 IFail=0 DXMaxC= 8.80D-02 DCOld= 1.00D+10 DXMaxT= 3.00D-01 DXLimC= 3.00D+00 Rises=F
 Variable       Old X    -DE/DX   Delta X   Delta X   Delta X     New X
                                 (Linear)    (Quad)   (Total)
    R1        2.06182   0.00000   0.00000   0.00365   0.00365   2.06547
    R2        2.06398   0.00000   0.00000   0.00149   0.00149   2.06547
    R3        2.06398   0.00000   0.00000   0.00149   0.00149   2.06547
    R4        2.88640   0.00000   0.00000   0.00110   0.00110   2.88750
    R5        2.06847  -0.00000   0.00000  -0.00300  -0.00300   2.06547
    R6        2.06847  -0.00000   0.00000  -0.00300  -0.00300   2.06547
    R7        2.88954  -0.00000   0.00000  -0.00204  -0.00204   2.88750
    R8        2.06847  -0.00000   0.00000  -0.00300  -0.00300   2.06547
    R9        2.06847  -0.00000   0.00000  -0.00300  -0.00300   2.06547
   R10        2.88640   0.00000   0.00000   0.00110   0.00110   2.88750
   R11        2.06398   0.00000   0.00000   0.00149   0.00149   2.06547
   R12        2.06182   0.00000   0.00000   0.00365   0.00365   2.06547
   R13        2.06398   0.00000   0.00000   0.00149   0.00149   2.06547
    A1        1.87879   0.00011   0.00000   0.03234   0.03177   1.91056
    A2        1.87879   0.00011   0.00000   0.03234   0.03177   1.91056
    A3        1.94646  -0.00011   0.00000  -0.03546  -0.03603   1.91043
    A4        1.87608   0.00011   0.00000   0.03516   0.03480   1.91088
    A5        1.94028  -0.00010   0.00000  -0.02914  -0.02960   1.91068
    A6        1.94028  -0.00010   0.00000  -0.02914  -0.02960   1.91068
    A7        1.91120  -0.00001   0.00000  -0.00973  -0.00993   1.90127
    A8        1.91120  -0.00001   0.00000  -0.00973  -0.00993   1.90127
    A9        1.97867  -0.00001   0.00000  -0.02192  -0.02230   1.95637
   A10        1.84959   0.00005   0.00000   0.05315   0.05322   1.90281
   A11        1.90436  -0.00000   0.00000  -0.00327  -0.00360   1.90076
   A12        1.90436  -0.00000   0.00000  -0.00327  -0.00360   1.90076
   A13        1.90436  -0.00000   0.00000  -0.00327  -0.00360   1.90076
   A14        1.90436  -0.00000   0.00000  -0.00327  -0.00360   1.90076
   A15        1.97867  -0.00001   0.00000  -0.02192  -0.02230   1.95637
   A16        1.84959   0.00005   0.00000   0.05315   0.05322   1.90281
   A17        1.91120  -0.00001   0.00000  -0.00973  -0.00993   1.90127
   A18        1.91120  -0.00001   0.00000  -0.00973  -0.00993   1.90127
   A19        1.94028  -0.00010   0.00000  -0.02914  -0.02960   1.91068
   A20        1.94646  -0.00011   0.00000  -0.03546  -0.03603   1.91043
   A21        1.94028  -0.00010   0.00000  -0.02914  -0.02960   1.91068
   A22        1.87879   0.00011   0.00000   0.03234   0.03177   1.91056
   A23        1.87608   0.00011   0.00000   0.03516   0.03480   1.91088
   A24        1.87879   0.00011   0.00000   0.03234   0.03177   1.91056
    D1        1.01051   0.00002   0.00000   0.02643   0.02634   1.03685
    D2       -1.01051  -0.00002   0.00000  -0.02645  -0.02636  -1.03687
    D3        3.14159  -0.00000   0.00000  -0.00001  -0.00001   3.14158
    D4       -1.08641   0.00002   0.00000   0.02920   0.02905  -1.05737
    D5       -3.10744  -0.00002   0.00000  -0.02369  -0.02365  -3.13108
    D6        1.04467   0.00000   0.00000   0.00276   0.00270   1.04737
    D7        3.10744   0.00002   0.00000   0.02367   0.02363   3.13106
    D8        1.08641  -0.00002   0.00000  -0.02922  -0.02907   1.05735
    D9       -1.04467  -0.00000   0.00000  -0.00278  -0.00272  -1.04739
   D10       -1.00671  -0.00003   0.00000  -0.02988  -0.02986  -1.03656
   D11        1.00671   0.00003   0.00000   0.02988   0.02986   1.03657
   D12        3.14159   0.00000   0.00000   0.00000   0.00000  -3.14159
   D13        1.12818  -0.00005   0.00000  -0.05976  -0.05971   1.06846
   D14        3.14159  -0.00000   0.00000   0.00000   0.00000  -3.14159
   D15       -1.00671  -0.00003   0.00000  -0.02988  -0.02986  -1.03656
   D16       -3.14159   0.00000   0.00000   0.00000   0.00000  -3.14159
   D17       -1.12818   0.00005   0.00000   0.05976   0.05972  -1.06846
   D18        1.00671   0.00003   0.00000   0.02988   0.02986   1.03657
   D19        1.04467   0.00000   0.00000   0.00276   0.00271   1.04737
   D20        3.14159  -0.00000   0.00000  -0.00000  -0.00000   3.14159
   D21       -1.04467  -0.00000   0.00000  -0.00277  -0.00271  -1.04738
   D22       -1.08641   0.00002   0.00000   0.02921   0.02905  -1.05736
   D23        1.01051   0.00002   0.00000   0.02644   0.02634   1.03686
   D24        3.10744   0.00002   0.00000   0.02367   0.02363   3.13107
   D25       -3.10744  -0.00002   0.00000  -0.02368  -0.02364  -3.13108
   D26       -1.01051  -0.00002   0.00000  -0.02645  -0.02635  -1.03686
   D27        1.08641  -0.00002   0.00000  -0.02921  -0.02906   1.05735
         Item               Value     Threshold  Converged?
 Maximum Force            0.000110     0.000450     YES
 RMS     Force            0.000048     0.000300     YES
 Maximum Displacement     0.088039     0.001800     NO 
 RMS     Displacement     0.028610     0.001200     NO 
 Predicted change in Energy=-3.153734D-05
                           ----------------------------
                           ! Non-Optimized Parameters !
                           ! (Angstroms and Degrees)  !
 --------------------------                            --------------------------
 ! Name  Definition              Value          Derivative Info.                !
 --------------------------------------------------------------------------------
 ! R1    R(1,2)                  1.093          -DE/DX =    0.0                 !
 ! R2    R(1,3)                  1.093          -DE/DX =    0.0                 !
 ! R3    R(1,4)                  1.093          -DE/DX =    0.0                 !
 ! R4    R(1,5)                  1.528          -DE/DX =    0.0                 !
 ! R5    R(5,6)                  1.093          -DE/DX =    0.0                 !
 ! R6    R(5,7)                  1.093          -DE/DX =    0.0                 !
 ! R7    R(5,8)                  1.528          -DE/DX =    0.0                 !
 ! R8    R(8,9)                  1.093          -DE/DX =    0.0                 !
 ! R9    R(8,10)                 1.093          -DE/DX =    0.0                 !
 ! R10   R(8,11)                 1.528          -DE/DX =    0.0                 !
 ! R11   R(11,12)                1.093          -DE/DX =    0.0                 !
 ! R12   R(11,13)                1.093          -DE/DX =    0.0                 !
 ! R13   R(11,14)                1.093          -DE/DX =    0.0                 !
 ! A1    A(2,1,3)              109.4672         -DE/DX =    0.0001              !
 ! A2    A(2,1,4)              109.4672         -DE/DX =    0.0001              !
 ! A3    A(2,1,5)              109.4597         -DE/DX =   -0.0001              !
 ! A4    A(3,1,4)              109.4853         -DE/DX =    0.0001              !
 ! A5    A(3,1,5)              109.474          -DE/DX =   -0.0001              !
 ! A6    A(4,1,5)              109.474          -DE/DX =   -0.0001              !
 ! A7    A(1,5,6)              108.9346         -DE/DX =    0.0                 !
 ! A8    A(1,5,7)              108.9346         -DE/DX =    0.0                 !
 ! A9    A(1,5,8)              112.0916         -DE/DX =    0.0                 !
 ! A10   A(6,5,7)              109.0228         -DE/DX =    0.0                 !
 ! A11   A(6,5,8)              108.9057         -DE/DX =    0.0                 !
 ! A12   A(7,5,8)              108.9057         -DE/DX =    0.0                 !
 ! A13   A(5,8,9)              108.9057         -DE/DX =    0.0                 !
 ! A14   A(5,8,10)             108.9057         -DE/DX =    0.0                 !
 ! A15   A(5,8,11)             112.0916         -DE/DX =    0.0                 !
 ! A16   A(9,8,10)             109.0228         -DE/DX =    0.0                 !
 ! A17   A(9,8,11)             108.9346         -DE/DX =    0.0                 !
 ! A18   A(10,8,11)            108.9346         -DE/DX =    0.0                 !
 ! A19   A(8,11,12)            109.474          -DE/DX =   -0.0001              !
 ! A20   A(8,11,13)            109.4597         -DE/DX =   -0.0001              !
 ! A21   A(8,11,14)            109.474          -DE/DX =   -0.0001              !
 ! A22   A(12,11,13)           109.4672         -DE/DX =    0.0001              !
 ! A23   A(12,11,14)           109.4853         -DE/DX =    0.0001              !
 ! A24   A(13,11,14)           109.4672         -DE/DX =    0.0001              !
 ! D1    D(2,1,5,6)             59.4071         -DE/DX =    0.0                 !
 ! D2    D(2,1,5,7)            -59.4081         -DE/DX =    0.0                 !
 ! D3    D(2,1,5,8)            179.9995         -DE/DX =    0.0                 !
 ! D4    D(3,1,5,6)            -60.5826         -DE/DX =    0.0                 !
 ! D5    D(3,1,5,7)           -179.3978         -DE/DX =    0.0                 !
 ! D6    D(3,1,5,8)             60.0098         -DE/DX =    0.0                 !
 ! D7    D(4,1,5,6)            179.3968         -DE/DX =    0.0                 !
 ! D8    D(4,1,5,7)             60.5816         -DE/DX =    0.0                 !
 ! D9    D(4,1,5,8)            -60.0108         -DE/DX =    0.0                 !
 ! D10   D(1,5,8,9)            -59.3908         -DE/DX =    0.0                 !
 ! D11   D(1,5,8,10)            59.391          -DE/DX =    0.0                 !
 ! D12   D(1,5,8,11)          -179.9999         -DE/DX =    0.0                 !
 ! D13   D(6,5,8,9)             61.2183         -DE/DX =   -0.0001              !
 ! D14   D(6,5,8,10)          -179.9999         -DE/DX =    0.0                 !
 ! D15   D(6,5,8,11)           -59.3908         -DE/DX =    0.0                 !
 ! D16   D(7,5,8,9)           -179.9999         -DE/DX =    0.0                 !
 ! D17   D(7,5,8,10)           -61.2182         -DE/DX =    0.0001              !
 ! D18   D(7,5,8,11)            59.391          -DE/DX =    0.0                 !
 ! D19   D(5,8,11,12)           60.0101         -DE/DX =    0.0                 !
 ! D20   D(5,8,11,13)          179.9998         -DE/DX =    0.0                 !
 ! D21   D(5,8,11,14)          -60.0104         -DE/DX =    0.0                 !
 ! D22   D(9,8,11,12)          -60.5823         -DE/DX =    0.0                 !
 ! D23   D(9,8,11,13)           59.4075         -DE/DX =    0.0                 !
 ! D24   D(9,8,11,14)          179.3972         -DE/DX =    0.0                 !
 ! D25   D(10,8,11,12)        -179.3975         -DE/DX =    0.0                 !
 ! D26   D(10,8,11,13)         -59.4078         -DE/DX =    0.0                 !
 ! D27   D(10,8,11,14)          60.582          -DE/DX =    0.0                 !
 --------------------------------------------------------------------------------
 GradGradGradGradGradGradGradGradGradGradGradGradGradGradGradGradGradGrad

 Leave Link  103 at Fri Oct 21 15:33:03 2022, MaxMem=   134217728 cpu:               0.0 elap:               0.0
 (Enter /home/emanuele/chem_software/gaussian//gdv/l9999.exe)
 Unable to Open any file for archive entry.
 1\1\GINC-EMANUELE-XPS-13-9343\Freq\AMBER\ZDO\C4H10\EMANUELE\21-Oct-202
 2\0\\#p Amber=(SoftOnly,Print) nosymm Freq=intmodes\\Title\\0,1\C,1.95
 6897,-0.120392,0.\H,2.742005,0.637259,0.\H,2.103753,-0.749379,-0.88076
 \H,2.103753,-0.749379,0.88076\C,0.566957,0.512915,0.\H,0.461751,1.1634
 03,-0.874026\H,0.461751,1.163403,0.874026\C,-0.566957,-0.512915,0.\H,-
 0.461751,-1.163403,-0.874026\H,-0.461751,-1.163403,0.874026\C,-1.95689
 7,0.120392,0.\H,-2.103753,0.749379,-0.88076\H,-2.742005,-0.637259,0.\H
 ,-2.103753,0.749379,0.88076\\Version=ES64L-GDVRevJ.14\HF=0.0000429\RMS
 D=0.000e+00\RMSF=9.154e-05\ZeroPoint=0.0120732\Thermal=0.0357256\ETot=
 0.0357685\HTot=0.0367127\GTot=-0.03544\Dipole=0.,0.,0.\PG=C02H [SGH(C4
 H2),X(H8)]\NImag=3\\0.00538075,-0.00019691,0.00504517,0.,0.,0.00487808
 ,-0.00129433,0.00020690,0.,0.00098254,0.00046927,-0.00116172,0.,-0.000
 14619,0.00109880,0.,0.,-0.00140201,0.,0.,0.00107104,-0.00155105,0.0000
 9781,0.00006176,0.00023299,-0.00024144,-0.00049490,0.00115671,-0.00003
 194,-0.00126220,0.00019907,0.00013885,-0.00014388,-0.00035689,0.000020
 28,0.00100330,-0.00014249,0.00029568,-0.00104459,-0.00006031,0.0000625
 0,0.00017235,0.00008506,-0.00009110,0.00099197,-0.00155105,0.00009781,
 -0.00006176,0.00023299,-0.00024144,0.00049490,0.00005975,-0.00009964,0
 .00008112,0.00115671,-0.00003194,-0.00126220,-0.00019907,0.00013885,-0
 .00014388,0.00035689,-0.00009964,0.00046325,-0.00034744,0.00002028,0.0
 0100330,0.00014249,-0.00029568,-0.00104459,0.00006031,-0.00006250,0.00
 017235,-0.00008112,0.00034744,-0.00026165,-0.00008506,0.00009110,0.000
 99197,-0.00109871,-0.00045667,0.,-0.00015420,0.00015978,0.,0.00010160,
 -0.00002755,0.00003662,0.00010160,-0.00002755,-0.00003662,0.00532011,-
 0.00027550,-0.00150616,0.,-0.00033842,0.00035068,0.,0.00022299,-0.0000
 6047,0.00008036,0.00022299,-0.00006047,-0.00008036,0.00003063,0.004964
 27,0.,0.,-0.00164631,0.,0.,-0.00001374,0.00042920,-0.00009851,0.000141
 92,-0.00042920,0.00009851,0.00014192,0.,0.,0.00470155,0.00011035,0.000
 24218,-0.00041996,0.,0.,0.,0.,0.,0.,0.,0.,0.,-0.00151884,-0.00003282,0
 .00001999,0.00118148,-0.00002523,-0.00005538,0.00010637,0.,0.,0.,0.,0.
 ,0.,0.,0.,0.,-0.00003479,-0.00127728,-0.00008051,0.00003321,0.00097091
 ,-0.00003206,-0.00007037,0.00012971,0.,0.,0.,0.,0.,0.,0.,0.,0.,0.00006
 220,-0.00032509,-0.00098812,-0.00002277,0.00009702,0.00100074,0.000110
 35,0.00024218,0.00041996,0.,0.,0.,0.,0.,0.,0.,0.,0.,-0.00151884,-0.000
 03282,-0.00001999,0.00006723,-0.00006594,-0.00005717,0.00118148,-0.000
 02523,-0.00005538,-0.00010637,0.,0.,0.,0.,0.,0.,0.,0.,0.,-0.00003479,-
 0.00127728,0.00008051,-0.00006594,0.00046429,0.00035349,0.00003321,0.0
 0097091,0.00003206,0.00007037,0.00012971,0.,0.,0.,0.,0.,0.,0.,0.,0.,-0
 .00006220,0.00032509,-0.00098812,0.00005717,-0.00035349,-0.00026996,0.
 00002277,-0.00009702,0.00100074,-0.00010630,-0.00023330,0.,0.,0.,0.,0.
 ,0.,0.,0.,0.,0.,-0.00144599,0.00043871,0.,0.00015979,0.00009276,0.0000
 4980,0.00015979,0.00009276,-0.00004980,0.00532011,0.00011750,0.0002578
 8,0.,0.,0.,0.,0.,0.,0.,0.,0.,0.,0.00043871,-0.00118610,0.,-0.00017662,
 -0.00010254,-0.00005505,-0.00017662,-0.00010254,0.00005505,0.00003063,
 0.00496427,0.,0.,0.,0.,0.,0.,0.,0.,0.,0.,0.,0.,0.,0.,-0.00160433,0.000
 36556,0.00023061,0.00012763,-0.00036556,-0.00023061,0.00012763,0.,0.,0
 .00470155,0.,0.,0.,0.,0.,0.,0.,0.,0.,0.,0.,0.,0.00015979,-0.00017662,-
 0.00036556,0.,0.,0.,0.,0.,0.,-0.00151884,-0.00003282,-0.00001999,0.001
 18148,0.,0.,0.,0.,0.,0.,0.,0.,0.,0.,0.,0.,0.00009276,-0.00010254,-0.00
 023061,0.,0.,0.,0.,0.,0.,-0.00003479,-0.00127728,0.00008051,0.00003321
 ,0.00097091,0.,0.,0.,0.,0.,0.,0.,0.,0.,0.,0.,0.,-0.00004980,0.00005505
 ,0.00012763,0.,0.,0.,0.,0.,0.,-0.00006220,0.00032509,-0.00098812,0.000
 02277,-0.00009702,0.00100074,0.,0.,0.,0.,0.,0.,0.,0.,0.,0.,0.,0.,0.000
 15979,-0.00017662,0.00036556,0.,0.,0.,0.,0.,0.,-0.00151884,-0.00003282
 ,0.00001999,0.00006723,-0.00006594,0.00005717,0.00118148,0.,0.,0.,0.,0
 .,0.,0.,0.,0.,0.,0.,0.,0.00009276,-0.00010254,0.00023061,0.,0.,0.,0.,0
 .,0.,-0.00003479,-0.00127728,-0.00008051,-0.00006594,0.00046429,-0.000
 35349,0.00003321,0.00097091,0.,0.,0.,0.,0.,0.,0.,0.,0.,0.,0.,0.,0.0000
 4980,-0.00005505,0.00012763,0.,0.,0.,0.,0.,0.,0.00006220,-0.00032509,-
 0.00098812,-0.00005717,0.00035349,-0.00026996,-0.00002277,0.00009702,0
 .00100074,0.,0.,0.,0.,0.,0.,0.,0.,0.,0.,0.,0.,-0.00010630,0.00011750,0
 .,0.,0.,0.,0.,0.,0.,-0.00109871,-0.00027550,0.,0.00011035,-0.00002523,
 0.00003206,0.00011035,-0.00002523,-0.00003206,0.00538075,0.,0.,0.,0.,0
 .,0.,0.,0.,0.,0.,0.,0.,-0.00023330,0.00025788,0.,0.,0.,0.,0.,0.,0.,-0.
 00045667,-0.00150616,0.,0.00024218,-0.00005538,0.00007037,0.00024218,-
 0.00005538,-0.00007037,-0.00019691,0.00504517,0.,0.,0.,0.,0.,0.,0.,0.,
 0.,0.,0.,0.,0.,0.,0.,0.,0.,0.,0.,0.,0.,0.,0.,-0.00164631,0.00041996,-0
 .00010637,0.00012971,-0.00041996,0.00010637,0.00012971,0.,0.,0.0048780
 8,0.,0.,0.,0.,0.,0.,0.,0.,0.,0.,0.,0.,0.,0.,0.,0.,0.,0.,0.,0.,0.,0.000
 10160,0.00022299,-0.00042920,0.,0.,0.,0.,0.,0.,-0.00155105,0.00009781,
 -0.00006176,0.00115671,0.,0.,0.,0.,0.,0.,0.,0.,0.,0.,0.,0.,0.,0.,0.,0.
 ,0.,0.,0.,0.,0.,-0.00002755,-0.00006047,0.00009851,0.,0.,0.,0.,0.,0.,-
 0.00003194,-0.00126220,-0.00019907,0.00002028,0.00100330,0.,0.,0.,0.,0
 .,0.,0.,0.,0.,0.,0.,0.,0.,0.,0.,0.,0.,0.,0.,0.,0.,-0.00003662,-0.00008
 036,0.00014192,0.,0.,0.,0.,0.,0.,0.00014249,-0.00029568,-0.00104459,-0
 .00008506,0.00009110,0.00099197,0.,0.,0.,0.,0.,0.,0.,0.,0.,0.,0.,0.,0.
 ,0.,0.,0.,0.,0.,0.,0.,0.,-0.00015420,-0.00033842,0.,0.,0.,0.,0.,0.,0.,
 -0.00129433,0.00020690,0.,0.00023299,0.00013885,0.00006031,0.00098254,
 0.,0.,0.,0.,0.,0.,0.,0.,0.,0.,0.,0.,0.,0.,0.,0.,0.,0.,0.,0.,0.,0.00015
 978,0.00035068,0.,0.,0.,0.,0.,0.,0.,0.00046927,-0.00116172,0.,-0.00024
 144,-0.00014388,-0.00006250,-0.00014619,0.00109880,0.,0.,0.,0.,0.,0.,0
 .,0.,0.,0.,0.,0.,0.,0.,0.,0.,0.,0.,0.,0.,0.,0.,0.,-0.00001374,0.,0.,0.
 ,0.,0.,0.,0.,0.,-0.00140201,0.00049490,0.00035689,0.00017235,0.,0.,0.0
 0107104,0.,0.,0.,0.,0.,0.,0.,0.,0.,0.,0.,0.,0.,0.,0.,0.,0.,0.,0.,0.,0.
 ,0.00010160,0.00022299,0.00042920,0.,0.,0.,0.,0.,0.,-0.00155105,0.0000
 9781,0.00006176,0.00005975,-0.00009964,-0.00008112,0.00023299,-0.00024
 144,-0.00049490,0.00115671,0.,0.,0.,0.,0.,0.,0.,0.,0.,0.,0.,0.,0.,0.,0
 .,0.,0.,0.,0.,0.,0.,-0.00002755,-0.00006047,-0.00009851,0.,0.,0.,0.,0.
 ,0.,-0.00003194,-0.00126220,0.00019907,-0.00009964,0.00046325,0.000347
 44,0.00013885,-0.00014388,-0.00035689,0.00002028,0.00100330,0.,0.,0.,0
 .,0.,0.,0.,0.,0.,0.,0.,0.,0.,0.,0.,0.,0.,0.,0.,0.,0.,0.00003662,0.0000
 8036,0.00014192,0.,0.,0.,0.,0.,0.,-0.00014249,0.00029568,-0.00104459,0
 .00008112,-0.00034744,-0.00026165,-0.00006031,0.00006250,0.00017235,0.
 00008506,-0.00009110,0.00099197\\-0.00025030,0.00014903,0.,0.00007338,
 -0.00008073,0.,0.00009219,-0.00002480,0.00003473,0.00009219,-0.0000248
 0,-0.00003473,0.00006521,-0.00019351,0.,-0.00002123,0.00007207,0.00005
 284,-0.00002123,0.00007207,-0.00005284,-0.00006521,0.00019351,0.,0.000
 02123,-0.00007207,0.00005284,0.00002123,-0.00007207,-0.00005284,0.0002
 5030,-0.00014903,0.,-0.00009219,0.00002480,0.00003473,-0.00007338,0.00
 008073,0.,-0.00009219,0.00002480,-0.00003473\\\@
 The archive entry for this job was punched.


 WHERE THERE IS MUCH DESIRE TO LEARN, THERE OF NECESSITY WILL BE
 MUCH ARGUING, MUCH WRITING, MANY OPINIONS; FOR OPINION IN GOOD MEN
 IS BUT KNOWLEDGE IN THE MAKING. -- JOHN MILTON.
 Job cpu time:       0 days  0 hours  0 minutes  0.6 seconds.
 Elapsed time:       0 days  0 hours  0 minutes  0.6 seconds.
 File lengths (MBytes):  RWF=      6 Int=      0 D2E=      0 Chk=      1 Scr=      1
 Normal termination of Gaussian DV at Fri Oct 21 15:33:03 2022.
