 Entering Gaussian System, Link 0=g09
 Input=GauHarm.gjf
 Output=GauHarm.log
 Initial command:
 /home/emanuele/chem_software/gaussian//g09/l1.exe "/home/emanuele/chem_software/gaussian/Gau-21236.inp" -scrdir="/home/emanuele/chem_software/gaussian/"
 Entering Link 1 = /home/emanuele/chem_software/gaussian//g09/l1.exe PID=     21238.
  
 Copyright (c) 1988,1990,1992,1993,1995,1998,2003,2009,2013,
            Gaussian, Inc.  All Rights Reserved.
  
 This is part of the Gaussian(R) 09 program.  It is based on
 the Gaussian(R) 03 system (copyright 2003, Gaussian, Inc.),
 the Gaussian(R) 98 system (copyright 1998, Gaussian, Inc.),
 the Gaussian(R) 94 system (copyright 1995, Gaussian, Inc.),
 the Gaussian 92(TM) system (copyright 1992, Gaussian, Inc.),
 the Gaussian 90(TM) system (copyright 1990, Gaussian, Inc.),
 the Gaussian 88(TM) system (copyright 1988, Gaussian, Inc.),
 the Gaussian 86(TM) system (copyright 1986, Carnegie Mellon
 University), and the Gaussian 82(TM) system (copyright 1983,
 Carnegie Mellon University). Gaussian is a federally registered
 trademark of Gaussian, Inc.
  
 This software contains proprietary and confidential information,
 including trade secrets, belonging to Gaussian, Inc.
  
 This software is provided under written license and may be
 used, copied, transmitted, or stored only in accord with that
 written license.
  
 The following legend is applicable only to US Government
 contracts under FAR:
  
                    RESTRICTED RIGHTS LEGEND
  
 Use, reproduction and disclosure by the US Government is
 subject to restrictions as set forth in subparagraphs (a)
 and (c) of the Commercial Computer Software - Restricted
 Rights clause in FAR 52.227-19.
  
 Gaussian, Inc.
 340 Quinnipiac St., Bldg. 40, Wallingford CT 06492
  
  
 ---------------------------------------------------------------
 Warning -- This program may not be used in any manner that
 competes with the business of Gaussian, Inc. or will provide
 assistance to any competitor of Gaussian, Inc.  The licensee
 of this program is prohibited from giving any competitor of
 Gaussian, Inc. access to this program.  By using this program,
 the user acknowledges that Gaussian, Inc. is engaged in the
 business of creating and licensing software in the field of
 computational chemistry and represents and warrants to the
 licensee that it is not a competitor of Gaussian, Inc. and that
 it will not use this program in any manner prohibited above.
 ---------------------------------------------------------------
  

 Cite this work as:
 Gaussian 09, Revision D.01,
 M. J. Frisch, G. W. Trucks, H. B. Schlegel, G. E. Scuseria, 
 M. A. Robb, J. R. Cheeseman, G. Scalmani, V. Barone, B. Mennucci, 
 G. A. Petersson, H. Nakatsuji, M. Caricato, X. Li, H. P. Hratchian, 
 A. F. Izmaylov, J. Bloino, G. Zheng, J. L. Sonnenberg, M. Hada, 
 M. Ehara, K. Toyota, R. Fukuda, J. Hasegawa, M. Ishida, T. Nakajima, 
 Y. Honda, O. Kitao, H. Nakai, T. Vreven, J. A. Montgomery, Jr., 
 J. E. Peralta, F. Ogliaro, M. Bearpark, J. J. Heyd, E. Brothers, 
 K. N. Kudin, V. N. Staroverov, T. Keith, R. Kobayashi, J. Normand, 
 K. Raghavachari, A. Rendell, J. C. Burant, S. S. Iyengar, J. Tomasi, 
 M. Cossi, N. Rega, J. M. Millam, M. Klene, J. E. Knox, J. B. Cross, 
 V. Bakken, C. Adamo, J. Jaramillo, R. Gomperts, R. E. Stratmann, 
 O. Yazyev, A. J. Austin, R. Cammi, C. Pomelli, J. W. Ochterski, 
 R. L. Martin, K. Morokuma, V. G. Zakrzewski, G. A. Voth, 
 P. Salvador, J. J. Dannenberg, S. Dapprich, A. D. Daniels, 
 O. Farkas, J. B. Foresman, J. V. Ortiz, J. Cioslowski, 
 and D. J. Fox, Gaussian, Inc., Wallingford CT, 2013.
 
 ******************************************
 Gaussian 09:  ES64L-G09RevD.01 24-Apr-2013
                29-Aug-2022 
 ******************************************
 %mem=1GB
 %nprocshared=1
 Will use up to    1 processors via shared memory.
 %chk=GauHarm.chk
 ----------------------------------------------
 #p Amber=(SoftOnly,Print) nosymm Freq=intmodes
 ----------------------------------------------
 1/10=4,18=20,30=1,38=1,56=2,64=303/1,3;
 2/9=110,12=2,15=1,17=6,18=5,40=1/2;
 3/5=30,11=9,16=1,25=1,30=1,41=10300000,43=2,71=2,140=1/1;
 4/20=11,22=2,24=3,119=11/2;
 7/8=21,25=1,30=1,44=-1/16;
 1/10=4,18=20,30=1,64=303/3;
 99//99;
 Leave Link    1 at Mon Aug 29 16:28:37 2022, MaxMem=   134217728 cpu:         0.0
 (Enter /home/emanuele/chem_software/gaussian//g09/l101.exe)
 -----
 Title
 -----
 Symbolic Z-matrix:
 Charge =  0 Multiplicity = 1
 C-CT-0.00             1.9569   -0.12039   0. 
 H-HC-0.00             2.74201   0.63726   0. 
 H-HC-0.00             2.10375  -0.74938  -0.88076 
 H-HC-0.00             2.10375  -0.74938   0.88076 
 C-CT-0.00             0.56696   0.51292   0. 
 H-HC-0.00             0.46175   1.1634   -0.87403 
 H-HC-0.00             0.46175   1.1634    0.87403 
 C-CT-0.00            -0.56696  -0.51292   0. 
 H-HC-0.00            -0.46175  -1.1634   -0.87403 
 H-HC-0.00            -0.46175  -1.1634    0.87403 
 C-CT-0.00            -1.9569    0.12039   0. 
 H-HC-0.00            -2.10375   0.74938  -0.88076 
 H-HC-0.00            -2.74201  -0.63726   0. 
 H-HC-0.00            -2.10375   0.74938   0.88076 
 
 NAtoms=     14 NQM=       14 NQMF=       0 NMMI=      0 NMMIF=      0
                NMic=       0 NMicF=      0.
                    Isotopes and Nuclear Properties:
 (Nuclear quadrupole moments (NQMom) in fm**2, nuclear magnetic moments (NMagM)
  in nuclear magnetons)

  Atom         1           2           3           4           5           6           7           8           9          10
 IAtWgt=          12           1           1           1          12           1           1          12           1           1
 AtmWgt=  12.0000000   1.0078250   1.0078250   1.0078250  12.0000000   1.0078250   1.0078250  12.0000000   1.0078250   1.0078250
 NucSpn=           0           1           1           1           0           1           1           0           1           1
 AtZEff=   0.0000000   0.0000000   0.0000000   0.0000000   0.0000000   0.0000000   0.0000000   0.0000000   0.0000000   0.0000000
 NQMom=    0.0000000   0.0000000   0.0000000   0.0000000   0.0000000   0.0000000   0.0000000   0.0000000   0.0000000   0.0000000
 NMagM=    0.0000000   2.7928460   2.7928460   2.7928460   0.0000000   2.7928460   2.7928460   0.0000000   2.7928460   2.7928460
 AtZNuc=   6.0000000   1.0000000   1.0000000   1.0000000   6.0000000   1.0000000   1.0000000   6.0000000   1.0000000   1.0000000

  Atom        11          12          13          14
 IAtWgt=          12           1           1           1
 AtmWgt=  12.0000000   1.0078250   1.0078250   1.0078250
 NucSpn=           0           1           1           1
 AtZEff=   0.0000000   0.0000000   0.0000000   0.0000000
 NQMom=    0.0000000   0.0000000   0.0000000   0.0000000
 NMagM=    0.0000000   2.7928460   2.7928460   2.7928460
 AtZNuc=   6.0000000   1.0000000   1.0000000   1.0000000
 Generating MM parameters.
 Read MM parameter file:
 Include all MM classes

 MM sanity checks:
 All charges sum to:                0.00000000
 Charges of atoms sum to:           0.00000000
 WARNING -- There are centers with partial charges, but
 there is no Vanderwaals repulsion. Centers can collapse
 onto each other.
 MMInit generated parameter data with length LenPar=        2209.
 Leave Link  101 at Mon Aug 29 16:28:37 2022, MaxMem=   134217728 cpu:         0.1
 (Enter /home/emanuele/chem_software/gaussian//g09/l103.exe)

 GradGradGradGradGradGradGradGradGradGradGradGradGradGradGradGradGradGrad
 Berny optimization.
 Initialization pass.
                           ----------------------------
                           !    Initial Parameters    !
                           ! (Angstroms and Degrees)  !
 --------------------------                            --------------------------
 ! Name  Definition              Value          Derivative Info.                !
 --------------------------------------------------------------------------------
 ! R1    R(1,2)                  1.0911         calculate D2E/DX2 analytically  !
 ! R2    R(1,3)                  1.0922         calculate D2E/DX2 analytically  !
 ! R3    R(1,4)                  1.0922         calculate D2E/DX2 analytically  !
 ! R4    R(1,5)                  1.5274         calculate D2E/DX2 analytically  !
 ! R5    R(5,6)                  1.0946         calculate D2E/DX2 analytically  !
 ! R6    R(5,7)                  1.0946         calculate D2E/DX2 analytically  !
 ! R7    R(5,8)                  1.5291         calculate D2E/DX2 analytically  !
 ! R8    R(8,9)                  1.0946         calculate D2E/DX2 analytically  !
 ! R9    R(8,10)                 1.0946         calculate D2E/DX2 analytically  !
 ! R10   R(8,11)                 1.5274         calculate D2E/DX2 analytically  !
 ! R11   R(11,12)                1.0922         calculate D2E/DX2 analytically  !
 ! R12   R(11,13)                1.0911         calculate D2E/DX2 analytically  !
 ! R13   R(11,14)                1.0922         calculate D2E/DX2 analytically  !
 ! A1    A(2,1,3)              107.6468         calculate D2E/DX2 analytically  !
 ! A2    A(2,1,4)              107.6468         calculate D2E/DX2 analytically  !
 ! A3    A(2,1,5)              111.5239         calculate D2E/DX2 analytically  !
 ! A4    A(3,1,4)              107.4912         calculate D2E/DX2 analytically  !
 ! A5    A(3,1,5)              111.1697         calculate D2E/DX2 analytically  !
 ! A6    A(4,1,5)              111.1697         calculate D2E/DX2 analytically  !
 ! A7    A(1,5,6)              109.5036         calculate D2E/DX2 analytically  !
 ! A8    A(1,5,7)              109.5036         calculate D2E/DX2 analytically  !
 ! A9    A(1,5,8)              113.3692         calculate D2E/DX2 analytically  !
 ! A10   A(6,5,7)              105.9736         calculate D2E/DX2 analytically  !
 ! A11   A(6,5,8)              109.1118         calculate D2E/DX2 analytically  !
 ! A12   A(7,5,8)              109.1118         calculate D2E/DX2 analytically  !
 ! A13   A(5,8,9)              109.1118         calculate D2E/DX2 analytically  !
 ! A14   A(5,8,10)             109.1118         calculate D2E/DX2 analytically  !
 ! A15   A(5,8,11)             113.3692         calculate D2E/DX2 analytically  !
 ! A16   A(9,8,10)             105.9736         calculate D2E/DX2 analytically  !
 ! A17   A(9,8,11)             109.5036         calculate D2E/DX2 analytically  !
 ! A18   A(10,8,11)            109.5036         calculate D2E/DX2 analytically  !
 ! A19   A(8,11,12)            111.1697         calculate D2E/DX2 analytically  !
 ! A20   A(8,11,13)            111.5239         calculate D2E/DX2 analytically  !
 ! A21   A(8,11,14)            111.1697         calculate D2E/DX2 analytically  !
 ! A22   A(12,11,13)           107.6468         calculate D2E/DX2 analytically  !
 ! A23   A(12,11,14)           107.4912         calculate D2E/DX2 analytically  !
 ! A24   A(13,11,14)           107.6468         calculate D2E/DX2 analytically  !
 ! D1    D(2,1,5,6)             57.898          calculate D2E/DX2 analytically  !
 ! D2    D(2,1,5,7)            -57.898          calculate D2E/DX2 analytically  !
 ! D3    D(2,1,5,8)            180.0            calculate D2E/DX2 analytically  !
 ! D4    D(3,1,5,6)            -62.247          calculate D2E/DX2 analytically  !
 ! D5    D(3,1,5,7)           -178.0429         calculate D2E/DX2 analytically  !
 ! D6    D(3,1,5,8)             59.855          calculate D2E/DX2 analytically  !
 ! D7    D(4,1,5,6)            178.043          calculate D2E/DX2 analytically  !
 ! D8    D(4,1,5,7)             62.247          calculate D2E/DX2 analytically  !
 ! D9    D(4,1,5,8)            -59.855          calculate D2E/DX2 analytically  !
 ! D10   D(1,5,8,9)            -57.6801         calculate D2E/DX2 analytically  !
 ! D11   D(1,5,8,10)            57.6801         calculate D2E/DX2 analytically  !
 ! D12   D(1,5,8,11)           180.0            calculate D2E/DX2 analytically  !
 ! D13   D(6,5,8,9)             64.6397         calculate D2E/DX2 analytically  !
 ! D14   D(6,5,8,10)           180.0            calculate D2E/DX2 analytically  !
 ! D15   D(6,5,8,11)           -57.6801         calculate D2E/DX2 analytically  !
 ! D16   D(7,5,8,9)            180.0            calculate D2E/DX2 analytically  !
 ! D17   D(7,5,8,10)           -64.6398         calculate D2E/DX2 analytically  !
 ! D18   D(7,5,8,11)            57.6801         calculate D2E/DX2 analytically  !
 ! D19   D(5,8,11,12)           59.855          calculate D2E/DX2 analytically  !
 ! D20   D(5,8,11,13)          180.0            calculate D2E/DX2 analytically  !
 ! D21   D(5,8,11,14)          -59.855          calculate D2E/DX2 analytically  !
 ! D22   D(9,8,11,12)          -62.247          calculate D2E/DX2 analytically  !
 ! D23   D(9,8,11,13)           57.898          calculate D2E/DX2 analytically  !
 ! D24   D(9,8,11,14)          178.043          calculate D2E/DX2 analytically  !
 ! D25   D(10,8,11,12)        -178.0429         calculate D2E/DX2 analytically  !
 ! D26   D(10,8,11,13)         -57.898          calculate D2E/DX2 analytically  !
 ! D27   D(10,8,11,14)          62.247          calculate D2E/DX2 analytically  !
 --------------------------------------------------------------------------------
 Trust Radius=3.00D-01 FncErr=1.00D-07 GrdErr=1.00D-07
 Number of steps in this run=      2 maximum allowed number of steps=      2.
 GradGradGradGradGradGradGradGradGradGradGradGradGradGradGradGradGradGrad

 Leave Link  103 at Mon Aug 29 16:28:37 2022, MaxMem=   134217728 cpu:         0.0
 (Enter /home/emanuele/chem_software/gaussian//g09/l202.exe)
                          Input orientation:                          
 ---------------------------------------------------------------------
 Center     Atomic      Atomic             Coordinates (Angstroms)
 Number     Number       Type             X           Y           Z
 ---------------------------------------------------------------------
      1          6    20001001        1.956897   -0.120392    0.000000
      2          1    20001034        2.742005    0.637259    0.000000
      3          1    20001034        2.103753   -0.749379   -0.880760
      4          1    20001034        2.103753   -0.749379    0.880760
      5          6    20001001        0.566957    0.512915    0.000000
      6          1    20001034        0.461751    1.163403   -0.874026
      7          1    20001034        0.461751    1.163404    0.874026
      8          6    20001001       -0.566957   -0.512915    0.000000
      9          1    20001034       -0.461751   -1.163403   -0.874026
     10          1    20001034       -0.461751   -1.163404    0.874026
     11          6    20001001       -1.956897    0.120392    0.000000
     12          1    20001034       -2.103753    0.749379   -0.880760
     13          1    20001034       -2.742005   -0.637259    0.000000
     14          1    20001034       -2.103753    0.749379    0.880760
 ---------------------------------------------------------------------
                    Distance matrix (angstroms):
                    1          2          3          4          5
     1  C    0.000000
     2  H    1.091068   0.000000
     3  H    1.092213   1.762348   0.000000
     4  H    1.092213   1.762348   1.761520   0.000000
     5  C    1.527420   2.178599   2.175055   2.175055   0.000000
     6  H    2.155809   2.498061   2.520903   3.071511   1.094589
     7  H    2.155810   2.498061   3.071512   2.520904   1.094589
     8  C    2.554195   3.503160   2.822117   2.822117   1.529081
     9  H    2.775185   3.777613   2.598706   3.135682   2.152255
    10  H    2.775185   3.777613   3.135682   2.598706   2.152256
    11  C    3.921194   4.727244   4.245129   4.245129   2.554195
    12  H    4.245129   4.926427   4.466473   4.801285   2.822117
    13  H    4.727244   5.630165   4.926427   4.926427   3.503160
    14  H    4.245129   4.926427   4.801285   4.466473   2.822117
                    6          7          8          9         10
     6  H    0.000000
     7  H    1.748052   0.000000
     8  C    2.152255   2.152256   0.000000
     9  H    2.503374   3.053289   1.094589   0.000000
    10  H    3.053289   2.503376   1.094589   1.748052   0.000000
    11  C    2.775185   2.775185   1.527420   2.155809   2.155810
    12  H    2.598706   3.135682   2.175055   2.520903   3.071512
    13  H    3.777613   3.777613   2.178599   2.498061   2.498061
    14  H    3.135682   2.598706   2.175055   3.071511   2.520904
                   11         12         13         14
    11  C    0.000000
    12  H    1.092213   0.000000
    13  H    1.091068   1.762348   0.000000
    14  H    1.092213   1.761520   1.762348   0.000000
 Symmetry turned off by external request.
 Stoichiometry    C4H10
 Framework group  C2H[SGH(C4H2),X(H8)]
 Deg. of freedom    11
 Full point group                 C2H     NOp   4
 Rotational constants (GHZ):     23.6116437      3.6179190      3.3991534
 Leave Link  202 at Mon Aug 29 16:28:37 2022, MaxMem=   134217728 cpu:         0.0
 (Enter /home/emanuele/chem_software/gaussian//g09/l301.exe)
 Standard basis: Dummy (5D, 7F)
    14 basis functions,    14 primitive gaussians,    14 cartesian basis functions
     9 alpha electrons        9 beta electrons
       nuclear repulsion energy        36.5440151950 Hartrees.
 IExCor=    0 DFT=F Ex=HF Corr=None ExCW=0 ScaHFX=  1.000000
 ScaDFX=  1.000000  1.000000  1.000000  1.000000 ScalE2=  1.000000  1.000000
 IRadAn=      0 IRanWt=     -1 IRanGd=            0 ICorTp=0 IEmpDi=  4
 NAtoms=   14 NActive=   14 NUniq=   14 SFac= 1.00D+00 NAtFMM=   60 NAOKFM=F Big=F
 Integral buffers will be    131072 words long.
 Raffenetti 1 integral format.
 Two-electron integral symmetry is turned off.
 Leave Link  301 at Mon Aug 29 16:28:37 2022, MaxMem=   134217728 cpu:         0.0
 (Enter /home/emanuele/chem_software/gaussian//g09/l402.exe)
 AMBER calculation of energy, first and second derivatives.
 ****************************
 MOLECULAR MECHANICS FUNCTION
 ****************************
 Molecular mechanics terms:
 NBDir 3 1      0      0
 HrmStr1  1- 2    1.00 1.0930
 HrmStr1  1- 3    1.00 1.0930
 HrmStr1  1- 4    1.00 1.0930
 HrmStr1  1- 5    1.00 1.5280
 HrmStr1  5- 6    1.00 1.0930
 HrmStr1  5- 7    1.00 1.0930
 HrmStr1  5- 8    1.00 1.5280
 HrmStr1  8- 9    1.00 1.0930
 HrmStr1  8-10    1.00 1.0930
 HrmStr1  8-11    1.00 1.5280
 HrmStr1 11-12    1.00 1.0930
 HrmStr1 11-13    1.00 1.0930
 HrmStr1 11-14    1.00 1.0930
 HrmBnd1  1- 5- 6   1.00 110.16
 HrmBnd1  1- 5- 7   1.00 110.16
 HrmBnd1  1- 5- 8   1.00 113.37
 HrmBnd1  2- 1- 3   1.00 107.19
 HrmBnd1  2- 1- 4   1.00 107.19
 HrmBnd1  5- 1- 2   1.00 110.16
 HrmBnd1  3- 1- 4   1.00 107.19
 HrmBnd1  5- 1- 3   1.00 110.16
 HrmBnd1  5- 1- 4   1.00 110.16
 HrmBnd1  5- 8- 9   1.00 110.16
 HrmBnd1  5- 8-10   1.00 110.16
 HrmBnd1  5- 8-11   1.00 113.37
 HrmBnd1  6- 5- 7   1.00 107.19
 HrmBnd1  8- 5- 6   1.00 110.16
 HrmBnd1  8- 5- 7   1.00 110.16
 HrmBnd1  8-11-12   1.00 110.16
 HrmBnd1  8-11-13   1.00 110.16
 HrmBnd1  8-11-14   1.00 110.16
 HrmBnd1  9- 8-10   1.00 107.19
 HrmBnd1 11- 8- 9   1.00 110.16
 HrmBnd1 11- 8-10   1.00 110.16
 HrmBnd1 12-11-13   1.00 107.19
 HrmBnd1 12-11-14   1.00 107.19
 HrmBnd1 13-11-14   1.00 107.19
 NBPair  2- 1 3 1      0      0 -1.000 -1.000
 NBPair  3- 2 3 1      0      0 -1.000 -1.000
 NBPair  4- 2 3 1      0      0 -1.000 -1.000
 NBPair  5- 2 3 1      0      0 -1.000 -1.000
 NBPair  3- 1 3 1      0      0 -1.000 -1.000
 NBPair  4- 3 3 1      0      0 -1.000 -1.000
 NBPair  5- 3 3 1      0      0 -1.000 -1.000
 NBPair  4- 1 3 1      0      0 -1.000 -1.000
 NBPair  5- 4 3 1      0      0 -1.000 -1.000
 NBPair  5- 1 3 1      0      0 -1.000 -1.000
 NBPair  6- 2 3 1      0      0 -0.500 -0.167
 NBPair  7- 2 3 1      0      0 -0.500 -0.167
 NBPair  8- 2 3 1      0      0 -0.500 -0.167
 NBPair  6- 3 3 1      0      0 -0.500 -0.167
 NBPair  7- 3 3 1      0      0 -0.500 -0.167
 NBPair  8- 3 3 1      0      0 -0.500 -0.167
 NBPair  6- 4 3 1      0      0 -0.500 -0.167
 NBPair  7- 4 3 1      0      0 -0.500 -0.167
 NBPair  8- 4 3 1      0      0 -0.500 -0.167
 NBPair  6- 1 3 1      0      0 -1.000 -1.000
 NBPair  7- 1 3 1      0      0 -1.000 -1.000
 NBPair  8- 1 3 1      0      0 -1.000 -1.000
 NBPair  6- 5 3 1      0      0 -1.000 -1.000
 NBPair  7- 6 3 1      0      0 -1.000 -1.000
 NBPair  8- 6 3 1      0      0 -1.000 -1.000
 NBPair  7- 5 3 1      0      0 -1.000 -1.000
 NBPair  8- 7 3 1      0      0 -1.000 -1.000
 NBPair  8- 5 3 1      0      0 -1.000 -1.000
 NBPair  9- 1 3 1      0      0 -0.500 -0.167
 NBPair 10- 1 3 1      0      0 -0.500 -0.167
 NBPair 11- 1 3 1      0      0 -0.500 -0.167
 NBPair  9- 6 3 1      0      0 -0.500 -0.167
 NBPair 10- 6 3 1      0      0 -0.500 -0.167
 NBPair 11- 6 3 1      0      0 -0.500 -0.167
 NBPair  9- 7 3 1      0      0 -0.500 -0.167
 NBPair 10- 7 3 1      0      0 -0.500 -0.167
 NBPair 11- 7 3 1      0      0 -0.500 -0.167
 NBPair  9- 5 3 1      0      0 -1.000 -1.000
 NBPair 10- 5 3 1      0      0 -1.000 -1.000
 NBPair 11- 5 3 1      0      0 -1.000 -1.000
 NBPair  9- 8 3 1      0      0 -1.000 -1.000
 NBPair 10- 9 3 1      0      0 -1.000 -1.000
 NBPair 11- 9 3 1      0      0 -1.000 -1.000
 NBPair 10- 8 3 1      0      0 -1.000 -1.000
 NBPair 11-10 3 1      0      0 -1.000 -1.000
 NBPair 11- 8 3 1      0      0 -1.000 -1.000
 NBPair 12- 5 3 1      0      0 -0.500 -0.167
 NBPair 13- 5 3 1      0      0 -0.500 -0.167
 NBPair 14- 5 3 1      0      0 -0.500 -0.167
 NBPair 12- 9 3 1      0      0 -0.500 -0.167
 NBPair 13- 9 3 1      0      0 -0.500 -0.167
 NBPair 14- 9 3 1      0      0 -0.500 -0.167
 NBPair 12-10 3 1      0      0 -0.500 -0.167
 NBPair 13-10 3 1      0      0 -0.500 -0.167
 NBPair 14-10 3 1      0      0 -0.500 -0.167
 NBPair 12- 8 3 1      0      0 -1.000 -1.000
 NBPair 13- 8 3 1      0      0 -1.000 -1.000
 NBPair 14- 8 3 1      0      0 -1.000 -1.000
 NBPair 12-11 3 1      0      0 -1.000 -1.000
 NBPair 13-12 3 1      0      0 -1.000 -1.000
 NBPair 14-12 3 1      0      0 -1.000 -1.000
 NBPair 13-11 3 1      0      0 -1.000 -1.000
 NBPair 14-13 3 1      0      0 -1.000 -1.000
 NBPair 14-11 3 1      0      0 -1.000 -1.000
 Energy per function type:
 Direct Coulomb + vdW (small)                           0.000000000
 Direct Coulomb (large)                                 0.000000000
 Direct vdW (large)                                     0.000000000
 Non-direct Coulomb + vdW (small)                       0.000000000
 Non-direct Coulomb (large)                             0.000000000
 Non-direct vdW (large)                                 0.000000000
 Harmonic stretch I                                     0.000000035
 Harmonic bend I                                        0.000008685
 Energy per function class:
        Coulomb               0.000000000
    Vanderwaals               0.000000000
     Stretching               0.000000035
        Bending               0.000008685
 Energy=    8.719919662E-06 NIter=   0.
 Dipole moment=       0.000000       0.000000       0.000000
 Leave Link  402 at Mon Aug 29 16:28:37 2022, MaxMem=   134217728 cpu:         0.0
 (Enter /home/emanuele/chem_software/gaussian//g09/l716.exe)
 Dipole        = 0.00000000D+00 0.00000000D+00 0.00000000D+00
 Full mass-weighted force constant matrix:
 Low frequencies ---  -10.9311  -10.9310   -5.7687    0.0000    0.0000    0.0000
 Low frequencies ---    1.6682    1.9633    2.1917
 ******    2 imaginary frequencies (negative Signs) ****** 
 Diagonal vibrational polarizability:
        0.0000000       0.0000000       0.0000000
 Harmonic frequencies (cm**-1), IR intensities (KM/Mole), Raman scattering
 activities (A**4/AMU), depolarization ratios for plane and unpolarized
 incident light, reduced masses (AMU), force constants (mDyne/A),
 and normal coordinates:
                      1                      2                      3
                      A                      A                      A
 Frequencies --    -10.9311                -9.6057                 1.6682
 Red. masses --      1.0112                 1.1198                 2.0512
 Frc consts  --      0.0001                 0.0001                 0.0000
 IR Inten    --      0.0000                 0.0000                 0.0000
  Atom  AN      X      Y      Z        X      Y      Z        X      Y      Z
     1   6     0.00   0.00  -0.01     0.00   0.00   0.00     0.00   0.00   0.15
     2   1     0.00   0.00   0.39     0.00   0.00  -0.39     0.00   0.00   0.27
     3   1     0.14   0.33  -0.22    -0.17  -0.28   0.17     0.18  -0.04   0.20
     4   1    -0.14  -0.33  -0.22     0.17   0.28   0.17    -0.18   0.04   0.20
     5   6     0.00   0.00   0.01     0.00   0.00   0.07     0.00   0.00  -0.16
     6   1    -0.01   0.01   0.02     0.01   0.11   0.15     0.13  -0.14  -0.28
     7   1     0.01  -0.01   0.02    -0.01  -0.11   0.15    -0.13   0.14  -0.28
     8   6     0.00   0.00   0.01     0.00   0.00  -0.07     0.00   0.00  -0.16
     9   1     0.01  -0.01   0.02     0.01   0.11  -0.15    -0.13   0.14  -0.28
    10   1    -0.01   0.01   0.02    -0.01  -0.11  -0.15     0.13  -0.14  -0.28
    11   6     0.00   0.00  -0.01     0.00   0.00   0.00     0.00   0.00   0.15
    12   1    -0.14  -0.33  -0.22    -0.17  -0.28  -0.17    -0.18   0.04   0.20
    13   1     0.00   0.00   0.39     0.00   0.00   0.39     0.00   0.00   0.27
    14   1     0.14   0.33  -0.22     0.17   0.28  -0.17     0.18  -0.04   0.20
                      4                      5                      6
                      A                      A                      A
 Frequencies --     31.8306                36.7587                56.6017
 Red. masses --      3.5969                 2.3926                 3.7920
 Frc consts  --      0.0021                 0.0019                 0.0072
 IR Inten    --      0.0000                 0.0000                 0.0000
  Atom  AN      X      Y      Z        X      Y      Z        X      Y      Z
     1   6     0.32   0.00   0.00     0.08   0.14   0.00    -0.21   0.11   0.00
     2   1     0.30   0.03   0.00    -0.11   0.35   0.00    -0.25   0.13   0.00
     3   1     0.35   0.00   0.00     0.24   0.19   0.00    -0.22   0.13   0.01
     4   1     0.35   0.00   0.00     0.24   0.19   0.00    -0.22   0.13  -0.01
     5   6     0.13   0.03   0.00    -0.08  -0.17   0.00     0.23  -0.12   0.00
     6   1     0.14   0.04   0.01    -0.16  -0.17   0.02     0.25  -0.13   0.01
     7   1     0.14   0.04  -0.01    -0.16  -0.17  -0.02     0.25  -0.13  -0.01
     8   6    -0.13  -0.03   0.00    -0.08  -0.17   0.00     0.23  -0.12   0.00
     9   1    -0.14  -0.04   0.01    -0.16  -0.17  -0.02     0.25  -0.13  -0.01
    10   1    -0.14  -0.04  -0.01    -0.16  -0.17   0.02     0.25  -0.13   0.01
    11   6    -0.32   0.00   0.00     0.08   0.14   0.00    -0.21   0.11   0.00
    12   1    -0.35   0.00   0.00     0.24   0.19   0.00    -0.22   0.13  -0.01
    13   1    -0.30  -0.03   0.00    -0.11   0.35   0.00    -0.25   0.13   0.00
    14   1    -0.35   0.00   0.00     0.24   0.19   0.00    -0.22   0.13   0.01
                      7                      8                      9
                      A                      A                      A
 Frequencies --     60.7359                84.2472               101.2499
 Red. masses --      3.0483                 2.6693                 1.1017
 Frc consts  --      0.0066                 0.0112                 0.0067
 IR Inten    --      0.0000                 0.0000                 0.0000
  Atom  AN      X      Y      Z        X      Y      Z        X      Y      Z
     1   6    -0.10   0.07   0.00     0.03  -0.06   0.00     0.00   0.00   0.01
     2   1     0.01  -0.04   0.00     0.24  -0.28   0.00     0.00   0.00   0.09
     3   1    -0.21   0.06   0.01    -0.14  -0.13   0.00     0.11  -0.06   0.08
     4   1    -0.21   0.06  -0.01    -0.14  -0.13   0.00    -0.11   0.06   0.08
     5   6     0.25   0.12   0.00    -0.09   0.25   0.00     0.00   0.00  -0.06
     6   1     0.36   0.15  -0.01    -0.19   0.26  -0.07    -0.03   0.43   0.20
     7   1     0.36   0.15   0.01    -0.19   0.26   0.07     0.03  -0.43   0.20
     8   6    -0.25  -0.12   0.00     0.09  -0.25   0.00     0.00   0.00  -0.06
     9   1    -0.36  -0.15  -0.01     0.19  -0.26  -0.07     0.03  -0.43   0.20
    10   1    -0.36  -0.15   0.01     0.19  -0.26   0.07    -0.03   0.43   0.20
    11   6     0.10  -0.07   0.00    -0.03   0.06   0.00     0.00   0.00   0.01
    12   1     0.21  -0.06   0.01     0.14   0.13   0.00    -0.11   0.06   0.08
    13   1    -0.01   0.04   0.00    -0.24   0.28   0.00     0.00   0.00   0.09
    14   1     0.21  -0.06  -0.01     0.14   0.13   0.00     0.11  -0.06   0.08
                     10                     11                     12
                      A                      A                      A
 Frequencies --    118.1802               139.6478               139.8473
 Red. masses --      1.1905                 1.0842                 1.0836
 Frc consts  --      0.0098                 0.0125                 0.0125
 IR Inten    --      0.0000                 0.0000                 0.0000
  Atom  AN      X      Y      Z        X      Y      Z        X      Y      Z
     1   6     0.00   0.00   0.02     0.00   0.00  -0.05     0.02   0.05   0.00
     2   1     0.00   0.00  -0.15     0.00   0.00   0.20     0.52  -0.07   0.00
     3   1    -0.22   0.14  -0.09     0.32  -0.31  -0.06    -0.27   0.00   0.15
     4   1     0.22  -0.14  -0.09    -0.32   0.31  -0.06    -0.27   0.00  -0.15
     5   6     0.00   0.00   0.09     0.00   0.00   0.03    -0.01  -0.03   0.00
     6   1     0.13  -0.38  -0.06    -0.06  -0.14   0.08    -0.06  -0.09   0.06
     7   1    -0.13   0.38  -0.06     0.06   0.14   0.08    -0.06  -0.09  -0.06
     8   6     0.00   0.00  -0.09     0.00   0.00   0.03    -0.01  -0.03   0.00
     9   1     0.13  -0.38   0.06     0.06   0.14   0.08    -0.06  -0.09  -0.06
    10   1    -0.13   0.38   0.06    -0.06  -0.14   0.08    -0.06  -0.09   0.06
    11   6     0.00   0.00  -0.02     0.00   0.00  -0.05     0.02   0.05   0.00
    12   1    -0.22   0.14   0.09    -0.32   0.31  -0.06    -0.27   0.00  -0.15
    13   1     0.00   0.00   0.15     0.00   0.00   0.20     0.52  -0.07   0.00
    14   1     0.22  -0.14   0.09     0.32  -0.31  -0.06    -0.27   0.00   0.15
                     13                     14                     15
                      A                      A                      A
 Frequencies --    141.1190               142.1573               154.8536
 Red. masses --      1.0952                 1.0884                 1.0235
 Frc consts  --      0.0129                 0.0130                 0.0145
 IR Inten    --      0.0000                 0.0000                 0.0000
  Atom  AN      X      Y      Z        X      Y      Z        X      Y      Z
     1   6     0.02   0.04   0.00     0.00   0.00   0.04    -0.02   0.01   0.00
     2   1     0.51  -0.04   0.00     0.00   0.00  -0.16     0.25   0.32   0.00
     3   1    -0.26   0.01   0.15    -0.27   0.28   0.09     0.01  -0.22  -0.35
     4   1    -0.26   0.01  -0.15     0.27  -0.28   0.09     0.01  -0.22   0.35
     5   6     0.00  -0.04   0.00     0.00   0.00  -0.04     0.00   0.00   0.00
     6   1    -0.03  -0.13   0.10    -0.04   0.23  -0.14     0.01  -0.01   0.02
     7   1    -0.03  -0.13  -0.10     0.04  -0.23  -0.14     0.01  -0.01  -0.02
     8   6     0.00   0.04   0.00     0.00   0.00   0.04     0.00   0.00   0.00
     9   1     0.03   0.13   0.10    -0.04   0.23   0.14     0.01  -0.01  -0.02
    10   1     0.03   0.13  -0.10     0.04  -0.23   0.14     0.01  -0.01   0.02
    11   6    -0.02  -0.04   0.00     0.00   0.00  -0.04    -0.02   0.01   0.00
    12   1     0.26  -0.01   0.15    -0.27   0.28  -0.09     0.01  -0.22   0.35
    13   1    -0.51   0.04   0.00     0.00   0.00   0.16     0.25   0.32   0.00
    14   1     0.26  -0.01  -0.15     0.27  -0.28  -0.09     0.01  -0.22  -0.35
                     16                     17                     18
                      A                      A                      A
 Frequencies --    154.8542               157.1230               158.4150
 Red. masses --      1.0235                 1.0518                 1.0781
 Frc consts  --      0.0145                 0.0153                 0.0159
 IR Inten    --      0.0000                 0.0000                 0.0000
  Atom  AN      X      Y      Z        X      Y      Z        X      Y      Z
     1   6     0.02  -0.01   0.00    -0.01  -0.01   0.00     0.01   0.02   0.00
     2   1    -0.25  -0.32   0.00     0.10   0.09   0.00    -0.17  -0.18   0.00
     3   1    -0.01   0.22   0.35    -0.02   0.01   0.04     0.02  -0.04  -0.10
     4   1    -0.01   0.22  -0.35    -0.02   0.01  -0.04     0.02  -0.04   0.10
     5   6     0.00   0.00   0.00     0.01  -0.04   0.00     0.00   0.05   0.00
     6   1    -0.01   0.01  -0.01    -0.06   0.23  -0.42     0.01  -0.21   0.40
     7   1    -0.01   0.01   0.01    -0.06   0.23   0.42     0.01  -0.21  -0.40
     8   6     0.00   0.00   0.00     0.01  -0.04   0.00     0.00  -0.05   0.00
     9   1     0.01  -0.01  -0.01    -0.06   0.23   0.42    -0.01   0.21   0.40
    10   1     0.01  -0.01   0.01    -0.06   0.23  -0.42    -0.01   0.21  -0.40
    11   6    -0.02   0.01   0.00    -0.01  -0.01   0.00    -0.01  -0.02   0.00
    12   1     0.01  -0.22   0.35    -0.02   0.01  -0.04    -0.02   0.04  -0.10
    13   1     0.25   0.32   0.00     0.10   0.09   0.00     0.17   0.18   0.00
    14   1     0.01  -0.22  -0.35    -0.02   0.01   0.04    -0.02   0.04   0.10
                     19                     20                     21
                      A                      A                      A
 Frequencies --    160.7624               160.9871               164.4811
 Red. masses --      1.0810                 1.1017                 1.1158
 Frc consts  --      0.0165                 0.0168                 0.0178
 IR Inten    --      0.0000                 0.0000                 0.0000
  Atom  AN      X      Y      Z        X      Y      Z        X      Y      Z
     1   6     0.00   0.00  -0.04     0.00   0.00   0.03     0.00   0.00   0.07
     2   1     0.00   0.00  -0.01     0.00   0.00   0.04     0.00   0.00  -0.04
     3   1     0.03   0.19   0.30     0.00  -0.13  -0.16    -0.10  -0.15  -0.35
     4   1    -0.03  -0.19   0.30     0.00   0.13  -0.16     0.10   0.15  -0.35
     5   6     0.00   0.00  -0.04     0.00   0.00   0.06     0.00   0.00  -0.02
     6   1    -0.15  -0.18   0.26    -0.13   0.22  -0.37     0.29   0.01   0.11
     7   1     0.15   0.18   0.26     0.13  -0.22  -0.37    -0.29  -0.01   0.11
     8   6     0.00   0.00   0.04     0.00   0.00   0.06     0.00   0.00  -0.02
     9   1    -0.15  -0.18  -0.26     0.13  -0.22  -0.37    -0.29  -0.01   0.11
    10   1     0.15   0.18  -0.26    -0.13   0.22  -0.37     0.29   0.01   0.11
    11   6     0.00   0.00   0.04     0.00   0.00   0.03     0.00   0.00   0.07
    12   1     0.03   0.19  -0.30     0.00   0.13  -0.16     0.10   0.15  -0.35
    13   1     0.00   0.00   0.01     0.00   0.00   0.04     0.00   0.00  -0.04
    14   1    -0.03  -0.19  -0.30     0.00  -0.13  -0.16    -0.10  -0.15  -0.35
                     22                     23                     24
                      A                      A                      A
 Frequencies --    166.7970               169.3876               176.3895
 Red. masses --      1.2199                 1.3247                 1.4299
 Frc consts  --      0.0200                 0.0224                 0.0262
 IR Inten    --      0.0000                 0.0000                 0.0000
  Atom  AN      X      Y      Z        X      Y      Z        X      Y      Z
     1   6     0.04   0.09   0.00     0.04   0.10   0.00     0.00   0.00   0.10
     2   1    -0.18  -0.51   0.00    -0.13  -0.51   0.00     0.00   0.00  -0.04
     3   1    -0.09  -0.13  -0.22    -0.12  -0.12  -0.21    -0.17  -0.08  -0.29
     4   1    -0.09  -0.13   0.22    -0.12  -0.12   0.21     0.17   0.08  -0.29
     5   6     0.01  -0.02   0.00     0.01  -0.06   0.00     0.00   0.00  -0.09
     6   1    -0.13   0.00  -0.07    -0.07   0.02  -0.17    -0.22  -0.08   0.26
     7   1    -0.13   0.00   0.07    -0.07   0.02   0.17     0.22   0.08   0.26
     8   6     0.01  -0.02   0.00    -0.01   0.06   0.00     0.00   0.00   0.09
     9   1    -0.13   0.00   0.07     0.07  -0.02  -0.17    -0.22  -0.08  -0.26
    10   1    -0.13   0.00  -0.07     0.07  -0.02   0.17     0.22   0.08  -0.26
    11   6     0.04   0.09   0.00    -0.04  -0.10   0.00     0.00   0.00  -0.10
    12   1    -0.09  -0.13   0.22     0.12   0.12  -0.21    -0.17  -0.08   0.29
    13   1    -0.18  -0.51   0.00     0.13   0.51   0.00     0.00   0.00   0.04
    14   1    -0.09  -0.13  -0.22     0.12   0.12   0.21     0.17   0.08   0.29
                     25                     26                     27
                      A                      A                      A
 Frequencies --    180.1349               183.8337               198.2339
 Red. masses --      1.1860                 1.2183                 1.2728
 Frc consts  --      0.0227                 0.0243                 0.0295
 IR Inten    --      0.0000                 0.0000                 0.0000
  Atom  AN      X      Y      Z        X      Y      Z        X      Y      Z
     1   6     0.00   0.00   0.00     0.00   0.00  -0.07     0.02   0.04   0.00
     2   1     0.00   0.00   0.07     0.00   0.00   0.01     0.03  -0.12   0.00
     3   1     0.01  -0.04   0.02     0.11   0.04   0.15    -0.03  -0.01  -0.03
     4   1    -0.01   0.04   0.02    -0.11  -0.04   0.15    -0.03  -0.01   0.03
     5   6     0.00   0.00   0.09     0.00   0.00   0.07    -0.10  -0.04   0.00
     6   1    -0.45  -0.03  -0.19     0.42   0.11  -0.13     0.48   0.06  -0.04
     7   1     0.45   0.03  -0.19    -0.42  -0.11  -0.13     0.48   0.06   0.04
     8   6     0.00   0.00  -0.09     0.00   0.00   0.07    -0.10  -0.04   0.00
     9   1    -0.45  -0.03   0.19    -0.42  -0.11  -0.13     0.48   0.06   0.04
    10   1     0.45   0.03   0.19     0.42   0.11  -0.13     0.48   0.06  -0.04
    11   6     0.00   0.00   0.00     0.00   0.00  -0.07     0.02   0.04   0.00
    12   1     0.01  -0.04  -0.02    -0.11  -0.04   0.15    -0.03  -0.01   0.03
    13   1     0.00   0.00  -0.07     0.00   0.00   0.01     0.03  -0.12   0.00
    14   1    -0.01   0.04  -0.02     0.11   0.04   0.15    -0.03  -0.01  -0.03
                     28                     29                     30
                      A                      A                      A
 Frequencies --    206.6703               226.3444               226.3807
 Red. masses --      1.3771                 1.2168                 1.2304
 Frc consts  --      0.0347                 0.0367                 0.0372
 IR Inten    --      0.0000                 0.0000                 0.0000
  Atom  AN      X      Y      Z        X      Y      Z        X      Y      Z
     1   6     0.01   0.03   0.00    -0.09   0.04   0.00     0.09  -0.04   0.00
     2   1     0.04  -0.09   0.00     0.28  -0.26   0.00    -0.29   0.26   0.00
     3   1    -0.01  -0.01  -0.02     0.36  -0.09   0.09    -0.37   0.12  -0.11
     4   1    -0.01  -0.01   0.02     0.36  -0.09  -0.09    -0.37   0.12   0.11
     5   6    -0.13  -0.01   0.00     0.00   0.02   0.00     0.00  -0.01   0.00
     6   1     0.47   0.11   0.03     0.01  -0.13  -0.09     0.00   0.04   0.03
     7   1     0.47   0.11  -0.03     0.01  -0.13   0.09     0.00   0.04  -0.03
     8   6     0.13   0.01   0.00     0.00  -0.02   0.00     0.00  -0.01   0.00
     9   1    -0.47  -0.11   0.03    -0.01   0.13  -0.09     0.00   0.04  -0.03
    10   1    -0.47  -0.11  -0.03    -0.01   0.13   0.09     0.00   0.04   0.03
    11   6    -0.01  -0.03   0.00     0.09  -0.04   0.00     0.09  -0.04   0.00
    12   1     0.01   0.01  -0.02    -0.36   0.09   0.09    -0.37   0.12   0.11
    13   1    -0.04   0.09   0.00    -0.28   0.26   0.00    -0.29   0.26   0.00
    14   1     0.01   0.01   0.02    -0.36   0.09  -0.09    -0.37   0.12  -0.11
                     31                     32                     33
                      A                      A                      A
 Frequencies --    227.2278               228.3825               231.4809
 Red. masses --      1.1164                 1.0940                 1.0638
 Frc consts  --      0.0340                 0.0336                 0.0336
 IR Inten    --      0.0000                 0.0000                 0.0000
  Atom  AN      X      Y      Z        X      Y      Z        X      Y      Z
     1   6    -0.02   0.03   0.00     0.00  -0.02   0.00     0.00   0.00   0.05
     2   1     0.02  -0.03   0.00     0.07  -0.05   0.00     0.00   0.00  -0.51
     3   1     0.08  -0.17   0.12     0.00   0.20  -0.13     0.31   0.13  -0.08
     4   1     0.08  -0.17  -0.12     0.00   0.20   0.13    -0.31  -0.13  -0.08
     5   6     0.02  -0.06   0.00    -0.01   0.06   0.00     0.00   0.00   0.01
     6   1    -0.09   0.36   0.25     0.04  -0.36  -0.24    -0.02   0.00   0.00
     7   1    -0.09   0.36  -0.25     0.04  -0.36   0.24     0.02   0.00   0.00
     8   6    -0.02   0.06   0.00    -0.01   0.06   0.00     0.00   0.00   0.01
     9   1     0.09  -0.36   0.25     0.04  -0.36   0.24     0.02   0.00   0.00
    10   1     0.09  -0.36  -0.25     0.04  -0.36  -0.24    -0.02   0.00   0.00
    11   6     0.02  -0.03   0.00     0.00  -0.02   0.00     0.00   0.00   0.05
    12   1    -0.08   0.17   0.12     0.00   0.20   0.13    -0.31  -0.13  -0.08
    13   1    -0.02   0.03   0.00     0.07  -0.05   0.00     0.00   0.00  -0.51
    14   1    -0.08   0.17  -0.12     0.00   0.20  -0.13     0.31   0.13  -0.08
                     34                     35                     36
                      A                      A                      A
 Frequencies --    231.5528               231.8724               232.2308
 Red. masses --      1.0647                 1.0733                 1.0814
 Frc consts  --      0.0336                 0.0340                 0.0344
 IR Inten    --      0.0000                 0.0000                 0.0000
  Atom  AN      X      Y      Z        X      Y      Z        X      Y      Z
     1   6     0.00   0.00  -0.05    -0.03  -0.04   0.00     0.03   0.04   0.00
     2   1     0.00   0.00   0.51     0.22  -0.18   0.00    -0.21   0.17   0.00
     3   1    -0.31  -0.13   0.08     0.06   0.36  -0.23    -0.05  -0.33   0.21
     4   1     0.31   0.13   0.08     0.06   0.36   0.23    -0.05  -0.33  -0.21
     5   6     0.00   0.00  -0.01     0.00  -0.03   0.00     0.00   0.04   0.00
     6   1     0.03   0.00   0.00    -0.04   0.13   0.09     0.03  -0.19  -0.12
     7   1    -0.03   0.00   0.00    -0.04   0.13  -0.09     0.03  -0.19   0.12
     8   6     0.00   0.00   0.01     0.00   0.03   0.00     0.00   0.04   0.00
     9   1     0.03   0.00   0.00     0.04  -0.13   0.09     0.03  -0.19   0.12
    10   1    -0.03   0.00   0.00     0.04  -0.13  -0.09     0.03  -0.19  -0.12
    11   6     0.00   0.00   0.05     0.03   0.04   0.00     0.03   0.04   0.00
    12   1    -0.31  -0.13  -0.08    -0.06  -0.36  -0.23    -0.05  -0.33  -0.21
    13   1     0.00   0.00  -0.51    -0.22   0.18   0.00    -0.21   0.17   0.00
    14   1     0.31   0.13  -0.08    -0.06  -0.36   0.23    -0.05  -0.33   0.21

 -------------------
 - Thermochemistry -
 -------------------
 Temperature   298.150 Kelvin.  Pressure   1.00000 Atm.
 Atom     1 has atomic number  6 and mass  12.00000
 Atom     2 has atomic number  1 and mass   1.00783
 Atom     3 has atomic number  1 and mass   1.00783
 Atom     4 has atomic number  1 and mass   1.00783
 Atom     5 has atomic number  6 and mass  12.00000
 Atom     6 has atomic number  1 and mass   1.00783
 Atom     7 has atomic number  1 and mass   1.00783
 Atom     8 has atomic number  6 and mass  12.00000
 Atom     9 has atomic number  1 and mass   1.00783
 Atom    10 has atomic number  1 and mass   1.00783
 Atom    11 has atomic number  6 and mass  12.00000
 Atom    12 has atomic number  1 and mass   1.00783
 Atom    13 has atomic number  1 and mass   1.00783
 Atom    14 has atomic number  1 and mass   1.00783
 Molecular mass:    58.07825 amu.
 Principal axes and moments of inertia in atomic units:
                           1         2         3
     Eigenvalues --    76.43437 498.83406 530.93845
           X            0.99998  -0.00556   0.00000
           Y            0.00556   0.99998   0.00000
           Z            0.00000   0.00000   1.00000
 This molecule is an asymmetric top.
 Rotational symmetry number  2.
 Rotational temperatures (Kelvin)      1.13318     0.17363     0.16313
 Rotational constants (GHZ):          23.61164     3.61792     3.39915
    2 imaginary frequencies ignored.
 Zero-point vibrational energy      31596.0 (Joules/Mol)
                                    7.55163 (Kcal/Mol)
 Warning -- explicit consideration of  34 degrees of freedom as
           vibrations may cause significant error
 Vibrational temperatures:      2.40    45.80    52.89    81.44    87.39
          (Kelvin)            121.21   145.68   170.03   200.92   201.21
                              203.04   204.53   222.80   222.80   226.06
                              227.92   231.30   231.62   236.65   239.98
                              243.71   253.78   259.17   264.50   285.21
                              297.35   325.66   325.71   326.93   328.59
                              333.05   333.15   333.61   334.13
 
 Zero-point correction=                           0.012034 (Hartree/Particle)
 Thermal correction to Energy=                    0.036656
 Thermal correction to Enthalpy=                  0.037600
 Thermal correction to Gibbs Free Energy=        -0.040141
 Sum of electronic and zero-point Energies=              0.012043
 Sum of electronic and thermal Energies=                 0.036665
 Sum of electronic and thermal Enthalpies=               0.037609
 Sum of electronic and thermal Free Energies=           -0.040132
 
                     E (Thermal)             CV                S
                      KCal/Mol        Cal/Mol-Kelvin    Cal/Mol-Kelvin
 Total                   23.002             70.009            163.620
 Electronic               0.000              0.000              0.000
 Translational            0.889              2.981             38.098
 Rotational               0.889              2.981             23.141
 Vibrational             21.225             64.047            102.380
 Vibration     1          0.592              1.987             11.570
 Vibration     2          0.594              1.983              5.712
 Vibration     3          0.594              1.982              5.427
 Vibration     4          0.596              1.975              4.572
 Vibration     5          0.597              1.973              4.433
 Vibration     6          0.601              1.960              3.789
 Vibration     7          0.604              1.948              3.430
 Vibration     8          0.608              1.934              3.130
 Vibration     9          0.615              1.914              2.809
 Vibration    10          0.615              1.913              2.806
 Vibration    11          0.615              1.912              2.789
 Vibration    12          0.616              1.911              2.775
 Vibration    13          0.620              1.897              2.612
 Vibration    14          0.620              1.897              2.612
 Vibration    15          0.621              1.895              2.584
 Vibration    16          0.621              1.893              2.569
 Vibration    17          0.622              1.890              2.541
 Vibration    18          0.622              1.890              2.538
 Vibration    19          0.623              1.886              2.498
 Vibration    20          0.624              1.883              2.471
 Vibration    21          0.625              1.880              2.442
 Vibration    22          0.628              1.871              2.366
 Vibration    23          0.629              1.867              2.327
 Vibration    24          0.631              1.862              2.289
 Vibration    25          0.637              1.842              2.149
 Vibration    26          0.641              1.830              2.073
 Vibration    27          0.650              1.801              1.908
 Vibration    28          0.650              1.801              1.907
 Vibration    29          0.651              1.800              1.901
 Vibration    30          0.651              1.798              1.892
 Vibration    31          0.653              1.793              1.867
 Vibration    32          0.653              1.793              1.867
 Vibration    33          0.653              1.792              1.864
 Vibration    34          0.653              1.792              1.862
                       Q            Log10(Q)             Ln(Q)
 Total Bot       0.290638D+19         18.463352         42.513438
 Total V=0       0.997069D+24         23.998725         55.259107
 Vib (Bot)       0.656017D+07          6.816915         15.696528
 Vib (Bot)    1  0.124222D+03          2.094197          4.822067
 Vib (Bot)    2  0.650384D+01          0.813170          1.872392
 Vib (Bot)    3  0.563006D+01          0.750513          1.728120
 Vib (Bot)    4  0.364975D+01          0.562263          1.294659
 Vib (Bot)    5  0.339972D+01          0.531443          1.223692
 Vib (Bot)    6  0.244287D+01          0.387900          0.893172
 Vib (Bot)    7  0.202645D+01          0.306736          0.706286
 Vib (Bot)    8  0.172993D+01          0.238027          0.548078
 Vib (Bot)    9  0.145620D+01          0.163221          0.375830
 Vib (Bot)   10  0.145404D+01          0.162578          0.374349
 Vib (Bot)   11  0.144044D+01          0.158497          0.364952
 Vib (Bot)   12  0.142952D+01          0.155190          0.357338
 Vib (Bot)   13  0.130756D+01          0.116462          0.268165
 Vib (Bot)   14  0.130756D+01          0.116461          0.268160
 Vib (Bot)   15  0.128780D+01          0.109848          0.252935
 Vib (Bot)   16  0.127680D+01          0.106121          0.244354
 Vib (Bot)   17  0.125725D+01          0.099421          0.228925
 Vib (Bot)   18  0.125541D+01          0.098784          0.227459
 Vib (Bot)   19  0.122740D+01          0.088985          0.204895
 Vib (Bot)   20  0.120946D+01          0.082593          0.190176
 Vib (Bot)   21  0.118997D+01          0.075536          0.173928
 Vib (Bot)   22  0.114008D+01          0.056937          0.131101
 Vib (Bot)   23  0.111495D+01          0.047255          0.108810
 Vib (Bot)   24  0.109111D+01          0.037868          0.087194
 Vib (Bot)   25  0.100654D+01          0.002829          0.006514
 Vib (Bot)   26  0.962303D+00         -0.016688         -0.038426
 Vib (Bot)   27  0.871554D+00         -0.059706         -0.137478
 Vib (Bot)   28  0.871400D+00         -0.059782         -0.137654
 Vib (Bot)   29  0.867834D+00         -0.061563         -0.141755
 Vib (Bot)   30  0.863014D+00         -0.063982         -0.147324
 Vib (Bot)   31  0.850310D+00         -0.070423         -0.162154
 Vib (Bot)   32  0.850019D+00         -0.070571         -0.162497
 Vib (Bot)   33  0.848728D+00         -0.071232         -0.164017
 Vib (Bot)   34  0.847284D+00         -0.071971         -0.165719
 Vib (V=0)       0.225055D+13         12.352289         28.442196
 Vib (V=0)    1  0.124723D+03          2.095945          4.826092
 Vib (V=0)    2  0.702303D+01          0.846524          1.949194
 Vib (V=0)    3  0.615222D+01          0.789032          1.816812
 Vib (V=0)    4  0.418384D+01          0.621575          1.431229
 Vib (V=0)    5  0.393629D+01          0.595087          1.370238
 Vib (V=0)    6  0.299351D+01          0.476181          1.096447
 Vib (V=0)    7  0.258722D+01          0.412834          0.950585
 Vib (V=0)    8  0.230073D+01          0.361866          0.833228
 Vib (V=0)    9  0.203965D+01          0.309555          0.712778
 Vib (V=0)   10  0.203761D+01          0.309121          0.711777
 Vib (V=0)   11  0.202476D+01          0.306373          0.705449
 Vib (V=0)   12  0.201444D+01          0.304154          0.700341
 Vib (V=0)   13  0.189990D+01          0.278731          0.641801
 Vib (V=0)   14  0.189989D+01          0.278730          0.641798
 Vib (V=0)   15  0.188146D+01          0.274495          0.632047
 Vib (V=0)   16  0.187121D+01          0.272122          0.626584
 Vib (V=0)   17  0.185302D+01          0.267881          0.616818
 Vib (V=0)   18  0.185131D+01          0.267480          0.615894
 Vib (V=0)   19  0.182533D+01          0.261342          0.601761
 Vib (V=0)   20  0.180874D+01          0.257376          0.592631
 Vib (V=0)   21  0.179075D+01          0.253034          0.582633
 Vib (V=0)   22  0.174491D+01          0.241772          0.556700
 Vib (V=0)   23  0.172193D+01          0.236016          0.543446
 Vib (V=0)   24  0.170022D+01          0.230504          0.530755
 Vib (V=0)   25  0.162388D+01          0.210555          0.484820
 Vib (V=0)   26  0.158445D+01          0.199878          0.460236
 Vib (V=0)   27  0.150479D+01          0.177476          0.408654
 Vib (V=0)   28  0.150466D+01          0.177438          0.408566
 Vib (V=0)   29  0.150157D+01          0.176545          0.406509
 Vib (V=0)   30  0.149739D+01          0.175336          0.403726
 Vib (V=0)   31  0.148642D+01          0.172142          0.396371
 Vib (V=0)   32  0.148617D+01          0.172069          0.396203
 Vib (V=0)   33  0.148506D+01          0.171743          0.395454
 Vib (V=0)   34  0.148381D+01          0.171380          0.394616
 Electronic      0.100000D+01          0.000000          0.000000
 Translational   0.173970D+08          7.240475         16.671811
 Rotational      0.254660D+05          4.405961         10.145100
                           ----------------------------
                           ! Normal Mode     1        !
 --------------------------                            --------------------------
 ! Name  Definition              Value          Relative Weight (%)             !
 --------------------------------------------------------------------------------
 ! D1    D(2,1,5,6)              0.21                    5.4                    !
 ! D2    D(2,1,5,7)              0.21                    5.4                    !
 ! D3    D(2,1,5,8)              0.2099                  5.4                    !
 ! D4    D(3,1,5,6)              0.2094                  5.4                    !
 ! D5    D(3,1,5,7)              0.2094                  5.4                    !
 ! D6    D(3,1,5,8)              0.2092                  5.4                    !
 ! D7    D(4,1,5,6)              0.2094                  5.4                    !
 ! D8    D(4,1,5,7)              0.2094                  5.4                    !
 ! D9    D(4,1,5,8)              0.2092                  5.4                    !
 ! D19   D(5,8,11,12)            0.2092                  5.4                    !
 ! D20   D(5,8,11,13)            0.2099                  5.4                    !
 ! D21   D(5,8,11,14)            0.2092                  5.4                    !
 ! D22   D(9,8,11,12)            0.2094                  5.4                    !
 ! D23   D(9,8,11,13)            0.21                    5.4                    !
 ! D24   D(9,8,11,14)            0.2094                  5.4                    !
 ! D25   D(10,8,11,12)           0.2094                  5.4                    !
 ! D26   D(10,8,11,13)           0.21                    5.4                    !
 ! D27   D(10,8,11,14)           0.2094                  5.4                    !
 --------------------------------------------------------------------------------
                           ----------------------------
                           ! Normal Mode     2        !
 --------------------------                            --------------------------
 ! Name  Definition              Value          Relative Weight (%)             !
 --------------------------------------------------------------------------------
 ! D1    D(2,1,5,6)             -0.2582                  5.5                    !
 ! D2    D(2,1,5,7)             -0.2582                  5.5                    !
 ! D3    D(2,1,5,8)             -0.2585                  5.6                    !
 ! D4    D(3,1,5,6)             -0.258                   5.5                    !
 ! D5    D(3,1,5,7)             -0.258                   5.5                    !
 ! D6    D(3,1,5,8)             -0.2583                  5.5                    !
 ! D7    D(4,1,5,6)             -0.258                   5.5                    !
 ! D8    D(4,1,5,7)             -0.258                   5.5                    !
 ! D9    D(4,1,5,8)             -0.2583                  5.5                    !
 ! D19   D(5,8,11,12)            0.2583                  5.5                    !
 ! D20   D(5,8,11,13)            0.2585                  5.6                    !
 ! D21   D(5,8,11,14)            0.2583                  5.5                    !
 ! D22   D(9,8,11,12)            0.258                   5.5                    !
 ! D23   D(9,8,11,13)            0.2582                  5.5                    !
 ! D24   D(9,8,11,14)            0.258                   5.5                    !
 ! D25   D(10,8,11,12)           0.258                   5.5                    !
 ! D26   D(10,8,11,13)           0.2582                  5.5                    !
 ! D27   D(10,8,11,14)           0.258                   5.5                    !
 --------------------------------------------------------------------------------
                           ----------------------------
                           ! Normal Mode     3        !
 --------------------------                            --------------------------
 ! Name  Definition              Value          Relative Weight (%)             !
 --------------------------------------------------------------------------------
 ! D1    D(2,1,5,6)              0.0686                  2.0                    !
 ! D2    D(2,1,5,7)              0.0686                  2.0                    !
 ! D3    D(2,1,5,8)              0.0695                  2.1                    !
 ! D4    D(3,1,5,6)              0.0697                  2.1                    !
 ! D5    D(3,1,5,7)              0.0697                  2.1                    !
 ! D6    D(3,1,5,8)              0.0705                  2.1                    !
 ! D7    D(4,1,5,6)              0.0697                  2.1                    !
 ! D8    D(4,1,5,7)              0.0697                  2.1                    !
 ! D9    D(4,1,5,8)              0.0705                  2.1                    !
 ! D10   D(1,5,8,9)             -0.2317                  6.9                    !
 ! D11   D(1,5,8,10)            -0.2317                  6.9                    !
 ! D12   D(1,5,8,11)            -0.2324                  6.9                    !
 ! D13   D(6,5,8,9)             -0.231                   6.9                    !
 ! D14   D(6,5,8,10)            -0.231                   6.9                    !
 ! D15   D(6,5,8,11)            -0.2317                  6.9                    !
 ! D16   D(7,5,8,9)             -0.231                   6.9                    !
 ! D17   D(7,5,8,10)            -0.231                   6.9                    !
 ! D18   D(7,5,8,11)            -0.2317                  6.9                    !
 ! D19   D(5,8,11,12)            0.0705                  2.1                    !
 ! D20   D(5,8,11,13)            0.0695                  2.1                    !
 ! D21   D(5,8,11,14)            0.0705                  2.1                    !
 ! D22   D(9,8,11,12)            0.0697                  2.1                    !
 ! D23   D(9,8,11,13)            0.0686                  2.0                    !
 ! D24   D(9,8,11,14)            0.0697                  2.1                    !
 ! D25   D(10,8,11,12)           0.0697                  2.1                    !
 ! D26   D(10,8,11,13)           0.0686                  2.0                    !
 ! D27   D(10,8,11,14)           0.0697                  2.1                    !
 --------------------------------------------------------------------------------
                           ----------------------------
                           ! Normal Mode     4        !
 --------------------------                            --------------------------
 ! Name  Definition              Value          Relative Weight (%)             !
 --------------------------------------------------------------------------------
 ! R1    R(1,2)                  0.0098                  0.8                    !
 ! R4    R(1,5)                  0.1886                 15.3                    !
 ! R7    R(5,8)                  0.2267                 18.4                    !
 ! R10   R(8,11)                 0.1886                 15.3                    !
 ! R12   R(11,13)                0.0098                  0.8                    !
 ! A7    A(1,5,6)               -0.0153                  1.2                    !
 ! A8    A(1,5,7)               -0.0153                  1.2                    !
 ! A9    A(1,5,8)                0.0602                  4.9                    !
 ! A10   A(6,5,7)               -0.012                   1.0                    !
 ! A11   A(6,5,8)               -0.0111                  0.9                    !
 ! A12   A(7,5,8)               -0.0111                  0.9                    !
 ! A13   A(5,8,9)               -0.0111                  0.9                    !
 ! A14   A(5,8,10)              -0.0111                  0.9                    !
 ! A15   A(5,8,11)               0.0602                  4.9                    !
 ! A16   A(9,8,10)              -0.012                   1.0                    !
 ! A17   A(9,8,11)              -0.0153                  1.2                    !
 ! A18   A(10,8,11)             -0.0153                  1.2                    !
 ! D1    D(2,1,5,6)             -0.0159                  1.3                    !
 ! D2    D(2,1,5,7)              0.0159                  1.3                    !
 ! D4    D(3,1,5,6)             -0.0131                  1.1                    !
 ! D5    D(3,1,5,7)              0.0186                  1.5                    !
 ! D7    D(4,1,5,6)             -0.0186                  1.5                    !
 ! D8    D(4,1,5,7)              0.0131                  1.1                    !
 ! D10   D(1,5,8,9)              0.0133                  1.1                    !
 ! D11   D(1,5,8,10)            -0.0133                  1.1                    !
 ! D13   D(6,5,8,9)              0.0265                  2.2                    !
 ! D15   D(6,5,8,11)             0.0133                  1.1                    !
 ! D17   D(7,5,8,10)            -0.0265                  2.2                    !
 ! D18   D(7,5,8,11)            -0.0133                  1.1                    !
 ! D22   D(9,8,11,12)           -0.0131                  1.1                    !
 ! D23   D(9,8,11,13)           -0.0159                  1.3                    !
 ! D24   D(9,8,11,14)           -0.0186                  1.5                    !
 ! D25   D(10,8,11,12)           0.0186                  1.5                    !
 ! D26   D(10,8,11,13)           0.0159                  1.3                    !
 ! D27   D(10,8,11,14)           0.0131                  1.1                    !
 --------------------------------------------------------------------------------
                           ----------------------------
                           ! Normal Mode     5        !
 --------------------------                            --------------------------
 ! Name  Definition              Value          Relative Weight (%)             !
 --------------------------------------------------------------------------------
 ! R4    R(1,5)                  0.0127                  1.0                    !
 ! R10   R(8,11)                -0.0127                  1.0                    !
 ! A3    A(2,1,5)               -0.0143                  1.1                    !
 ! A7    A(1,5,6)               -0.0246                  2.0                    !
 ! A8    A(1,5,7)               -0.0246                  2.0                    !
 ! A9    A(1,5,8)                0.1224                  9.8                    !
 ! A10   A(6,5,7)               -0.021                   1.7                    !
 ! A11   A(6,5,8)               -0.0309                  2.5                    !
 ! A12   A(7,5,8)               -0.0309                  2.5                    !
 ! A13   A(5,8,9)                0.0309                  2.5                    !
 ! A14   A(5,8,10)               0.0309                  2.5                    !
 ! A15   A(5,8,11)              -0.1224                  9.8                    !
 ! A16   A(9,8,10)               0.021                   1.7                    !
 ! A17   A(9,8,11)               0.0246                  2.0                    !
 ! A18   A(10,8,11)              0.0246                  2.0                    !
 ! A20   A(8,11,13)              0.0143                  1.1                    !
 ! D1    D(2,1,5,6)             -0.0265                  2.1                    !
 ! D2    D(2,1,5,7)              0.0265                  2.1                    !
 ! D4    D(3,1,5,6)             -0.0183                  1.5                    !
 ! D5    D(3,1,5,7)              0.0348                  2.8                    !
 ! D6    D(3,1,5,8)              0.0083                  0.7                    !
 ! D7    D(4,1,5,6)             -0.0348                  2.8                    !
 ! D8    D(4,1,5,7)              0.0183                  1.5                    !
 ! D9    D(4,1,5,8)             -0.0083                  0.7                    !
 ! D10   D(1,5,8,9)             -0.0294                  2.4                    !
 ! D11   D(1,5,8,10)             0.0294                  2.4                    !
 ! D14   D(6,5,8,10)             0.0588                  4.7                    !
 ! D15   D(6,5,8,11)             0.0294                  2.4                    !
 ! D16   D(7,5,8,9)             -0.0588                  4.7                    !
 ! D18   D(7,5,8,11)            -0.0294                  2.4                    !
 ! D19   D(5,8,11,12)           -0.0083                  0.7                    !
 ! D21   D(5,8,11,14)            0.0083                  0.7                    !
 ! D22   D(9,8,11,12)            0.0183                  1.5                    !
 ! D23   D(9,8,11,13)            0.0265                  2.1                    !
 ! D24   D(9,8,11,14)            0.0348                  2.8                    !
 ! D25   D(10,8,11,12)          -0.0348                  2.8                    !
 ! D26   D(10,8,11,13)          -0.0265                  2.1                    !
 ! D27   D(10,8,11,14)          -0.0183                  1.5                    !
 --------------------------------------------------------------------------------
                           ----------------------------
                           ! Normal Mode     6        !
 --------------------------                            --------------------------
 ! Name  Definition              Value          Relative Weight (%)             !
 --------------------------------------------------------------------------------
 ! R1    R(1,2)                 -0.013                   0.9                    !
 ! R2    R(1,3)                 -0.0148                  1.0                    !
 ! R3    R(1,4)                 -0.0148                  1.0                    !
 ! R4    R(1,5)                 -0.5022                 33.8                    !
 ! R5    R(5,6)                 -0.0151                  1.0                    !
 ! R6    R(5,7)                 -0.0151                  1.0                    !
 ! R8    R(8,9)                  0.0151                  1.0                    !
 ! R9    R(8,10)                 0.0151                  1.0                    !
 ! R10   R(8,11)                 0.5022                 33.8                    !
 ! R11   R(11,12)                0.0148                  1.0                    !
 ! R12   R(11,13)                0.013                   0.9                    !
 ! R13   R(11,14)                0.0148                  1.0                    !
 ! A1    A(2,1,3)                0.0092                  0.6                    !
 ! A2    A(2,1,4)                0.0092                  0.6                    !
 ! A3    A(2,1,5)               -0.0121                  0.8                    !
 ! A4    A(3,1,4)                0.0109                  0.7                    !
 ! A5    A(3,1,5)               -0.0077                  0.5                    !
 ! A6    A(4,1,5)               -0.0077                  0.5                    !
 ! A7    A(1,5,6)               -0.014                   0.9                    !
 ! A8    A(1,5,7)               -0.014                   0.9                    !
 ! A9    A(1,5,8)                0.0091                  0.6                    !
 ! A10   A(6,5,7)                0.0068                  0.5                    !
 ! A11   A(6,5,8)                0.006                   0.4                    !
 ! A12   A(7,5,8)                0.006                   0.4                    !
 ! A13   A(5,8,9)               -0.006                   0.4                    !
 ! A14   A(5,8,10)              -0.006                   0.4                    !
 ! A15   A(5,8,11)              -0.0091                  0.6                    !
 ! A16   A(9,8,10)              -0.0068                  0.5                    !
 ! A17   A(9,8,11)               0.014                   0.9                    !
 ! A18   A(10,8,11)              0.014                   0.9                    !
 ! A19   A(8,11,12)              0.0077                  0.5                    !
 ! A20   A(8,11,13)              0.0121                  0.8                    !
 ! A21   A(8,11,14)              0.0077                  0.5                    !
 ! A22   A(12,11,13)            -0.0092                  0.6                    !
 ! A23   A(12,11,14)            -0.0109                  0.7                    !
 ! A24   A(13,11,14)            -0.0092                  0.6                    !
 ! D5    D(3,1,5,7)              0.0056                  0.4                    !
 ! D7    D(4,1,5,6)             -0.0056                  0.4                    !
 ! D10   D(1,5,8,9)              0.0073                  0.5                    !
 ! D11   D(1,5,8,10)            -0.0073                  0.5                    !
 ! D14   D(6,5,8,10)            -0.0147                  1.0                    !
 ! D15   D(6,5,8,11)            -0.0073                  0.5                    !
 ! D16   D(7,5,8,9)              0.0147                  1.0                    !
 ! D18   D(7,5,8,11)             0.0073                  0.5                    !
 ! D24   D(9,8,11,14)            0.0056                  0.4                    !
 ! D25   D(10,8,11,12)          -0.0056                  0.4                    !
 --------------------------------------------------------------------------------
                           ----------------------------
                           ! Normal Mode     7        !
 --------------------------                            --------------------------
 ! Name  Definition              Value          Relative Weight (%)             !
 --------------------------------------------------------------------------------
 ! R2    R(1,3)                 -0.0116                  0.7                    !
 ! R3    R(1,4)                 -0.0116                  0.7                    !
 ! R4    R(1,5)                 -0.299                  17.2                    !
 ! R5    R(5,6)                  0.0085                  0.5                    !
 ! R6    R(5,7)                  0.0085                  0.5                    !
 ! R7    R(5,8)                  0.5336                 30.7                    !
 ! R8    R(8,9)                  0.0085                  0.5                    !
 ! R9    R(8,10)                 0.0085                  0.5                    !
 ! R10   R(8,11)                -0.299                  17.2                    !
 ! R11   R(11,12)               -0.0116                  0.7                    !
 ! R13   R(11,14)               -0.0116                  0.7                    !
 ! A1    A(2,1,3)                0.0067                  0.4                    !
 ! A2    A(2,1,4)                0.0067                  0.4                    !
 ! A3    A(2,1,5)                0.01                    0.6                    !
 ! A5    A(3,1,5)               -0.0131                  0.8                    !
 ! A6    A(4,1,5)               -0.0131                  0.8                    !
 ! A7    A(1,5,6)               -0.015                   0.9                    !
 ! A8    A(1,5,7)               -0.015                   0.9                    !
 ! A9    A(1,5,8)               -0.013                   0.7                    !
 ! A11   A(6,5,8)                0.0232                  1.3                    !
 ! A12   A(7,5,8)                0.0232                  1.3                    !
 ! A13   A(5,8,9)                0.0232                  1.3                    !
 ! A14   A(5,8,10)               0.0232                  1.3                    !
 ! A15   A(5,8,11)              -0.013                   0.7                    !
 ! A17   A(9,8,11)              -0.015                   0.9                    !
 ! A18   A(10,8,11)             -0.015                   0.9                    !
 ! A19   A(8,11,12)             -0.0131                  0.8                    !
 ! A20   A(8,11,13)              0.01                    0.6                    !
 ! A21   A(8,11,14)             -0.0131                  0.8                    !
 ! A22   A(12,11,13)             0.0067                  0.4                    !
 ! A24   A(13,11,14)             0.0067                  0.4                    !
 ! D1    D(2,1,5,6)             -0.0099                  0.6                    !
 ! D2    D(2,1,5,7)              0.0099                  0.6                    !
 ! D4    D(3,1,5,6)             -0.0163                  0.9                    !
 ! D6    D(3,1,5,8)             -0.0063                  0.4                    !
 ! D8    D(4,1,5,7)              0.0163                  0.9                    !
 ! D9    D(4,1,5,8)              0.0063                  0.4                    !
 ! D10   D(1,5,8,9)             -0.0112                  0.6                    !
 ! D11   D(1,5,8,10)             0.0112                  0.6                    !
 ! D13   D(6,5,8,9)             -0.0224                  1.3                    !
 ! D15   D(6,5,8,11)            -0.0112                  0.6                    !
 ! D17   D(7,5,8,10)             0.0224                  1.3                    !
 ! D18   D(7,5,8,11)             0.0112                  0.6                    !
 ! D19   D(5,8,11,12)           -0.0063                  0.4                    !
 ! D21   D(5,8,11,14)            0.0063                  0.4                    !
 ! D22   D(9,8,11,12)           -0.0163                  0.9                    !
 ! D23   D(9,8,11,13)           -0.0099                  0.6                    !
 ! D26   D(10,8,11,13)           0.0099                  0.6                    !
 ! D27   D(10,8,11,14)           0.0163                  0.9                    !
 --------------------------------------------------------------------------------
                           ----------------------------
                           ! Normal Mode     8        !
 --------------------------                            --------------------------
 ! Name  Definition              Value          Relative Weight (%)             !
 --------------------------------------------------------------------------------
 ! R4    R(1,5)                  0.2398                  6.8                    !
 ! R5    R(5,6)                  0.0692                  2.0                    !
 ! R6    R(5,7)                  0.0692                  2.0                    !
 ! R7    R(5,8)                  0.1978                  5.6                    !
 ! R8    R(8,9)                  0.0692                  2.0                    !
 ! R9    R(8,10)                 0.0692                  2.0                    !
 ! R10   R(8,11)                 0.2398                  6.8                    !
 ! A3    A(2,1,5)                0.071                   2.0                    !
 ! A4    A(3,1,4)               -0.0264                  0.8                    !
 ! A5    A(3,1,5)               -0.0283                  0.8                    !
 ! A6    A(4,1,5)               -0.0283                  0.8                    !
 ! A7    A(1,5,6)                0.0762                  2.2                    !
 ! A8    A(1,5,7)                0.0762                  2.2                    !
 ! A9    A(1,5,8)               -0.2509                  7.2                    !
 ! A11   A(6,5,8)                0.0476                  1.4                    !
 ! A12   A(7,5,8)                0.0476                  1.4                    !
 ! A13   A(5,8,9)                0.0476                  1.4                    !
 ! A14   A(5,8,10)               0.0476                  1.4                    !
 ! A15   A(5,8,11)              -0.2509                  7.2                    !
 ! A17   A(9,8,11)               0.0762                  2.2                    !
 ! A18   A(10,8,11)              0.0762                  2.2                    !
 ! A19   A(8,11,12)             -0.0283                  0.8                    !
 ! A20   A(8,11,13)              0.071                   2.0                    !
 ! A21   A(8,11,14)             -0.0283                  0.8                    !
 ! A23   A(12,11,14)            -0.0264                  0.8                    !
 ! D1    D(2,1,5,6)              0.0558                  1.6                    !
 ! D2    D(2,1,5,7)             -0.0558                  1.6                    !
 ! D5    D(3,1,5,7)             -0.0913                  2.6                    !
 ! D6    D(3,1,5,8)             -0.0355                  1.0                    !
 ! D7    D(4,1,5,6)              0.0913                  2.6                    !
 ! D9    D(4,1,5,8)              0.0355                  1.0                    !
 ! D10   D(1,5,8,9)             -0.0387                  1.1                    !
 ! D11   D(1,5,8,10)             0.0387                  1.1                    !
 ! D13   D(6,5,8,9)             -0.0774                  2.2                    !
 ! D15   D(6,5,8,11)            -0.0387                  1.1                    !
 ! D17   D(7,5,8,10)             0.0774                  2.2                    !
 ! D18   D(7,5,8,11)             0.0387                  1.1                    !
 ! D19   D(5,8,11,12)           -0.0355                  1.0                    !
 ! D21   D(5,8,11,14)            0.0355                  1.0                    !
 ! D23   D(9,8,11,13)            0.0558                  1.6                    !
 ! D24   D(9,8,11,14)            0.0913                  2.6                    !
 ! D25   D(10,8,11,12)          -0.0913                  2.6                    !
 ! D26   D(10,8,11,13)          -0.0558                  1.6                    !
[...]
 ! D26   D(10,8,11,13)           0.0732                  1.0                    !
 ! D27   D(10,8,11,14)          -0.1667                  2.3                    !
 --------------------------------------------------------------------------------
                           ----------------------------
                           ! Normal Mode    36        !
 --------------------------                            --------------------------
 ! Name  Definition              Value          Relative Weight (%)             !
 --------------------------------------------------------------------------------
 ! R1    R(1,2)                 -0.0756                  1.0                    !
 ! R12   R(11,13)                0.0756                  1.0                    !
 ! A1    A(2,1,3)                0.2221                  2.9                    !
 ! A2    A(2,1,4)                0.2221                  2.9                    !
 ! A3    A(2,1,5)               -0.1217                  1.6                    !
 ! A4    A(3,1,4)               -0.3903                  5.1                    !
 ! A7    A(1,5,6)               -0.0624                  0.8                    !
 ! A8    A(1,5,7)               -0.0624                  0.8                    !
 ! A10   A(6,5,7)                0.248                   3.3                    !
 ! A11   A(6,5,8)               -0.0555                  0.7                    !
 ! A12   A(7,5,8)               -0.0555                  0.7                    !
 ! A13   A(5,8,9)                0.0555                  0.7                    !
 ! A14   A(5,8,10)               0.0555                  0.7                    !
 ! A16   A(9,8,10)              -0.248                   3.3                    !
 ! A17   A(9,8,11)               0.0624                  0.8                    !
 ! A18   A(10,8,11)              0.0624                  0.8                    !
 ! A20   A(8,11,13)              0.1217                  1.6                    !
 ! A22   A(12,11,13)            -0.2221                  2.9                    !
 ! A23   A(12,11,14)             0.3903                  5.1                    !
 ! A24   A(13,11,14)            -0.2221                  2.9                    !
 ! D1    D(2,1,5,6)              0.1138                  1.5                    !
 ! D2    D(2,1,5,7)             -0.1138                  1.5                    !
 ! D4    D(3,1,5,6)             -0.1095                  1.4                    !
 ! D5    D(3,1,5,7)             -0.3371                  4.4                    !
 ! D6    D(3,1,5,8)             -0.2233                  2.9                    !
 ! D7    D(4,1,5,6)              0.3371                  4.4                    !
 ! D8    D(4,1,5,7)              0.1095                  1.4                    !
 ! D9    D(4,1,5,8)              0.2233                  2.9                    !
 ! D10   D(1,5,8,9)              0.1174                  1.5                    !
 ! D11   D(1,5,8,10)            -0.1174                  1.5                    !
 ! D14   D(6,5,8,10)            -0.2348                  3.1                    !
 ! D15   D(6,5,8,11)            -0.1174                  1.5                    !
 ! D16   D(7,5,8,9)              0.2348                  3.1                    !
 ! D18   D(7,5,8,11)             0.1174                  1.5                    !
 ! D19   D(5,8,11,12)            0.2233                  2.9                    !
 ! D21   D(5,8,11,14)           -0.2233                  2.9                    !
 ! D22   D(9,8,11,12)            0.1095                  1.4                    !
 ! D23   D(9,8,11,13)           -0.1138                  1.5                    !
 ! D24   D(9,8,11,14)           -0.3371                  4.4                    !
 ! D25   D(10,8,11,12)           0.3371                  4.4                    !
 ! D26   D(10,8,11,13)           0.1138                  1.5                    !
 ! D27   D(10,8,11,14)          -0.1095                  1.4                    !
 --------------------------------------------------------------------------------
 -------------------------------------------------------------------
 Center     Atomic                   Forces (Hartrees/Bohr)
 Number     Number              X              Y              Z
 -------------------------------------------------------------------
      1        6           0.000034211   -0.000049334    0.000000000
      2        1          -0.000014163    0.000019369    0.000000000
      3        1          -0.000013748    0.000005630   -0.000007959
      4        1          -0.000013748    0.000005630    0.000007959
      5        6          -0.000044872    0.000067764    0.000000000
      6        1           0.000011061   -0.000009197   -0.000004821
      7        1           0.000011061   -0.000009199    0.000004820
      8        6           0.000044872   -0.000067764    0.000000000
      9        1          -0.000011061    0.000009197   -0.000004821
     10        1          -0.000011061    0.000009199    0.000004820
     11        6          -0.000034211    0.000049334    0.000000000
     12        1           0.000013748   -0.000005630   -0.000007959
     13        1           0.000014163   -0.000019369    0.000000000
     14        1           0.000013748   -0.000005630    0.000007959
 -------------------------------------------------------------------
 Cartesian Forces:  Max     0.000067764 RMS     0.000023718
 FormGI is forming the generalized inverse of G from B-inverse, IUseBI=4.
 Leave Link  716 at Mon Aug 29 16:28:38 2022, MaxMem=   134217728 cpu:         0.1
 (Enter /home/emanuele/chem_software/gaussian//g09/l103.exe)

 GradGradGradGradGradGradGradGradGradGradGradGradGradGradGradGradGradGrad
 Berny optimization.
 Red2BG is reusing G-inverse.
 Internal  Forces:  Max     0.000032084 RMS     0.000011520
 Search for a local minimum.
 Step number   1 out of a maximum of    2
 All quantities printed in internal units (Hartrees-Bohrs-Radians)
 Second derivative matrix not updated -- analytic derivatives used.
 ITU=  0
     Eigenvalues ---    0.00000   0.00000   0.00000   0.00063   0.00063
     Eigenvalues ---    0.00086   0.00086   0.00089   0.00089   0.00089
     Eigenvalues ---    0.00089   0.00089   0.00089   0.00089   0.00089
     Eigenvalues ---    0.00089   0.00089   0.00089   0.00089   0.00089
     Eigenvalues ---    0.00102   0.00102   0.00103   0.00103   0.00169
     Eigenvalues ---    0.00169   0.00242   0.00242   0.00315   0.00315
     Eigenvalues ---    0.00319   0.00319   0.00319   0.00319   0.00320
     Eigenvalues ---    0.00320
 Angle between quadratic step and forces=  32.43 degrees.
 Linear search not attempted -- first point.
 Iteration  1 RMS(Cart)=  0.00822948 RMS(Int)=  0.00003564
 Iteration  2 RMS(Cart)=  0.00005428 RMS(Int)=  0.00002153
 Iteration  3 RMS(Cart)=  0.00000000 RMS(Int)=  0.00002153
 ITry= 1 IFail=0 DXMaxC= 2.52D-02 DCOld= 1.00D+10 DXMaxT= 3.00D-01 DXLimC= 3.00D+00 Rises=F
 Variable       Old X    -DE/DX   Delta X   Delta X   Delta X     New X
                                 (Linear)    (Quad)   (Total)
    R1        2.06182   0.00000   0.00000   0.00365   0.00365   2.06547
    R2        2.06398   0.00000   0.00000   0.00149   0.00149   2.06547
    R3        2.06398   0.00000   0.00000   0.00149   0.00149   2.06547
    R4        2.88640   0.00000   0.00000   0.00110   0.00110   2.88750
    R5        2.06847   0.00000   0.00000  -0.00300  -0.00300   2.06547
    R6        2.06847   0.00000   0.00000  -0.00300  -0.00300   2.06547
    R7        2.88954   0.00000   0.00000  -0.00204  -0.00204   2.88750
    R8        2.06847   0.00000   0.00000  -0.00300  -0.00300   2.06547
    R9        2.06847   0.00000   0.00000  -0.00300  -0.00300   2.06547
   R10        2.88640   0.00000   0.00000   0.00110   0.00110   2.88750
   R11        2.06398   0.00000   0.00000   0.00149   0.00149   2.06547
   R12        2.06182   0.00000   0.00000   0.00365   0.00365   2.06547
   R13        2.06398   0.00000   0.00000   0.00149   0.00149   2.06547
    A1        1.87879   0.00002   0.00000   0.00528   0.00525   1.88404
    A2        1.87879   0.00002   0.00000   0.00528   0.00525   1.88404
    A3        1.94646  -0.00003   0.00000  -0.00993  -0.00996   1.93650
    A4        1.87608   0.00002   0.00000   0.00801   0.00801   1.88408
    A5        1.94028  -0.00001   0.00000  -0.00374  -0.00375   1.93653
    A6        1.94028  -0.00001   0.00000  -0.00374  -0.00375   1.93653
    A7        1.91120   0.00000   0.00000  -0.00171  -0.00171   1.90949
    A8        1.91120   0.00000   0.00000  -0.00172  -0.00171   1.90949
    A9        1.97867  -0.00003   0.00000  -0.01385  -0.01388   1.96479
   A10        1.84959   0.00000   0.00000   0.00886   0.00883   1.85842
   A11        1.90436   0.00001   0.00000   0.00500   0.00495   1.90931
   A12        1.90436   0.00001   0.00000   0.00500   0.00495   1.90931
   A13        1.90436   0.00001   0.00000   0.00500   0.00495   1.90931
   A14        1.90436   0.00001   0.00000   0.00500   0.00495   1.90931
   A15        1.97867  -0.00003   0.00000  -0.01385  -0.01388   1.96479
   A16        1.84959   0.00000   0.00000   0.00886   0.00883   1.85842
   A17        1.91120   0.00000   0.00000  -0.00171  -0.00171   1.90949
   A18        1.91120   0.00000   0.00000  -0.00172  -0.00171   1.90949
   A19        1.94028  -0.00001   0.00000  -0.00374  -0.00375   1.93653
   A20        1.94646  -0.00003   0.00000  -0.00993  -0.00996   1.93650
   A21        1.94028  -0.00001   0.00000  -0.00374  -0.00375   1.93653
   A22        1.87879   0.00002   0.00000   0.00528   0.00525   1.88404
   A23        1.87608   0.00002   0.00000   0.00801   0.00801   1.88408
   A24        1.87879   0.00002   0.00000   0.00528   0.00525   1.88404
    D1        1.01051   0.00000   0.00000   0.00436   0.00434   1.01485
    D2       -1.01051   0.00000   0.00000  -0.00435  -0.00434  -1.01485
    D3        3.14159   0.00000   0.00000   0.00000   0.00000  -3.14159
    D4       -1.08641   0.00000   0.00000   0.00692   0.00690  -1.07952
    D5       -3.10744   0.00000   0.00000  -0.00179  -0.00178  -3.10922
    D6        1.04467   0.00000   0.00000   0.00257   0.00256   1.04722
    D7        3.10744   0.00000   0.00000   0.00179   0.00178   3.10922
    D8        1.08642   0.00000   0.00000  -0.00692  -0.00689   1.07952
    D9       -1.04467   0.00000   0.00000  -0.00256  -0.00255  -1.04722
   D10       -1.00671  -0.00001   0.00000  -0.00802  -0.00804  -1.01474
   D11        1.00671   0.00001   0.00000   0.00802   0.00804   1.01475
   D12        3.14159   0.00000   0.00000   0.00000   0.00000  -3.14159
   D13        1.12818  -0.00002   0.00000  -0.01603  -0.01607   1.11210
   D14        3.14159   0.00000   0.00000   0.00000   0.00000  -3.14159
   D15       -1.00671  -0.00001   0.00000  -0.00802  -0.00804  -1.01474
   D16        3.14159   0.00000   0.00000   0.00000   0.00000  -3.14159
   D17       -1.12818   0.00002   0.00000   0.01604   0.01608  -1.11210
   D18        1.00671   0.00001   0.00000   0.00802   0.00804   1.01475
   D19        1.04467   0.00000   0.00000   0.00256   0.00255   1.04722
   D20        3.14159   0.00000   0.00000   0.00000   0.00000   3.14159
   D21       -1.04467   0.00000   0.00000  -0.00257  -0.00256  -1.04723
   D22       -1.08641   0.00000   0.00000   0.00692   0.00689  -1.07952
   D23        1.01051   0.00000   0.00000   0.00435   0.00434   1.01485
   D24        3.10744   0.00000   0.00000   0.00179   0.00178   3.10922
   D25       -3.10744   0.00000   0.00000  -0.00179  -0.00179  -3.10922
   D26       -1.01051   0.00000   0.00000  -0.00436  -0.00434  -1.01485
   D27        1.08642   0.00000   0.00000  -0.00692  -0.00690   1.07952
         Item               Value     Threshold  Converged?
 Maximum Force            0.000032     0.000450     YES
 RMS     Force            0.000012     0.000300     YES
 Maximum Displacement     0.025160     0.001800     NO 
 RMS     Displacement     0.008272     0.001200     NO 
 Predicted change in Energy=-1.865940D-06
 GradGradGradGradGradGradGradGradGradGradGradGradGradGradGradGradGradGrad

 Leave Link  103 at Mon Aug 29 16:28:38 2022, MaxMem=   134217728 cpu:         0.0
 (Enter /home/emanuele/chem_software/gaussian//g09/l9999.exe)
 1\1\GINC-EMANUELE-XPS-13-9343\Freq\RAMBER\ZDO\C4H10\EMANUELE\29-Aug-20
 22\0\\#p Amber=(SoftOnly,Print) nosymm Freq=intmodes\\Title\\0,1\C,1.9
 56897,-0.120392,0.\H,2.742005,0.637259,0.\H,2.103753,-0.749379,-0.8807
 6\H,2.103753,-0.749379,0.88076\C,0.566957,0.512915,0.\H,0.461751,1.163
 403,-0.874026\H,0.461751,1.163404,0.874026\C,-0.566957,-0.512915,0.\H,
 -0.461751,-1.163403,-0.874026\H,-0.461751,-1.163404,0.874026\C,-1.9568
 97,0.120392,0.\H,-2.103753,0.749379,-0.88076\H,-2.742005,-0.637259,0.\
 H,-2.103753,0.749379,0.88076\\Version=ES64L-G09RevD.01\HF=0.0000087\RM
 SD=0.000e+00\RMSF=2.372e-05\ZeroPoint=0.0120343\Thermal=0.0366562\Dipo
 le=0.,0.,0.\PG=C02H [SGH(C4H2),X(H8)]\NImag=2\\0.00526913,-0.00019216,
 0.00494113,0.,0.,0.00477604,-0.00129904,0.00017042,0.,0.00101535,0.000
 43279,-0.00108106,0.,-0.00013882,0.00104831,0.,0.,-0.00137190,0.,0.,0.
 00106403,-0.00149288,0.00011367,0.00010726,0.00021894,-0.00022688,-0.0
 0050764,0.00115110,-0.00001608,-0.00125051,0.00018185,0.00015341,-0.00
 015897,-0.00034369,-0.00000114,0.00100880,-0.00009699,0.00027846,-0.00
 100863,-0.00007305,0.00007570,0.00016080,0.00005230,-0.00008708,0.0009
 6755,-0.00149288,0.00011367,-0.00010726,0.00021894,-0.00022688,0.00050
 764,0.00002124,-0.00010863,0.00008112,0.00115110,-0.00001608,-0.001250
 51,-0.00018185,0.00015341,-0.00015897,0.00034369,-0.00010863,0.0004611
 5,-0.00034744,-0.00000114,0.00100880,0.00009699,-0.00027846,-0.0010086
 3,0.00007305,-0.00007570,0.00016080,-0.00008112,0.00034744,-0.00026165
 ,-0.00005230,0.00008708,0.00096755,-0.00109871,-0.00045667,0.,-0.00015
 420,0.00015978,0.,0.00010160,-0.00002755,0.00003662,0.00010160,-0.0000
 2755,-0.00003662,0.00522231,-0.00027550,-0.00150616,0.,-0.00033842,0.0
 0035068,0.,0.00022299,-0.00006047,0.00008036,0.00022299,-0.00006047,-0
 .00008036,0.00000282,0.00503391,0.,0.,-0.00164631,0.,0.,-0.00001374,0.
 00042920,-0.00009851,0.00014192,-0.00042920,0.00009851,0.00014192,0.,0
 .,0.00462740,0.00011035,0.00024218,-0.00041996,0.,0.,0.,0.,0.,0.,0.,0.
 ,0.,-0.00146994,-0.00001892,0.00001830,0.00117167,-0.00002523,-0.00005
 538,0.00010637,0.,0.,0.,0.,0.,0.,0.,0.,0.,-0.00002089,-0.00131211,-0.0
 0007004,0.00002563,0.00100675,-0.00003206,-0.00007037,0.00012971,0.,0.
 ,0.,0.,0.,0.,0.,0.,0.,0.00006050,-0.00031461,-0.00095105,-0.00002107,0
 .00008655,0.00096367,0.00011035,0.00024218,0.00041996,0.,0.,0.,0.,0.,0
 .,0.,0.,0.,-0.00146994,-0.00001892,-0.00001830,0.00002814,-0.00007227,
 -0.00005717,0.00117167,-0.00002523,-0.00005538,-0.00010637,0.,0.,0.,0.
 ,0.,0.,0.,0.,0.,-0.00002089,-0.00131211,0.00007004,-0.00007227,0.00046
 327,0.00035349,0.00002563,0.00100675,0.00003206,0.00007037,0.00012971,
 0.,0.,0.,0.,0.,0.,0.,0.,0.,-0.00006050,0.00031461,-0.00095105,0.000057
 17,-0.00035349,-0.00026996,0.00002107,-0.00008655,0.00096367,-0.000106
 30,-0.00023330,0.,0.,0.,0.,0.,0.,0.,0.,0.,0.,-0.00144599,0.00043871,0.
 ,0.00015979,0.00009276,0.00004980,0.00015979,0.00009276,-0.00004980,0.
 00522231,0.00011750,0.00025788,0.,0.,0.,0.,0.,0.,0.,0.,0.,0.,0.0004387
 1,-0.00118610,0.,-0.00017662,-0.00010254,-0.00005505,-0.00017662,-0.00
 010254,0.00005505,0.00000282,0.00503391,0.,0.,0.,0.,0.,0.,0.,0.,0.,0.,
 0.,0.,0.,0.,-0.00160433,0.00036556,0.00023061,0.00012763,-0.00036556,-
 0.00023061,0.00012763,0.,0.,0.00462740,0.,0.,0.,0.,0.,0.,0.,0.,0.,0.,0
 .,0.,0.00015979,-0.00017662,-0.00036556,0.,0.,0.,0.,0.,0.,-0.00146994,
 -0.00001892,-0.00001830,0.00117167,0.,0.,0.,0.,0.,0.,0.,0.,0.,0.,0.,0.
 ,0.00009276,-0.00010254,-0.00023061,0.,0.,0.,0.,0.,0.,-0.00002089,-0.0
 0131211,0.00007004,0.00002563,0.00100675,0.,0.,0.,0.,0.,0.,0.,0.,0.,0.
 ,0.,0.,-0.00004980,0.00005505,0.00012763,0.,0.,0.,0.,0.,0.,-0.00006050
 ,0.00031461,-0.00095105,0.00002107,-0.00008655,0.00096367,0.,0.,0.,0.,
 0.,0.,0.,0.,0.,0.,0.,0.,0.00015979,-0.00017662,0.00036556,0.,0.,0.,0.,
 0.,0.,-0.00146994,-0.00001892,0.00001830,0.00002814,-0.00007227,0.0000
 5717,0.00117167,0.,0.,0.,0.,0.,0.,0.,0.,0.,0.,0.,0.,0.00009276,-0.0001
 0254,0.00023061,0.,0.,0.,0.,0.,0.,-0.00002089,-0.00131211,-0.00007004,
 -0.00007227,0.00046327,-0.00035349,0.00002563,0.00100675,0.,0.,0.,0.,0
 .,0.,0.,0.,0.,0.,0.,0.,0.00004980,-0.00005505,0.00012763,0.,0.,0.,0.,0
 .,0.,0.00006050,-0.00031461,-0.00095105,-0.00005717,0.00035349,-0.0002
 6996,-0.00002107,0.00008655,0.00096367,0.,0.,0.,0.,0.,0.,0.,0.,0.,0.,0
 .,0.,-0.00010630,0.00011750,0.,0.,0.,0.,0.,0.,0.,-0.00109871,-0.000275
 50,0.,0.00011035,-0.00002523,0.00003206,0.00011035,-0.00002523,-0.0000
 3206,0.00526913,0.,0.,0.,0.,0.,0.,0.,0.,0.,0.,0.,0.,-0.00023330,0.0002
 5788,0.,0.,0.,0.,0.,0.,0.,-0.00045667,-0.00150616,0.,0.00024218,-0.000
 05538,0.00007037,0.00024218,-0.00005538,-0.00007037,-0.00019216,0.0049
 4113,0.,0.,0.,0.,0.,0.,0.,0.,0.,0.,0.,0.,0.,0.,0.,0.,0.,0.,0.,0.,0.,0.
 ,0.,-0.00164631,0.00041996,-0.00010637,0.00012971,-0.00041996,0.000106
 37,0.00012971,0.,0.,0.00477604,0.,0.,0.,0.,0.,0.,0.,0.,0.,0.,0.,0.,0.,
 0.,0.,0.,0.,0.,0.,0.,0.,0.00010160,0.00022299,-0.00042920,0.,0.,0.,0.,
 0.,0.,-0.00149288,0.00011367,-0.00010726,0.00115110,0.,0.,0.,0.,0.,0.,
 0.,0.,0.,0.,0.,0.,0.,0.,0.,0.,0.,0.,0.,0.,0.,-0.00002755,-0.00006047,0
 .00009851,0.,0.,0.,0.,0.,0.,-0.00001608,-0.00125051,-0.00018185,-0.000
 00114,0.00100880,0.,0.,0.,0.,0.,0.,0.,0.,0.,0.,0.,0.,0.,0.,0.,0.,0.,0.
 ,0.,0.,0.,-0.00003662,-0.00008036,0.00014192,0.,0.,0.,0.,0.,0.,0.00009
 699,-0.00027846,-0.00100863,-0.00005230,0.00008708,0.00096755,0.,0.,0.
 ,0.,0.,0.,0.,0.,0.,0.,0.,0.,0.,0.,0.,0.,0.,0.,0.,0.,0.,-0.00015420,-0.
 00033842,0.,0.,0.,0.,0.,0.,0.,-0.00129904,0.00017042,0.,0.00021894,0.0
 0015341,0.00007305,0.00101535,0.,0.,0.,0.,0.,0.,0.,0.,0.,0.,0.,0.,0.,0
 .,0.,0.,0.,0.,0.,0.,0.,0.00015978,0.00035068,0.,0.,0.,0.,0.,0.,0.,0.00
 043279,-0.00108106,0.,-0.00022688,-0.00015897,-0.00007570,-0.00013882,
 0.00104831,0.,0.,0.,0.,0.,0.,0.,0.,0.,0.,0.,0.,0.,0.,0.,0.,0.,0.,0.,0.
 ,0.,0.,0.,-0.00001374,0.,0.,0.,0.,0.,0.,0.,0.,-0.00137190,0.00050764,0
 .00034369,0.00016080,0.,0.,0.00106403,0.,0.,0.,0.,0.,0.,0.,0.,0.,0.,0.
 ,0.,0.,0.,0.,0.,0.,0.,0.,0.,0.,0.00010160,0.00022299,0.00042920,0.,0.,
 0.,0.,0.,0.,-0.00149288,0.00011367,0.00010726,0.00002124,-0.00010863,-
 0.00008112,0.00021894,-0.00022688,-0.00050764,0.00115110,0.,0.,0.,0.,0
 .,0.,0.,0.,0.,0.,0.,0.,0.,0.,0.,0.,0.,0.,0.,0.,0.,-0.00002755,-0.00006
 047,-0.00009851,0.,0.,0.,0.,0.,0.,-0.00001608,-0.00125051,0.00018185,-
 0.00010863,0.00046115,0.00034744,0.00015341,-0.00015897,-0.00034369,-0
 .00000114,0.00100880,0.,0.,0.,0.,0.,0.,0.,0.,0.,0.,0.,0.,0.,0.,0.,0.,0
 .,0.,0.,0.,0.,0.00003662,0.00008036,0.00014192,0.,0.,0.,0.,0.,0.,-0.00
 009699,0.00027846,-0.00100863,0.00008112,-0.00034744,-0.00026165,-0.00
 007305,0.00007570,0.00016080,0.00005230,-0.00008708,0.00096755\\-0.000
 03421,0.00004933,0.,0.00001416,-0.00001937,0.,0.00001375,-0.00000563,0
 .00000796,0.00001375,-0.00000563,-0.00000796,0.00004487,-0.00006776,0.
 ,-0.00001106,0.00000920,0.00000482,-0.00001106,0.00000920,-0.00000482,
 -0.00004487,0.00006776,0.,0.00001106,-0.00000920,0.00000482,0.00001106
 ,-0.00000920,-0.00000482,0.00003421,-0.00004933,0.,-0.00001375,0.00000
 563,0.00000796,-0.00001416,0.00001937,0.,-0.00001375,0.00000563,-0.000
 00796\\\@


 Some scientists claim that hydrogen, because it is so
 plentiful, is the basic building block of the universe. 
 I dispute that. I say that stupidity is far more
 abundant than hydrogen, and THAT is the basic building 
 block of the universe.
                   --Frank Zappa
 Job cpu time:       0 days  0 hours  0 minutes  0.4 seconds.
 File lengths (MBytes):  RWF=      5 Int=      0 D2E=      0 Chk=      1 Scr=      1
 Normal termination of Gaussian 09 at Mon Aug 29 16:28:38 2022.
