 Entering Gaussian System, Link 0=/home/emanuele/chem_software/gaussian//g09/g09
 Input=GauNonBon.gjf
 Output=GauNonBon.log
 Initial command:
 /home/emanuele/chem_software/gaussian//gdv/l1.exe "/home/emanuele/chem_software/gaussian/scratch/Gau-12117.inp" -scrdir="/home/emanuele/chem_software/gaussian/scratch/"
 Entering Link 1 = /home/emanuele/chem_software/gaussian//gdv/l1.exe PID=     12119.
  
 Copyright (c) 1988-2020, Gaussian, Inc.  All Rights Reserved.
  
 This is the private, development version of
 the Gaussian(R) DV system of programs. It is based on
 the Gaussian(R) 16 system (copyright 2016, Gaussian, Inc.),
 the Gaussian(R) 09 system (copyright 2009, Gaussian, Inc.),
 the Gaussian(R) 03 system (copyright 2003, Gaussian, Inc.),
 the Gaussian(R) 98 system (copyright 1998, Gaussian, Inc.),
 the Gaussian(R) 94 system (copyright 1995, Gaussian, Inc.),
 the Gaussian 92(TM) system (copyright 1992, Gaussian, Inc.),
 the Gaussian 90(TM) system (copyright 1990, Gaussian, Inc.),
 the Gaussian 88(TM) system (copyright 1988, Gaussian, Inc.),
 the Gaussian 86(TM) system (copyright 1986, Carnegie Mellon
 University), and the Gaussian 82(TM) system (copyright 1983,
 Carnegie Mellon University). Gaussian is a federally registered
 trademark of Gaussian, Inc.
  
 This software contains proprietary and confidential information,
 including trade secrets, belonging to Gaussian, Inc.
  
 This software is provided under written license and may be
 used, copied, transmitted, or stored only in accord with that
 written license.
  
 The following legend is applicable only to US Government
 contracts under FAR:
  
                    RESTRICTED RIGHTS LEGEND
  
 Use, reproduction and disclosure by the US Government is
 subject to restrictions as set forth in subparagraphs (a)
 and (c) of the Commercial Computer Software - Restricted
 Rights clause in FAR 52.227-19.
  
 Gaussian, Inc.
 340 Quinnipiac St., Bldg. 40, Wallingford CT 06492
  
  
 ---------------------------------------------------------------
 Warning -- This program may not be used in any manner that
 competes with the business of Gaussian, Inc. or will provide
 assistance to any competitor of Gaussian, Inc.  The licensee
 of this program is prohibited from giving any competitor of
 Gaussian, Inc. access to this program.  By using this program,
 the user acknowledges that Gaussian, Inc. is engaged in the
 business of creating and licensing software in the field of
 computational chemistry and represents and warrants to the
 licensee that it is not a competitor of Gaussian, Inc. and that
 it will not use this program in any manner prohibited above.
 ---------------------------------------------------------------
  

 Cite this work as:
 Gaussian Development Version, Revision J.14,
 M. J. Frisch, G. W. Trucks, H. B. Schlegel, G. E. Scuseria, 
 M. A. Robb, J. R. Cheeseman, G. Scalmani, V. Barone, 
 G. A. Petersson, H. Nakatsuji, X. Li, A. V. Marenich, M. Caricato, 
 J. Bloino, B. G. Janesko, J. Zheng, R. Gomperts, B. Mennucci, 
 H. P. Hratchian, J. V. Ortiz, A. F. Izmaylov, J. L. Sonnenberg, 
 D. Williams-Young, F. Ding, F. Lipparini, F. Egidi, J. Goings, 
 B. Peng, A. Petrone, T. Henderson, D. Ranasinghe, V. G. Zakrzewski, 
 J. Gao, N. Rega, G. Zheng, W. Liang, M. Hada, M. Ehara, K. Toyota, 
 R. Fukuda, J. Hasegawa, M. Ishida, T. Nakajima, Y. Honda, O. Kitao, 
 H. Nakai, T. Vreven, K. Throssell, J. A. Montgomery, Jr., 
 J. E. Peralta, F. Ogliaro, M. J. Bearpark, J. J. Heyd, 
 E. N. Brothers, K. N. Kudin, V. N. Staroverov, T. A. Keith, 
 R. Kobayashi, J. Normand, K. Raghavachari, A. P. Rendell, 
 J. C. Burant, S. S. Iyengar, J. Tomasi, M. Cossi, J. M. Millam, 
 M. Klene, C. Adamo, R. Cammi, J. W. Ochterski, R. L. Martin, 
 K. Morokuma, O. Farkas, J. B. Foresman, and D. J. Fox, 
 Gaussian, Inc., Wallingford CT, 2020.
 
 ******************************************
 Gaussian DV:  ES64L-GDVRevJ.14 29-Dec-2020
                14-Nov-2023 
 ******************************************
 %mem=1GB
 %nprocshared=1
 Will use up to    1 processors via shared memory.
 %chk=GauNonBon.chk
 ----------------------------------------------
 #p Amber=(SoftOnly,Print) nosymm Freq=intmodes
 ----------------------------------------------
 1/10=4,18=20,30=1,37=210000000,38=1,56=2,64=303/1,3;
 2/9=110,12=2,15=1,40=1/2;
 3/5=30,11=9,25=1,30=1,41=10030000,43=2,71=2,140=1/1;
 4/20=11,22=2,24=3,119=11/2;
 7/8=21,25=1,30=1,44=-1/16;
 1/10=4,18=20,30=1,64=303/3;
 99//99;
 Leave Link    1 at Tue Nov 14 11:48:11 2023, MaxMem=   134217728 cpu:               0.0 elap:               0.0
 (Enter /home/emanuele/chem_software/gaussian//gdv/l101.exe)
 -----
 Title
 -----
 Symbolic Z-matrix:
 Charge =  0 Multiplicity = 1
 C-CT--0.267532        1.9569   -0.12039   0. 
 H-HC-+0.083821        2.74201   0.63726   0. 
 H-HC-+0.077363        2.10375  -0.74938  -0.88076 
 H-HC-+0.077360        2.10375  -0.74938   0.88076 
 C-CT--0.092257        0.56696   0.51292   0. 
 H-HC-+0.060623        0.46175   1.1634   -0.87403 
 H-HC-+0.060622        0.46175   1.1634    0.87403 
 C-CT--0.092258       -0.56696  -0.51292   0. 
 H-HC-+0.060627       -0.46175  -1.1634   -0.87403 
 H-HC-+0.060618       -0.46175  -1.1634    0.87403 
 C-CT--0.267532       -1.9569    0.12039   0. 
 H-HC-+0.077330       -2.10375   0.74938  -0.88076 
 H-HC-+0.083821       -2.74201  -0.63726   0. 
 H-HC-+0.077394       -2.10375   0.74938   0.88076 
 
 ITRead=  0  0  0  0  0  0  0  0  0  0  0  0  0  0
 MicOpt= -1 -1 -1 -1 -1 -1 -1 -1 -1 -1 -1 -1 -1 -1
 DXMax1 from symmetrization= 1.89D-06
 NAtoms=     14 NQM=       14 NQMF=       0 NMMI=      0 NMMIF=      0
                NMic=       0 NMicF=      0.
                    Isotopes and Nuclear Properties:
 (Nuclear quadrupole moments (NQMom) in fm**2, nuclear magnetic moments (NMagM)
  in nuclear magnetons)

  Atom         1           2           3           4           5           6           7           8           9          10
 IAtWgt=          12           1           1           1          12           1           1          12           1           1
 AtmWgt=  12.0000000   1.0078250   1.0078250   1.0078250  12.0000000   1.0078250   1.0078250  12.0000000   1.0078250   1.0078250
 NucSpn=           0           1           1           1           0           1           1           0           1           1
 AtZEff=  -0.0000000  -0.0000000  -0.0000000  -0.0000000  -0.0000000  -0.0000000  -0.0000000  -0.0000000  -0.0000000  -0.0000000
 NQMom=    0.0000000   0.0000000   0.0000000   0.0000000   0.0000000   0.0000000   0.0000000   0.0000000   0.0000000   0.0000000
 NMagM=    0.0000000   2.7928460   2.7928460   2.7928460   0.0000000   2.7928460   2.7928460   0.0000000   2.7928460   2.7928460
 AtZNuc=   6.0000000   1.0000000   1.0000000   1.0000000   6.0000000   1.0000000   1.0000000   6.0000000   1.0000000   1.0000000

  Atom        11          12          13          14
 IAtWgt=          12           1           1           1
 AtmWgt=  12.0000000   1.0078250   1.0078250   1.0078250
 NucSpn=           0           1           1           1
 AtZEff=  -0.0000000  -0.0000000  -0.0000000  -0.0000000
 NQMom=    0.0000000   0.0000000   0.0000000   0.0000000
 NMagM=    0.0000000   2.7928460   2.7928460   2.7928460
 AtZNuc=   6.0000000   1.0000000   1.0000000   1.0000000
 Generating MM parameters.
 Read MM parameter file:
 Include all MM classes

 MM sanity checks:
 All charges sum to:                0.00000000
 Charges of atoms sum to:           0.00000000
 MMInit generated parameter data with length LenPar=        2269.
 MM Charge=              0.0000 electrons
 MM Dipole moment (Debye):
    X=             -0.0000    Y=              0.0000    Z=              0.0002  Tot=              0.0002
 MM Quadrupole moment (Debye-Ang):
   XX=              2.7540   YY=              2.4677   ZZ=              2.0428
   XY=              0.0372   XZ=             -0.0006   YZ=              0.0003
 MM Traceless Quadrupole moment (Debye-Ang):
   XX=              0.3325   YY=              0.0462   ZZ=             -0.3787
   XY=              0.0372   XZ=             -0.0006   YZ=              0.0003
 MM Octapole moment (Debye-Ang**2):
  XXX=             -0.0000  YYY=              0.0000  ZZZ=              0.0002  XYY=             -0.0000
  XXY=              0.0000  XXZ=              0.0011  XZZ=             -0.0000  YZZ=              0.0000
  YYZ=              0.0001  XYZ=             -0.0004
 MM Hexadecapole moment (Debye-Ang**3):
 XXXX=             36.9049 YYYY=              2.6734 ZZZZ=              1.5741 XXXY=              2.5774
 XXXZ=             -0.0026 YYYX=              0.0434 YYYZ=              0.0002 ZZZX=             -0.0005
 ZZZY=              0.0002 XXYY=              6.2712 XXZZ=              5.2927 YYZZ=              1.8518
 XXYZ=              0.0009 YYXZ=             -0.0003 ZZXY=             -1.3397
 Leave Link  101 at Tue Nov 14 11:48:11 2023, MaxMem=   134217728 cpu:               0.2 elap:               0.2
 (Enter /home/emanuele/chem_software/gaussian//gdv/l103.exe)

 GradGradGradGradGradGradGradGradGradGradGradGradGradGradGradGradGradGrad
 Berny optimization.
 Initialization pass.
                           ----------------------------
                           !    Initial Parameters    !
                           ! (Angstroms and Degrees)  !
 --------------------------                            --------------------------
 ! Name  Definition              Value          Derivative Info.                !
 --------------------------------------------------------------------------------
 ! R1    R(1,2)                  1.0911         calculate D2E/DX2 analytically  !
 ! R2    R(1,3)                  1.0922         calculate D2E/DX2 analytically  !
 ! R3    R(1,4)                  1.0922         calculate D2E/DX2 analytically  !
 ! R4    R(1,5)                  1.5274         calculate D2E/DX2 analytically  !
 ! R5    R(5,6)                  1.0946         calculate D2E/DX2 analytically  !
 ! R6    R(5,7)                  1.0946         calculate D2E/DX2 analytically  !
 ! R7    R(5,8)                  1.5291         calculate D2E/DX2 analytically  !
 ! R8    R(8,9)                  1.0946         calculate D2E/DX2 analytically  !
 ! R9    R(8,10)                 1.0946         calculate D2E/DX2 analytically  !
 ! R10   R(8,11)                 1.5274         calculate D2E/DX2 analytically  !
 ! R11   R(11,12)                1.0922         calculate D2E/DX2 analytically  !
 ! R12   R(11,13)                1.0911         calculate D2E/DX2 analytically  !
 ! R13   R(11,14)                1.0922         calculate D2E/DX2 analytically  !
 ! A1    A(2,1,3)              107.6468         calculate D2E/DX2 analytically  !
 ! A2    A(2,1,4)              107.6468         calculate D2E/DX2 analytically  !
 ! A3    A(2,1,5)              111.5239         calculate D2E/DX2 analytically  !
 ! A4    A(3,1,4)              107.4912         calculate D2E/DX2 analytically  !
 ! A5    A(3,1,5)              111.1697         calculate D2E/DX2 analytically  !
 ! A6    A(4,1,5)              111.1697         calculate D2E/DX2 analytically  !
 ! A7    A(1,5,6)              109.5036         calculate D2E/DX2 analytically  !
 ! A8    A(1,5,7)              109.5036         calculate D2E/DX2 analytically  !
 ! A9    A(1,5,8)              113.3692         calculate D2E/DX2 analytically  !
 ! A10   A(6,5,7)              105.9737         calculate D2E/DX2 analytically  !
 ! A11   A(6,5,8)              109.1118         calculate D2E/DX2 analytically  !
 ! A12   A(7,5,8)              109.1118         calculate D2E/DX2 analytically  !
 ! A13   A(5,8,9)              109.1118         calculate D2E/DX2 analytically  !
 ! A14   A(5,8,10)             109.1118         calculate D2E/DX2 analytically  !
 ! A15   A(5,8,11)             113.3692         calculate D2E/DX2 analytically  !
 ! A16   A(9,8,10)             105.9737         calculate D2E/DX2 analytically  !
 ! A17   A(9,8,11)             109.5036         calculate D2E/DX2 analytically  !
 ! A18   A(10,8,11)            109.5036         calculate D2E/DX2 analytically  !
 ! A19   A(8,11,12)            111.1697         calculate D2E/DX2 analytically  !
 ! A20   A(8,11,13)            111.5239         calculate D2E/DX2 analytically  !
 ! A21   A(8,11,14)            111.1697         calculate D2E/DX2 analytically  !
 ! A22   A(12,11,13)           107.6468         calculate D2E/DX2 analytically  !
 ! A23   A(12,11,14)           107.4912         calculate D2E/DX2 analytically  !
 ! A24   A(13,11,14)           107.6468         calculate D2E/DX2 analytically  !
 ! D1    D(2,1,5,6)             57.898          calculate D2E/DX2 analytically  !
 ! D2    D(2,1,5,7)            -57.898          calculate D2E/DX2 analytically  !
 ! D3    D(2,1,5,8)            180.0            calculate D2E/DX2 analytically  !
 ! D4    D(3,1,5,6)            -62.247          calculate D2E/DX2 analytically  !
 ! D5    D(3,1,5,7)           -178.043          calculate D2E/DX2 analytically  !
 ! D6    D(3,1,5,8)             59.855          calculate D2E/DX2 analytically  !
 ! D7    D(4,1,5,6)            178.043          calculate D2E/DX2 analytically  !
 ! D8    D(4,1,5,7)             62.247          calculate D2E/DX2 analytically  !
 ! D9    D(4,1,5,8)            -59.855          calculate D2E/DX2 analytically  !
 ! D10   D(1,5,8,9)            -57.6801         calculate D2E/DX2 analytically  !
 ! D11   D(1,5,8,10)            57.6801         calculate D2E/DX2 analytically  !
 ! D12   D(1,5,8,11)           180.0            calculate D2E/DX2 analytically  !
 ! D13   D(6,5,8,9)             64.6397         calculate D2E/DX2 analytically  !
 ! D14   D(6,5,8,10)           180.0            calculate D2E/DX2 analytically  !
 ! D15   D(6,5,8,11)           -57.6801         calculate D2E/DX2 analytically  !
 ! D16   D(7,5,8,9)           -180.0            calculate D2E/DX2 analytically  !
 ! D17   D(7,5,8,10)           -64.6397         calculate D2E/DX2 analytically  !
 ! D18   D(7,5,8,11)            57.6801         calculate D2E/DX2 analytically  !
 ! D19   D(5,8,11,12)           59.855          calculate D2E/DX2 analytically  !
 ! D20   D(5,8,11,13)          180.0            calculate D2E/DX2 analytically  !
 ! D21   D(5,8,11,14)          -59.855          calculate D2E/DX2 analytically  !
 ! D22   D(9,8,11,12)          -62.247          calculate D2E/DX2 analytically  !
 ! D23   D(9,8,11,13)           57.898          calculate D2E/DX2 analytically  !
 ! D24   D(9,8,11,14)          178.043          calculate D2E/DX2 analytically  !
 ! D25   D(10,8,11,12)        -178.043          calculate D2E/DX2 analytically  !
 ! D26   D(10,8,11,13)         -57.898          calculate D2E/DX2 analytically  !
 ! D27   D(10,8,11,14)          62.247          calculate D2E/DX2 analytically  !
 --------------------------------------------------------------------------------
 Trust Radius=3.00D-01 FncErr=1.00D-07 GrdErr=1.00D-07 EigMax=2.50D+02 EigMin=1.00D-04
 Number of steps in this run=      2 maximum allowed number of steps=      2.
 GradGradGradGradGradGradGradGradGradGradGradGradGradGradGradGradGradGrad

 Leave Link  103 at Tue Nov 14 11:48:11 2023, MaxMem=   134217728 cpu:               0.0 elap:               0.0
 (Enter /home/emanuele/chem_software/gaussian//gdv/l202.exe)
                          Input orientation:                          
 ---------------------------------------------------------------------
 Center     Atomic      Atomic             Coordinates (Angstroms)
 Number     Number       Type             X           Y           Z
 ---------------------------------------------------------------------
      1          6    20001001        1.956897   -0.120392    0.000000
      2          1    20001034        2.742005    0.637259    0.000000
      3          1    20001034        2.103753   -0.749379   -0.880760
      4          1    20001034        2.103753   -0.749379    0.880760
      5          6    20001001        0.566957    0.512915    0.000000
      6          1    20001034        0.461751    1.163403   -0.874026
      7          1    20001034        0.461751    1.163403    0.874026
      8          6    20001001       -0.566957   -0.512915    0.000000
      9          1    20001034       -0.461751   -1.163403   -0.874026
     10          1    20001034       -0.461751   -1.163403    0.874026
     11          6    20001001       -1.956897    0.120392    0.000000
     12          1    20001034       -2.103753    0.749379   -0.880760
     13          1    20001034       -2.742005   -0.637259    0.000000
     14          1    20001034       -2.103753    0.749379    0.880760
 ---------------------------------------------------------------------
                    Distance matrix (angstroms):
                    1          2          3          4          5
     1  C    0.000000
     2  H    1.091068   0.000000
     3  H    1.092213   1.762348   0.000000
     4  H    1.092213   1.762348   1.761520   0.000000
     5  C    1.527420   2.178599   2.175055   2.175055   0.000000
     6  H    2.155809   2.498061   2.520903   3.071511   1.094589
     7  H    2.155809   2.498061   3.071511   2.520903   1.094589
     8  C    2.554195   3.503160   2.822117   2.822117   1.529081
     9  H    2.775185   3.777613   2.598706   3.135682   2.152255
    10  H    2.775185   3.777613   3.135682   2.598706   2.152255
    11  C    3.921194   4.727244   4.245129   4.245129   2.554195
    12  H    4.245129   4.926427   4.466473   4.801285   2.822117
    13  H    4.727244   5.630165   4.926427   4.926427   3.503160
    14  H    4.245129   4.926427   4.801285   4.466473   2.822117
                    6          7          8          9         10
     6  H    0.000000
     7  H    1.748052   0.000000
     8  C    2.152255   2.152255   0.000000
     9  H    2.503374   3.053288   1.094589   0.000000
    10  H    3.053288   2.503374   1.094589   1.748052   0.000000
    11  C    2.775185   2.775185   1.527420   2.155809   2.155809
    12  H    2.598706   3.135682   2.175055   2.520903   3.071511
    13  H    3.777613   3.777613   2.178599   2.498061   2.498061
    14  H    3.135682   2.598706   2.175055   3.071511   2.520903
                   11         12         13         14
    11  C    0.000000
    12  H    1.092213   0.000000
    13  H    1.091068   1.762348   0.000000
    14  H    1.092213   1.761520   1.762348   0.000000
 Symmetry turned off by external request.
 Stoichiometry    C4H10
 Framework group  C2H[SGH(C4H2),X(H8)]
 Deg. of freedom    11
 Full point group                 C2H     NOp   4
 Rotational constants (GHZ):          23.6116490           3.6179190           3.3991535
 Leave Link  202 at Tue Nov 14 11:48:11 2023, MaxMem=   134217728 cpu:               0.0 elap:               0.0
 (Enter /home/emanuele/chem_software/gaussian//gdv/l301.exe)
 Standard basis: Dummy (5D, 7F)
    14 basis functions,    14 primitive gaussians,    14 cartesian basis functions
     9 alpha electrons        9 beta electrons
       nuclear repulsion energy        36.5440176861 Hartrees.
 IExCor=       0 DFT=F Ex=HF Corr=None N6=None ScaHFX=  1.000000
 ScaDFX=  1.000000  1.000000  1.000000  1.000000  1.000000  0.000000
 ScaDFX=  0.000000  0.000000  0.000000  0.000000  0.000000  0.000000
 IRadAn=      5 IRanWt=     -1 IRanGd=            0 ICorTp=0 IEmpDi=  4
 NAtoms=   14 NActive=   14 NUniq=   14 SFac= 1.00D+00 NAtFMM=   60 NAOKFM=F Big=F
 Integral buffers will be    131072 words long.
 Raffenetti 1 integral format.
 Two-electron integral symmetry is turned off.
 Leave Link  301 at Tue Nov 14 11:48:11 2023, MaxMem=   134217728 cpu:               0.1 elap:               0.0
 (Enter /home/emanuele/chem_software/gaussian//gdv/l402.exe)
 AMBER calculation of energy, first and second derivatives.
 ****************************
 MOLECULAR MECHANICS FUNCTION
 ****************************
 Atomic parameters:
 Center  VDW
      1 1.9080 0.1094000
      2 1.4870 0.0157000
      3 1.4870 0.0157000
      4 1.4870 0.0157000
      5 1.9080 0.1094000
      6 1.4870 0.0157000
      7 1.4870 0.0157000
      8 1.9080 0.1094000
      9 1.4870 0.0157000
     10 1.4870 0.0157000
     11 1.9080 0.1094000
     12 1.4870 0.0157000
     13 1.4870 0.0157000
     14 1.4870 0.0157000
 Molecular mechanics terms:
 NBDir 3 1      0      0
 HrmStr1  1- 2    0.00 1.0930
 HrmStr1  1- 3    0.00 1.0930
 HrmStr1  1- 4    0.00 1.0930
 HrmStr1  1- 5    0.00 1.5280
 HrmStr1  5- 6    0.00 1.0930
 HrmStr1  5- 7    0.00 1.0930
 HrmStr1  5- 8    0.00 1.5280
 HrmStr1  8- 9    0.00 1.0930
 HrmStr1  8-10    0.00 1.0930
 HrmStr1  8-11    0.00 1.5280
 HrmStr1 11-12    0.00 1.0930
 HrmStr1 11-13    0.00 1.0930
 HrmStr1 11-14    0.00 1.0930
 HrmBnd1  1- 5- 6   0.00   1.00
 HrmBnd1  1- 5- 7   0.00   1.00
 HrmBnd1  1- 5- 8   0.00   1.00
 HrmBnd1  2- 1- 3   0.00   1.00
 HrmBnd1  2- 1- 4   0.00   1.00
 HrmBnd1  5- 1- 2   0.00   1.00
 HrmBnd1  3- 1- 4   0.00   1.00
 HrmBnd1  5- 1- 3   0.00   1.00
 HrmBnd1  5- 1- 4   0.00   1.00
 HrmBnd1  5- 8- 9   0.00   1.00
 HrmBnd1  5- 8-10   0.00   1.00
 HrmBnd1  5- 8-11   0.00   1.00
 HrmBnd1  6- 5- 7   0.00   1.00
 HrmBnd1  8- 5- 6   0.00   1.00
 HrmBnd1  8- 5- 7   0.00   1.00
 HrmBnd1  8-11-12   0.00   1.00
 HrmBnd1  8-11-13   0.00   1.00
 HrmBnd1  8-11-14   0.00   1.00
 HrmBnd1  9- 8-10   0.00   1.00
 HrmBnd1 11- 8- 9   0.00   1.00
 HrmBnd1 11- 8-10   0.00   1.00
 HrmBnd1 12-11-13   0.00   1.00
 HrmBnd1 12-11-14   0.00   1.00
 HrmBnd1 13-11-14   0.00   1.00
 NBPair  2- 1 3 1      0      0 -1.000 -1.000
 NBPair  3- 2 3 1      0      0 -1.000 -1.000
 NBPair  4- 2 3 1      0      0 -1.000 -1.000
 NBPair  5- 2 3 1      0      0 -1.000 -1.000
 NBPair  3- 1 3 1      0      0 -1.000 -1.000
 NBPair  4- 3 3 1      0      0 -1.000 -1.000
 NBPair  5- 3 3 1      0      0 -1.000 -1.000
 NBPair  4- 1 3 1      0      0 -1.000 -1.000
 NBPair  5- 4 3 1      0      0 -1.000 -1.000
 NBPair  5- 1 3 1      0      0 -1.000 -1.000
 NBPair  6- 2 3 1      0      0 -0.500 -0.167
 NBPair  7- 2 3 1      0      0 -0.500 -0.167
 NBPair  8- 2 3 1      0      0 -0.500 -0.167
 NBPair  6- 3 3 1      0      0 -0.500 -0.167
 NBPair  7- 3 3 1      0      0 -0.500 -0.167
 NBPair  8- 3 3 1      0      0 -0.500 -0.167
 NBPair  6- 4 3 1      0      0 -0.500 -0.167
 NBPair  7- 4 3 1      0      0 -0.500 -0.167
 NBPair  8- 4 3 1      0      0 -0.500 -0.167
 NBPair  6- 1 3 1      0      0 -1.000 -1.000
 NBPair  7- 1 3 1      0      0 -1.000 -1.000
 NBPair  8- 1 3 1      0      0 -1.000 -1.000
 NBPair  6- 5 3 1      0      0 -1.000 -1.000
 NBPair  7- 6 3 1      0      0 -1.000 -1.000
 NBPair  8- 6 3 1      0      0 -1.000 -1.000
 NBPair  7- 5 3 1      0      0 -1.000 -1.000
 NBPair  8- 7 3 1      0      0 -1.000 -1.000
 NBPair  8- 5 3 1      0      0 -1.000 -1.000
 NBPair  9- 1 3 1      0      0 -0.500 -0.167
 NBPair 10- 1 3 1      0      0 -0.500 -0.167
 NBPair 11- 1 3 1      0      0 -0.500 -0.167
 NBPair  9- 6 3 1      0      0 -0.500 -0.167
 NBPair 10- 6 3 1      0      0 -0.500 -0.167
 NBPair 11- 6 3 1      0      0 -0.500 -0.167
 NBPair  9- 7 3 1      0      0 -0.500 -0.167
 NBPair 10- 7 3 1      0      0 -0.500 -0.167
 NBPair 11- 7 3 1      0      0 -0.500 -0.167
 NBPair  9- 5 3 1      0      0 -1.000 -1.000
 NBPair 10- 5 3 1      0      0 -1.000 -1.000
 NBPair 11- 5 3 1      0      0 -1.000 -1.000
 NBPair  9- 8 3 1      0      0 -1.000 -1.000
 NBPair 10- 9 3 1      0      0 -1.000 -1.000
 NBPair 11- 9 3 1      0      0 -1.000 -1.000
 NBPair 10- 8 3 1      0      0 -1.000 -1.000
 NBPair 11-10 3 1      0      0 -1.000 -1.000
 NBPair 11- 8 3 1      0      0 -1.000 -1.000
 NBPair 12- 5 3 1      0      0 -0.500 -0.167
 NBPair 13- 5 3 1      0      0 -0.500 -0.167
 NBPair 14- 5 3 1      0      0 -0.500 -0.167
 NBPair 12- 9 3 1      0      0 -0.500 -0.167
 NBPair 13- 9 3 1      0      0 -0.500 -0.167
 NBPair 14- 9 3 1      0      0 -0.500 -0.167
 NBPair 12-10 3 1      0      0 -0.500 -0.167
 NBPair 13-10 3 1      0      0 -0.500 -0.167
 NBPair 14-10 3 1      0      0 -0.500 -0.167
 NBPair 12- 8 3 1      0      0 -1.000 -1.000
 NBPair 13- 8 3 1      0      0 -1.000 -1.000
 NBPair 14- 8 3 1      0      0 -1.000 -1.000
 NBPair 12-11 3 1      0      0 -1.000 -1.000
 NBPair 13-12 3 1      0      0 -1.000 -1.000
 NBPair 14-12 3 1      0      0 -1.000 -1.000
 NBPair 13-11 3 1      0      0 -1.000 -1.000
 NBPair 14-13 3 1      0      0 -1.000 -1.000
 NBPair 14-11 3 1      0      0 -1.000 -1.000
 Energy per function type:
 Direct Coulomb + vdW (small)                           0.007384490
 Direct Coulomb (large)                                -0.061862719
 Direct vdW (large)                                   562.808487927
 Non-direct Coulomb + vdW (small)                      -0.002652533
 Non-direct Coulomb (large)                             0.061862719
 Non-direct vdW (large)                              -562.808487927
 Energy per function class:
        Coulomb               0.003928767
    Vanderwaals               0.000803189
 Energy=    4.731956307E-03 NIter=   0.
 Dipole moment=      -0.000003       0.000002       0.000085
 Leave Link  402 at Tue Nov 14 11:48:11 2023, MaxMem=   134217728 cpu:               0.0 elap:               0.0
 (Enter /home/emanuele/chem_software/gaussian//gdv/l716.exe)
 Dipole        =-2.90412355D-06 2.38538995D-06 8.50114084D-05
 Full mass-weighted force constant matrix:
 Low frequencies ---  -93.3400  -90.4804  -89.8625  -81.0416  -71.6782  -68.3491
 Low frequencies ---  -67.0293  -62.2796  -60.6955
 ******   15 imaginary frequencies (negative Signs) ****** 
 Diagonal vibrational polarizability:
     1044.1290182    5607.0372275     835.6552033
 Harmonic frequencies (cm**-1), IR intensities (KM/Mole), Raman scattering
 activities (A**4/AMU), depolarization ratios for plane and unpolarized
 incident light, reduced masses (AMU), force constants (mDyne/A),
 and normal coordinates:
                      1                      2                      3
                      A                      A                      A
 Frequencies --    -93.3400               -90.2195               -81.0416
 Red. masses --      1.0227                 1.0384                 1.0084
 Frc consts  --      0.0052                 0.0050                 0.0039
 IR Inten    --      2.8395                 0.0000                 1.2358
  Atom  AN      X      Y      Z        X      Y      Z        X      Y      Z
     1   6     0.02   0.01   0.00    -0.02  -0.02  -0.00    -0.00  -0.00  -0.00
     2   1    -0.14   0.15  -0.00    -0.16   0.04   0.00    -0.00   0.00  -0.03
     3   1    -0.01  -0.02  -0.02     0.07   0.06   0.30     0.09  -0.03   0.37
     4   1    -0.01  -0.02   0.02     0.07   0.06  -0.30    -0.09   0.03   0.37
     5   6    -0.00   0.00  -0.00     0.02  -0.00  -0.00     0.00  -0.00  -0.00
     6   1    -0.05  -0.13  -0.46    -0.06  -0.02  -0.36    -0.02  -0.08  -0.31
     7   1    -0.05  -0.13   0.46    -0.06  -0.02   0.36     0.02   0.08  -0.31
     8   6    -0.00   0.00  -0.00    -0.02   0.00   0.00    -0.00   0.00  -0.00
     9   1    -0.05  -0.13   0.46     0.06   0.02  -0.36     0.02   0.08  -0.31
    10   1    -0.05  -0.13  -0.46     0.06   0.02   0.36    -0.02  -0.08  -0.31
    11   6     0.02   0.01   0.00     0.02   0.02   0.00     0.00   0.00  -0.00
    12   1    -0.01  -0.02   0.02    -0.07  -0.06   0.30    -0.09   0.03   0.37
    13   1    -0.14   0.15  -0.00     0.16  -0.04   0.00     0.00  -0.00  -0.03
    14   1    -0.01  -0.02  -0.02    -0.07  -0.06  -0.30     0.09  -0.03   0.37
                      4                      5                      6
                      A                      A                      A
 Frequencies --    -68.6140               -68.3491               -63.3319
 Red. masses --      1.2374                 1.0518                 1.0250
 Frc consts  --      0.0034                 0.0029                 0.0024
 IR Inten    --      0.0000                 6.8686                 0.0000
  Atom  AN      X      Y      Z        X      Y      Z        X      Y      Z
     1   6     0.00   0.00  -0.07    -0.04  -0.00  -0.00    -0.02   0.01   0.00
     2   1    -0.00  -0.00   0.04     0.23   0.55   0.00     0.22   0.52  -0.00
     3   1     0.08   0.02   0.37     0.05  -0.13   0.12    -0.03  -0.25   0.06
     4   1    -0.08  -0.02   0.37     0.05  -0.13  -0.12    -0.03  -0.25  -0.06
     5   6    -0.00  -0.00  -0.07     0.01   0.01  -0.00     0.01  -0.01   0.00
     6   1     0.04   0.07   0.31     0.04  -0.18   0.08     0.09  -0.12  -0.01
     7   1    -0.04  -0.07   0.31     0.04  -0.18  -0.08     0.09  -0.12   0.01
     8   6    -0.00  -0.00   0.07     0.01   0.01   0.00    -0.01   0.01  -0.00
     9   1     0.04   0.07  -0.31     0.04  -0.18  -0.08    -0.09   0.12  -0.01
    10   1    -0.04  -0.07  -0.31     0.04  -0.18   0.08    -0.09   0.12   0.01
    11   6     0.00  -0.00   0.07    -0.04  -0.00   0.00     0.02  -0.01  -0.00
    12   1     0.08   0.02  -0.37     0.05  -0.13  -0.12     0.03   0.25   0.06
    13   1    -0.00  -0.00  -0.04     0.23   0.55  -0.00    -0.22  -0.52  -0.00
    14   1    -0.08  -0.02  -0.37     0.05  -0.13   0.12     0.03   0.25  -0.06
                      7                      8                      9
                      A                      A                      A
 Frequencies --    -62.2796               -54.2490               -54.1693
 Red. masses --      1.0804                 1.8812                 1.0468
 Frc consts  --      0.0025                 0.0033                 0.0018
 IR Inten    --      0.4906                 0.0000                 3.4935
  Atom  AN      X      Y      Z        X      Y      Z        X      Y      Z
     1   6    -0.03  -0.00   0.00    -0.00  -0.00   0.13     0.00  -0.00  -0.04
     2   1     0.03   0.14   0.00    -0.00   0.00  -0.38     0.00   0.00   0.44
     3   1    -0.08  -0.02  -0.48    -0.10   0.11  -0.20    -0.06  -0.33  -0.06
     4   1    -0.08  -0.02   0.48     0.10  -0.11  -0.20     0.06   0.33  -0.06
     5   6     0.05  -0.00   0.00     0.00  -0.00  -0.15    -0.00  -0.00   0.02
     6   1    -0.02  -0.02   0.04    -0.05   0.25   0.19     0.12  -0.13  -0.05
     7   1    -0.02  -0.02  -0.04     0.05  -0.25   0.19    -0.12   0.13  -0.05
     8   6     0.05  -0.00  -0.00     0.00   0.00   0.15     0.00   0.00   0.02
     9   1    -0.02  -0.02  -0.04    -0.05   0.25  -0.19    -0.12   0.13  -0.05
    10   1    -0.02  -0.02   0.04     0.05  -0.25  -0.19     0.12  -0.13  -0.05
    11   6    -0.03  -0.00  -0.00    -0.00   0.00  -0.13    -0.00   0.00  -0.04
    12   1    -0.08  -0.02   0.48    -0.10   0.11   0.20     0.06   0.33  -0.06
    13   1     0.03   0.14  -0.00     0.00  -0.00   0.38    -0.00  -0.00   0.44
    14   1    -0.08  -0.02  -0.48     0.10  -0.11   0.20    -0.06  -0.33  -0.06
                     10                     11                     12
                      A                      A                      A
 Frequencies --    -52.6419               -30.8294               -24.2635
 Red. masses --      1.5202                 1.2346                 1.1981
 Frc consts  --      0.0025                 0.0007                 0.0004
 IR Inten    --      0.0000                 0.0000                 0.0000
  Atom  AN      X      Y      Z        X      Y      Z        X      Y      Z
     1   6     0.07  -0.13   0.00     0.07  -0.00  -0.00    -0.00  -0.00  -0.01
     2   1    -0.01   0.47  -0.00     0.11  -0.00   0.00    -0.00  -0.00   0.58
     3   1     0.04   0.30  -0.14     0.05   0.07   0.37    -0.05  -0.13  -0.21
     4   1     0.04   0.30   0.14     0.05   0.07  -0.37     0.05   0.13  -0.21
     5   6    -0.02  -0.02   0.00     0.07  -0.00  -0.00    -0.00   0.00  -0.09
     6   1    -0.11   0.09   0.00    -0.01   0.04   0.30     0.05  -0.07   0.10
     7   1    -0.11   0.09  -0.00    -0.01   0.04  -0.30    -0.05   0.07   0.10
     8   6     0.02   0.02  -0.00    -0.07   0.00   0.00     0.00   0.00   0.09
     9   1     0.11  -0.09   0.00     0.01  -0.04   0.30     0.05  -0.07  -0.10
    10   1     0.11  -0.09  -0.00     0.01  -0.04  -0.30    -0.05   0.07  -0.10
    11   6    -0.07   0.13   0.00    -0.07   0.00  -0.00     0.00  -0.00   0.01
    12   1    -0.04  -0.30  -0.14    -0.05  -0.07   0.37    -0.05  -0.13   0.21
    13   1     0.01  -0.47  -0.00    -0.11   0.00  -0.00     0.00  -0.00  -0.58
    14   1    -0.04  -0.30   0.14    -0.05  -0.07  -0.37     0.05   0.13   0.21
                     13                     14                     15
                      A                      A                      A
 Frequencies --    -20.3350               -12.6241               -10.7699
 Red. masses --      1.9157                11.1388                 4.4117
 Frc consts  --      0.0005                 0.0010                 0.0003
 IR Inten    --     25.8229                 0.0000                20.3079
  Atom  AN      X      Y      Z        X      Y      Z        X      Y      Z
     1   6    -0.07  -0.05  -0.00     0.00   0.14   0.00    -0.16   0.28   0.00
     2   1    -0.03  -0.41  -0.00    -0.08  -0.02   0.00     0.03  -0.39   0.00
     3   1     0.03  -0.29   0.02     0.04   0.08   0.02     0.14  -0.12   0.05
     4   1     0.03  -0.29  -0.02     0.04   0.08  -0.02     0.14  -0.12  -0.05
     5   6     0.06   0.17   0.00    -0.08  -0.66  -0.00     0.12  -0.19  -0.00
     6   1     0.02  -0.25  -0.01    -0.07   0.04   0.03     0.08  -0.23  -0.03
     7   1     0.02  -0.25   0.01    -0.07   0.04  -0.03     0.08  -0.23   0.03
     8   6     0.06   0.17  -0.00     0.08   0.66   0.00     0.12  -0.19  -0.00
     9   1     0.02  -0.25   0.01     0.07  -0.04   0.03     0.08  -0.23   0.03
    10   1     0.02  -0.25  -0.01     0.07  -0.04  -0.03     0.08  -0.23  -0.03
    11   6    -0.07  -0.05  -0.00    -0.00  -0.14   0.00    -0.16   0.28   0.00
    12   1     0.03  -0.29  -0.02    -0.04  -0.08   0.02     0.14  -0.12  -0.05
    13   1    -0.03  -0.41   0.00     0.08   0.02  -0.00     0.03  -0.39   0.00
    14   1     0.03  -0.29   0.02    -0.04  -0.08  -0.02     0.14  -0.12   0.05
                     16                     17                     18
                      A                      A                      A
 Frequencies --     11.2428                42.1560                45.5392
 Red. masses --      5.6753                 3.6569                 1.1413
 Frc consts  --      0.0004                 0.0038                 0.0014
 IR Inten    --      0.6791                 0.0000                34.9311
  Atom  AN      X      Y      Z        X      Y      Z        X      Y      Z
     1   6    -0.00   0.00  -0.28    -0.14   0.05   0.00    -0.00   0.00  -0.08
     2   1    -0.00  -0.00  -0.37    -0.02   0.16  -0.00     0.00   0.00   0.48
     3   1    -0.09   0.10  -0.12    -0.24   0.23  -0.19     0.06   0.29   0.15
     4   1     0.09  -0.10  -0.12    -0.24   0.23   0.19    -0.06  -0.29   0.15
     5   6     0.00  -0.00   0.36     0.31  -0.03   0.00     0.00  -0.00  -0.01
     6   1    -0.02   0.07  -0.19    -0.00   0.18  -0.02    -0.01   0.07   0.13
     7   1     0.02  -0.07  -0.19    -0.00   0.18   0.02     0.01  -0.07   0.13
     8   6     0.00   0.00   0.36    -0.31   0.03   0.00    -0.00   0.00  -0.01
     9   1     0.02  -0.07  -0.19     0.00  -0.18  -0.02     0.01  -0.07   0.13
    10   1    -0.02   0.07  -0.19     0.00  -0.18   0.02    -0.01   0.07   0.13
    11   6    -0.00   0.00  -0.28     0.14  -0.05   0.00     0.00   0.00  -0.08
    12   1     0.09  -0.10  -0.12     0.24  -0.23  -0.19    -0.06  -0.29   0.15
    13   1     0.00  -0.00  -0.37     0.02  -0.16  -0.00     0.00  -0.00   0.48
    14   1    -0.09   0.10  -0.12     0.24  -0.23   0.19     0.06   0.29   0.15
                     19                     20                     21
                      A                      A                      A
 Frequencies --     54.8763                56.8591                58.6503
 Red. masses --      1.1031                 1.0820                 2.0058
 Frc consts  --      0.0020                 0.0021                 0.0041
 IR Inten    --     22.4053                 0.0000                19.5598
  Atom  AN      X      Y      Z        X      Y      Z        X      Y      Z
     1   6    -0.00   0.00  -0.06    -0.00  -0.00  -0.01    -0.13  -0.09  -0.00
     2   1     0.00  -0.00  -0.23    -0.00   0.00   0.22    -0.13   0.08  -0.00
     3   1     0.01  -0.20   0.26     0.05   0.40   0.06     0.12   0.41   0.11
     4   1    -0.01   0.20   0.26    -0.05  -0.40   0.06     0.12   0.42  -0.11
     5   6     0.00   0.00  -0.02     0.00   0.00  -0.06     0.14   0.01   0.00
     6   1     0.05   0.01   0.33    -0.02   0.06  -0.23    -0.11   0.04  -0.04
     7   1    -0.05  -0.01   0.33     0.02  -0.06  -0.23    -0.11   0.04   0.04
     8   6    -0.00  -0.00  -0.02     0.00   0.00   0.06     0.14   0.01  -0.00
     9   1    -0.05  -0.01   0.33    -0.02   0.06   0.23    -0.11   0.04   0.04
    10   1     0.05   0.01   0.33     0.02  -0.06   0.23    -0.11   0.04  -0.04
    11   6     0.00   0.00  -0.06    -0.00  -0.00   0.01    -0.13  -0.09  -0.00
    12   1    -0.01   0.20   0.26     0.05   0.40  -0.06     0.12   0.41  -0.11
    13   1     0.00  -0.00  -0.23    -0.00   0.00  -0.22    -0.13   0.08   0.00
    14   1     0.01  -0.20   0.26    -0.05  -0.40  -0.06     0.12   0.42   0.11
                     22                     23                     24
                      A                      A                      A
 Frequencies --     71.7987               105.3376               127.5187
 Red. masses --      3.1718                 1.1369                 1.0129
 Frc consts  --      0.0096                 0.0074                 0.0097
 IR Inten    --      0.0000                 9.6867                 0.0000
  Atom  AN      X      Y      Z        X      Y      Z        X      Y      Z
     1   6     0.28   0.06  -0.00    -0.02   0.00  -0.00     0.00  -0.00  -0.01
     2   1    -0.22  -0.06   0.00    -0.27   0.14  -0.00     0.00  -0.00   0.14
     3   1    -0.09  -0.22  -0.19    -0.09  -0.29   0.08    -0.11  -0.19   0.08
     4   1    -0.09  -0.22   0.19    -0.09  -0.29  -0.08     0.11   0.19   0.08
     5   6     0.13  -0.01  -0.00     0.07  -0.01  -0.00     0.00  -0.00   0.01
     6   1    -0.12  -0.13  -0.23    -0.12   0.29  -0.00    -0.08   0.39  -0.16
     7   1    -0.12  -0.13   0.23    -0.12   0.29   0.00     0.08  -0.39  -0.16
     8   6    -0.13   0.01  -0.00     0.07  -0.01  -0.00    -0.00   0.00  -0.01
     9   1     0.12   0.13  -0.23    -0.12   0.29   0.00    -0.08   0.39   0.16
    10   1     0.12   0.13   0.23    -0.12   0.29  -0.00     0.08  -0.39   0.16
    11   6    -0.28  -0.06  -0.00    -0.02   0.00   0.00    -0.00  -0.00   0.01
    12   1     0.09   0.22  -0.19    -0.09  -0.29  -0.08    -0.11  -0.19  -0.08
    13   1     0.22   0.06  -0.00    -0.27   0.14   0.00    -0.00   0.00  -0.14
    14   1     0.09   0.22   0.19    -0.09  -0.29   0.08     0.11   0.19  -0.08
                     25                     26                     27
                      A                      A                      A
 Frequencies --    146.7222               173.7567               182.6006
 Red. masses --      1.0255                 1.0971                 1.0105
 Frc consts  --      0.0130                 0.0195                 0.0199
 IR Inten    --      0.0000                22.3394                 0.1047
  Atom  AN      X      Y      Z        X      Y      Z        X      Y      Z
     1   6     0.02   0.01   0.00    -0.06  -0.03  -0.00    -0.00  -0.00   0.01
     2   1     0.47  -0.13  -0.00     0.51  -0.09  -0.00     0.00  -0.00   0.08
     3   1     0.05   0.21  -0.04     0.03  -0.06  -0.01    -0.17  -0.12   0.05
     4   1     0.05   0.21   0.04     0.03  -0.06   0.01     0.17   0.12   0.05
     5   6     0.01  -0.00  -0.00    -0.01   0.00   0.00     0.00   0.00  -0.01
     6   1     0.13  -0.23  -0.11     0.11   0.25  -0.19    -0.11   0.43  -0.08
     7   1     0.13  -0.23   0.11     0.11   0.25   0.19     0.11  -0.43  -0.08
     8   6    -0.01   0.00   0.00    -0.01   0.00   0.00    -0.00   0.00  -0.01
     9   1    -0.13   0.23  -0.11     0.11   0.25   0.19     0.11  -0.43  -0.08
    10   1    -0.13   0.23   0.11     0.11   0.25  -0.19    -0.11   0.43  -0.08
    11   6    -0.02  -0.01  -0.00    -0.06  -0.03  -0.00     0.00   0.00   0.01
    12   1    -0.05  -0.21  -0.04     0.03  -0.06   0.01     0.17   0.12   0.05
    13   1    -0.47   0.13   0.00     0.51  -0.09  -0.00     0.00  -0.00   0.08
    14   1    -0.05  -0.21   0.04     0.03  -0.06  -0.01    -0.17  -0.12   0.05
                     28                     29                     30
                      A                      A                      A
 Frequencies --    201.0714               209.9458               221.6038
 Red. masses --      1.0631                 1.0175                 1.0801
 Frc consts  --      0.0253                 0.0264                 0.0313
 IR Inten    --      0.0000                 0.0000                19.2891
  Atom  AN      X      Y      Z        X      Y      Z        X      Y      Z
     1   6    -0.03  -0.01  -0.00    -0.00  -0.00   0.01    -0.03  -0.01  -0.00
     2   1    -0.34   0.05  -0.00    -0.00   0.00   0.07    -0.28   0.07   0.00
     3   1     0.23   0.04  -0.05    -0.37   0.07   0.11     0.39  -0.06  -0.09
     4   1     0.23   0.04   0.05     0.37  -0.07   0.11     0.39  -0.06   0.09
     5   6     0.04  -0.00  -0.00     0.00  -0.00   0.02    -0.05   0.00  -0.00
     6   1    -0.01  -0.34   0.13    -0.27  -0.13   0.06     0.20   0.08  -0.01
     7   1    -0.01  -0.34  -0.13     0.27   0.13   0.06     0.20   0.08   0.01
     8   6    -0.04   0.00   0.00    -0.00   0.00  -0.02    -0.05   0.00   0.00
     9   1     0.01   0.34   0.13    -0.27  -0.13  -0.06     0.20   0.08   0.01
    10   1     0.01   0.34  -0.13     0.27   0.13  -0.06     0.20   0.08  -0.01
    11   6     0.03   0.01   0.00     0.00   0.00  -0.01    -0.03  -0.01   0.00
    12   1    -0.23  -0.04  -0.05    -0.37   0.07  -0.11     0.39  -0.06   0.09
    13   1     0.34  -0.05   0.00     0.00  -0.00  -0.07    -0.28   0.07   0.00
    14   1    -0.23  -0.04   0.05     0.37  -0.07  -0.11     0.39  -0.06  -0.09
                     31                     32                     33
                      A                      A                      A
 Frequencies --    232.8658               246.3149               294.9886
 Red. masses --      1.0136                 1.0418                 1.0109
 Frc consts  --      0.0324                 0.0372                 0.0518
 IR Inten    --      0.0867                 0.0000                 1.0452
  Atom  AN      X      Y      Z        X      Y      Z        X      Y      Z
     1   6    -0.00  -0.00   0.01    -0.02  -0.00   0.00    -0.00  -0.00   0.01
     2   1    -0.00   0.00  -0.06     0.24  -0.05  -0.00    -0.00   0.00  -0.05
     3   1    -0.40   0.13   0.09     0.36  -0.13  -0.08     0.21   0.01  -0.03
     4   1     0.40  -0.13   0.09     0.36  -0.13   0.08    -0.21  -0.01  -0.03
     5   6    -0.00   0.00  -0.01     0.04  -0.00  -0.00     0.00  -0.00   0.00
     6   1     0.23  -0.08  -0.02    -0.20   0.15  -0.04     0.41   0.19  -0.04
     7   1    -0.23   0.08  -0.02    -0.20   0.15   0.04    -0.41  -0.19  -0.04
     8   6     0.00  -0.00  -0.01    -0.04   0.00  -0.00     0.00   0.00   0.00
     9   1    -0.23   0.08  -0.02     0.20  -0.15  -0.04    -0.41  -0.19  -0.04
    10   1     0.23  -0.08  -0.02     0.20  -0.15   0.04     0.41   0.19  -0.04
    11   6    -0.00  -0.00   0.01     0.02   0.00   0.00    -0.00  -0.00   0.01
    12   1     0.40  -0.13   0.09    -0.36   0.13  -0.08    -0.21  -0.01  -0.03
    13   1     0.00  -0.00  -0.06    -0.24   0.05  -0.00    -0.00  -0.00  -0.05
    14   1    -0.40   0.13   0.09    -0.36   0.13   0.08     0.21   0.01  -0.03
                     34                     35                     36
                      A                      A                      A
 Frequencies --    295.4898               307.2555               308.3253
 Red. masses --      1.0102                 1.0329                 1.0301
 Frc consts  --      0.0520                 0.0575                 0.0577
 IR Inten    --      0.0000                 0.0000                 0.7583
  Atom  AN      X      Y      Z        X      Y      Z        X      Y      Z
     1   6     0.00   0.00  -0.01     0.03   0.01   0.00    -0.03  -0.01   0.00
     2   1    -0.00   0.00  -0.06    -0.14   0.04   0.00    -0.17   0.04   0.00
     3   1    -0.28   0.05   0.03     0.20   0.01  -0.03    -0.26   0.05   0.04
     4   1     0.28  -0.05   0.03     0.20   0.01   0.03    -0.26   0.05  -0.04
     5   6     0.00  -0.00   0.01     0.01  -0.00  -0.00     0.02  -0.00  -0.00
     6   1     0.40   0.01  -0.03     0.41   0.18  -0.04     0.40   0.00  -0.02
     7   1    -0.40  -0.01  -0.03     0.41   0.18   0.04     0.40   0.00   0.02
     8   6    -0.00   0.00  -0.01    -0.01   0.00   0.00     0.02  -0.00  -0.00
     9   1     0.40   0.01   0.03    -0.41  -0.18  -0.04     0.40   0.00   0.02
    10   1    -0.40  -0.01   0.03    -0.41  -0.18   0.04     0.40   0.00  -0.02
    11   6    -0.00  -0.00   0.01    -0.03  -0.01  -0.00    -0.03  -0.01  -0.00
    12   1    -0.28   0.05  -0.03    -0.20  -0.01  -0.03    -0.26   0.05  -0.04
    13   1     0.00  -0.00   0.06     0.14  -0.04  -0.00    -0.17   0.04   0.00
    14   1     0.28  -0.05  -0.03    -0.20  -0.01   0.03    -0.26   0.05   0.04

 -------------------
 - Thermochemistry -
 -------------------
 Temperature   298.150 Kelvin.  Pressure      1.00000 Atm.
 Atom     1 has atomic number  6 and mass  12.00000
 Atom     2 has atomic number  1 and mass   1.00783
 Atom     3 has atomic number  1 and mass   1.00783
 Atom     4 has atomic number  1 and mass   1.00783
 Atom     5 has atomic number  6 and mass  12.00000
 Atom     6 has atomic number  1 and mass   1.00783
 Atom     7 has atomic number  1 and mass   1.00783
 Atom     8 has atomic number  6 and mass  12.00000
 Atom     9 has atomic number  1 and mass   1.00783
 Atom    10 has atomic number  1 and mass   1.00783
 Atom    11 has atomic number  6 and mass  12.00000
 Atom    12 has atomic number  1 and mass   1.00783
 Atom    13 has atomic number  1 and mass   1.00783
 Atom    14 has atomic number  1 and mass   1.00783
 Molecular mass:    58.07825 amu.
 Principal axes and moments of inertia in atomic units:
                                 1                 2                 3
     Eigenvalues --           76.434357        498.834054        530.938426
           X                   0.999985         -0.005557          0.000000
           Y                   0.005557          0.999985          0.000000
           Z                   0.000000         -0.000000          1.000000
 This molecule is an asymmetric top.
 Rotational symmetry number  2.
 Rotational temperatures (Kelvin)      1.13318     0.17363     0.16313
 Rotational constants (GHZ):          23.61165     3.61792     3.39915
   15 imaginary frequencies ignored.
 Zero-point vibrational energy      20306.1 (Joules/Mol)
                                    4.85328 (Kcal/Mol)
 Warning -- explicit consideration of  21 degrees of freedom as
           vibrations may cause significant error
 Vibrational temperatures:     16.18    60.65    65.52    78.95    81.81
          (Kelvin)             84.38   103.30   151.56   183.47   211.10
                              250.00   262.72   289.30   302.07   318.84
                              335.04   354.39   424.42   425.14   442.07
                              443.61
 
 Zero-point correction=                           0.007734 (Hartree/Particle)
 Thermal correction to Energy=                    0.023990
 Thermal correction to Enthalpy=                  0.024934
 Thermal correction to Gibbs Free Energy=        -0.034974
 Sum of electronic and zero-point Energies=              0.012466
 Sum of electronic and thermal Energies=                 0.028722
 Sum of electronic and thermal Enthalpies=               0.029666
 Sum of electronic and thermal Free Energies=           -0.030242
 
                     E (Thermal)             CV                S
                      KCal/Mol        Cal/Mol-Kelvin    Cal/Mol-Kelvin
 Total                   15.054             45.030            126.087
 Electronic               0.000              0.000              0.000
 Translational            0.889              2.981             38.098
 Rotational               0.889              2.981             23.141
 Vibrational             13.276             39.068             64.847
 Vibration     1          0.593              1.987              7.778
 Vibration     2          0.595              1.980              5.155
 Vibration     3          0.595              1.979              5.002
 Vibration     4          0.596              1.976              4.633
 Vibration     5          0.596              1.975              4.563
 Vibration     6          0.596              1.974              4.502
 Vibration     7          0.598              1.967              4.103
 Vibration     8          0.605              1.945              3.353
 Vibration     9          0.611              1.926              2.983
 Vibration    10          0.617              1.906              2.714
 Vibration    11          0.627              1.875              2.394
 Vibration    12          0.630              1.863              2.302
 Vibration    13          0.638              1.838              2.123
 Vibration    14          0.642              1.826              2.044
 Vibration    15          0.648              1.808              1.946
 Vibration    16          0.654              1.791              1.857
 Vibration    17          0.661              1.769              1.757
 Vibration    18          0.689              1.683              1.445
 Vibration    19          0.690              1.682              1.442
 Vibration    20          0.697              1.660              1.377
 Vibration    21          0.698              1.658              1.371
                       Q            Log10(Q)             Ln(Q)
 Total Bot       0.122172D+17         16.086971         37.041619
 Total V=0       0.441012D+20         19.644450         45.233019
 Vib (Bot)       0.275763D+05          4.440537         10.224714
 Vib (Bot)    1  0.184296D+02          1.265515          2.913956
 Vib (Bot)    2  0.490719D+01          0.690833          1.590702
 Vib (Bot)    3  0.454132D+01          0.657183          1.513219
 Vib (Bot)    4  0.376520D+01          0.575788          1.325801
 Vib (Bot)    5  0.363312D+01          0.560280          1.290092
 Vib (Bot)    6  0.352146D+01          0.546722          1.258875
 Vib (Bot)    7  0.287180D+01          0.458155          1.054941
 Vib (Bot)    8  0.194622D+01          0.289192          0.665890
 Vib (Bot)    9  0.159969D+01          0.204037          0.469812
 Vib (Bot)   10  0.138328D+01          0.140911          0.324461
 Vib (Bot)   11  0.115838D+01          0.063851          0.147022
 Vib (Bot)   12  0.109895D+01          0.040978          0.094356
 Vib (Bot)   13  0.991256D+00         -0.003814         -0.008782
 Vib (Bot)   14  0.946055D+00         -0.024084         -0.055454
 Vib (Bot)   15  0.891998D+00         -0.049636         -0.114292
 Vib (Bot)   16  0.844735D+00         -0.073280         -0.168732
 Vib (Bot)   17  0.793741D+00         -0.100321         -0.230998
 Vib (Bot)   18  0.646498D+00         -0.189433         -0.436185
 Vib (Bot)   19  0.645222D+00         -0.190291         -0.438161
 Vib (Bot)   20  0.616402D+00         -0.210136         -0.483857
 Vib (Bot)   21  0.613884D+00         -0.211913         -0.487949
 Vib (V=0)       0.995442D+08          7.998016         18.416113
 Vib (V=0)    1  0.189363D+02          1.277296          2.941083
 Vib (V=0)    2  0.543260D+01          0.735008          1.692417
 Vib (V=0)    3  0.506877D+01          0.704902          1.623098
 Vib (V=0)    4  0.429825D+01          0.633292          1.458209
 Vib (V=0)    5  0.416737D+01          0.619862          1.427284
 Vib (V=0)    6  0.405678D+01          0.608181          1.400389
 Vib (V=0)    7  0.341501D+01          0.533391          1.228179
 Vib (V=0)    8  0.250942D+01          0.399574          0.920053
 Vib (V=0)    9  0.217601D+01          0.337661          0.777494
 Vib (V=0)   10  0.197088D+01          0.294659          0.678478
 Vib (V=0)   11  0.176168D+01          0.245928          0.566270
 Vib (V=0)   12  0.170735D+01          0.232323          0.534942
 Vib (V=0)   13  0.161022D+01          0.206885          0.476371
 Vib (V=0)   14  0.157006D+01          0.195915          0.451111
 Vib (V=0)   15  0.152258D+01          0.182579          0.420403
 Vib (V=0)   16  0.148162D+01          0.170737          0.393136
 Vib (V=0)   17  0.143810D+01          0.157788          0.363320
 Vib (V=0)   18  0.131729D+01          0.119681          0.275575
 Vib (V=0)   19  0.131628D+01          0.119348          0.274809
 Vib (V=0)   20  0.129369D+01          0.111832          0.257502
 Vib (V=0)   21  0.129174D+01          0.111175          0.255991
 Electronic      0.100000D+01          0.000000          0.000000
 Translational   0.173970D+08          7.240474         16.671808
 Rotational      0.254660D+05          4.405960         10.145098
                           ----------------------------
                           ! Normal Mode     1        !
 --------------------------                            --------------------------
 ! Name  Definition              Value          Relative Weight (%)             !
 --------------------------------------------------------------------------------
 ! R5    R(5,6)                  0.2915                  4.3                    !
 ! R6    R(5,7)                  0.2915                  4.3                    !
 ! R8    R(8,9)                 -0.2915                  4.3                    !
 ! R9    R(8,10)                -0.2915                  4.3                    !
 ! A1    A(2,1,3)                0.0732                  1.1                    !
 ! A2    A(2,1,4)                0.0732                  1.1                    !
 ! A3    A(2,1,5)               -0.0958                  1.4                    !
 ! A7    A(1,5,6)               -0.0591                  0.9                    !
 ! A8    A(1,5,7)               -0.0591                  0.9                    !
 ! A10   A(6,5,7)                0.3606                  5.3                    !
 ! A11   A(6,5,8)               -0.112                   1.6                    !
 ! A12   A(7,5,8)               -0.112                   1.6                    !
 ! A13   A(5,8,9)                0.112                   1.6                    !
 ! A14   A(5,8,10)               0.112                   1.6                    !
 ! A16   A(9,8,10)              -0.3606                  5.3                    !
 ! A17   A(9,8,11)               0.0591                  0.9                    !
 ! A18   A(10,8,11)              0.0591                  0.9                    !
 ! A20   A(8,11,13)              0.0958                  1.4                    !
 ! A22   A(12,11,13)            -0.0732                  1.1                    !
 ! A24   A(13,11,14)            -0.0732                  1.1                    !
 ! D1    D(2,1,5,6)              0.1833                  2.7                    !
 ! D2    D(2,1,5,7)             -0.1833                  2.7                    !
 ! D4    D(3,1,5,6)              0.169                   2.5                    !
 ! D5    D(3,1,5,7)             -0.1975                  2.9                    !
 ! D7    D(4,1,5,6)              0.1975                  2.9                    !
 ! D8    D(4,1,5,7)             -0.169                   2.5                    !
 ! D10   D(1,5,8,9)              0.1535                  2.2                    !
 ! D11   D(1,5,8,10)            -0.1535                  2.2                    !
 ! D14   D(6,5,8,10)            -0.3069                  4.5                    !
 ! D15   D(6,5,8,11)            -0.1535                  2.2                    !
 ! D16   D(7,5,8,9)              0.307                   4.5                    !
 ! D18   D(7,5,8,11)             0.1535                  2.2                    !
 ! D22   D(9,8,11,12)           -0.169                   2.5                    !
 ! D23   D(9,8,11,13)           -0.1833                  2.7                    !
 ! D24   D(9,8,11,14)           -0.1975                  2.9                    !
 ! D25   D(10,8,11,12)           0.1975                  2.9                    !
 ! D26   D(10,8,11,13)           0.1832                  2.7                    !
 ! D27   D(10,8,11,14)           0.169                   2.5                    !
 --------------------------------------------------------------------------------
                           ----------------------------
                           ! Normal Mode     2        !
 --------------------------                            --------------------------
 ! Name  Definition              Value          Relative Weight (%)             !
 --------------------------------------------------------------------------------
 ! R1    R(1,2)                 -0.0513                  0.8                    !
 ! R2    R(1,3)                 -0.281                   4.4                    !
 ! R3    R(1,4)                 -0.2811                  4.4                    !
 ! R5    R(5,6)                  0.2862                  4.5                    !
 ! R6    R(5,7)                  0.2864                  4.5                    !
 ! R8    R(8,9)                  0.2863                  4.5                    !
 ! R9    R(8,10)                 0.2864                  4.5                    !
 ! R11   R(11,12)               -0.2809                  4.4                    !
 ! R12   R(11,13)               -0.0513                  0.8                    !
 ! R13   R(11,14)               -0.2811                  4.4                    !
 ! A3    A(2,1,5)               -0.0812                  1.3                    !
 ! A4    A(3,1,4)               -0.1271                  2.0                    !
 ! A5    A(3,1,5)                0.0826                  1.3                    !
 ! A6    A(4,1,5)                0.0826                  1.3                    !
 ! A10   A(6,5,7)                0.2146                  3.4                    !
 ! A11   A(6,5,8)               -0.0894                  1.4                    !
 ! A12   A(7,5,8)               -0.0894                  1.4                    !
 ! A13   A(5,8,9)               -0.0894                  1.4                    !
 ! A14   A(5,8,10)              -0.0894                  1.4                    !
 ! A16   A(9,8,10)               0.2146                  3.4                    !
 ! A19   A(8,11,12)              0.0826                  1.3                    !
 ! A20   A(8,11,13)             -0.0812                  1.3                    !
 ! A21   A(8,11,14)              0.0826                  1.3                    !
 ! A23   A(12,11,14)            -0.1271                  2.0                    !
 ! D1    D(2,1,5,6)              0.1234                  2.0                    !
 ! D2    D(2,1,5,7)             -0.1235                  2.0                    !
 ! D4    D(3,1,5,6)              0.0982                  1.6                    !
 ! D5    D(3,1,5,7)             -0.1486                  2.4                    !
 ! D7    D(4,1,5,6)              0.1486                  2.4                    !
 ! D8    D(4,1,5,7)             -0.0983                  1.6                    !
 ! D10   D(1,5,8,9)             -0.0789                  1.2                    !
 ! D11   D(1,5,8,10)             0.0789                  1.2                    !
 ! D13   D(6,5,8,9)             -0.1578                  2.5                    !
 ! D15   D(6,5,8,11)            -0.0789                  1.2                    !
 ! D17   D(7,5,8,10)             0.1579                  2.5                    !
 ! D18   D(7,5,8,11)             0.0789                  1.2                    !
 ! D22   D(9,8,11,12)            0.0983                  1.6                    !
 ! D23   D(9,8,11,13)            0.1234                  2.0                    !
 ! D24   D(9,8,11,14)            0.1486                  2.4                    !
 ! D25   D(10,8,11,12)          -0.1486                  2.4                    !
 ! D26   D(10,8,11,13)          -0.1235                  2.0                    !
 ! D27   D(10,8,11,14)          -0.0983                  1.6                    !
 --------------------------------------------------------------------------------
                           ----------------------------
                           ! Normal Mode     3        !
 --------------------------                            --------------------------
 ! Name  Definition              Value          Relative Weight (%)             !
 --------------------------------------------------------------------------------
 ! R2    R(1,3)                 -0.2703                  5.4                    !
 ! R3    R(1,4)                  0.27                    5.4                    !
 ! R5    R(5,6)                  0.2024                  4.0                    !
 ! R6    R(5,7)                 -0.2022                  4.0                    !
 ! R8    R(8,9)                  0.2024                  4.0                    !
 ! R9    R(8,10)                -0.2022                  4.0                    !
 ! R11   R(11,12)               -0.2702                  5.4                    !
 ! R13   R(11,14)                0.2701                  5.4                    !
 ! A5    A(3,1,5)                0.1004                  2.0                    !
 ! A6    A(4,1,5)               -0.1003                  2.0                    !
 ! A11   A(6,5,8)               -0.068                   1.4                    !
 ! A12   A(7,5,8)                0.068                   1.4                    !
 ! A13   A(5,8,9)               -0.068                   1.4                    !
 ! A14   A(5,8,10)               0.068                   1.4                    !
 ! A19   A(8,11,12)              0.1004                  2.0                    !
 ! A21   A(8,11,14)             -0.1004                  2.0                    !
 ! D1    D(2,1,5,6)              0.1041                  2.1                    !
 ! D2    D(2,1,5,7)              0.104                   2.1                    !
 ! D6    D(3,1,5,8)             -0.0909                  1.8                    !
 ! D9    D(4,1,5,8)             -0.0909                  1.8                    !
 ! D10   D(1,5,8,9)             -0.1037                  2.1                    !
 ! D11   D(1,5,8,10)            -0.1037                  2.1                    !
 ! D13   D(6,5,8,9)             -0.2059                  4.1                    !
 ! D14   D(6,5,8,10)            -0.2059                  4.1                    !
 ! D15   D(6,5,8,11)            -0.1038                  2.1                    !
 ! D16   D(7,5,8,9)             -0.2058                  4.1                    !
 ! D17   D(7,5,8,10)            -0.2058                  4.1                    !
 ! D18   D(7,5,8,11)            -0.1037                  2.1                    !
 ! D19   D(5,8,11,12)           -0.0909                  1.8                    !
 ! D21   D(5,8,11,14)           -0.0909                  1.8                    !
 ! D23   D(9,8,11,13)            0.1041                  2.1                    !
 ! D26   D(10,8,11,13)           0.1041                  2.1                    !
 --------------------------------------------------------------------------------
                           ----------------------------
                           ! Normal Mode     4        !
 --------------------------                            --------------------------
 ! Name  Definition              Value          Relative Weight (%)             !
 --------------------------------------------------------------------------------
 ! R2    R(1,3)                 -0.3563                  5.1                    !
 ! R3    R(1,4)                  0.3566                  5.1                    !
 ! R5    R(5,6)                 -0.265                   3.8                    !
 ! R6    R(5,7)                  0.2657                  3.8                    !
 ! R8    R(8,9)                  0.2649                  3.8                    !
 ! R9    R(8,10)                -0.2658                  3.8                    !
 ! R11   R(11,12)                0.3564                  5.1                    !
 ! R13   R(11,14)               -0.3566                  5.1                    !
 ! A1    A(2,1,3)                0.0666                  1.0                    !
 ! A2    A(2,1,4)               -0.0669                  1.0                    !
 ! A5    A(3,1,5)                0.098                   1.4                    !
 ! A6    A(4,1,5)               -0.0984                  1.4                    !
 ! A11   A(6,5,8)                0.1273                  1.8                    !
 ! A12   A(7,5,8)               -0.1271                  1.8                    !
 ! A13   A(5,8,9)               -0.1272                  1.8                    !
 ! A14   A(5,8,10)               0.1272                  1.8                    !
 ! A19   A(8,11,12)             -0.098                   1.4                    !
 ! A21   A(8,11,14)              0.0984                  1.4                    !
 ! A22   A(12,11,13)            -0.0666                  1.0                    !
 ! A24   A(13,11,14)             0.0669                  1.0                    !
 ! D1    D(2,1,5,6)             -0.0809                  1.2                    !
 ! D2    D(2,1,5,7)             -0.0807                  1.2                    !
 ! D3    D(2,1,5,8)              0.1138                  1.6                    !
 ! D4    D(3,1,5,6)             -0.2324                  3.3                    !
 ! D5    D(3,1,5,7)             -0.2321                  3.3                    !
 ! D7    D(4,1,5,6)             -0.2327                  3.3                    !
 ! D8    D(4,1,5,7)             -0.2324                  3.3                    !
 ! D10   D(1,5,8,9)             -0.1468                  2.1                    !
 ! D11   D(1,5,8,10)            -0.1466                  2.1                    !
 ! D15   D(6,5,8,11)             0.1468                  2.1                    !
 ! D18   D(7,5,8,11)             0.1466                  2.1                    !
 ! D20   D(5,8,11,13)           -0.1138                  1.6                    !
 ! D22   D(9,8,11,12)            0.2323                  3.3                    !
 ! D23   D(9,8,11,13)            0.0809                  1.2                    !
 ! D24   D(9,8,11,14)            0.2327                  3.3                    !
 ! D25   D(10,8,11,12)           0.2321                  3.3                    !
 ! D26   D(10,8,11,13)           0.0807                  1.2                    !
 ! D27   D(10,8,11,14)           0.2325                  3.3                    !
 --------------------------------------------------------------------------------
                           ----------------------------
                           ! Normal Mode     5        !
 --------------------------                            --------------------------
 ! Name  Definition              Value          Relative Weight (%)             !
 --------------------------------------------------------------------------------
 ! R1    R(1,2)                  0.579                  12.0                    !
 ! R4    R(1,5)                 -0.0423                  0.9                    !
 ! R5    R(5,6)                 -0.1805                  3.7                    !
 ! R6    R(5,7)                 -0.1795                  3.7                    !
 ! R8    R(8,9)                  0.1805                  3.7                    !
 ! R9    R(8,10)                 0.1795                  3.7                    !
 ! R10   R(8,11)                 0.0423                  0.9                    !
 ! R12   R(11,13)               -0.579                  12.0                    !
 ! A1    A(2,1,3)                0.0655                  1.4                    !
 ! A2    A(2,1,4)                0.0652                  1.3                    !
 ! A3    A(2,1,5)               -0.1092                  2.3                    !
 ! A4    A(3,1,4)               -0.18                    3.7                    !
 ! A5    A(3,1,5)                0.0777                  1.6                    !
 ! A6    A(4,1,5)                0.0774                  1.6                    !
 ! A10   A(6,5,7)                0.0982                  2.0                    !
 ! A16   A(9,8,10)              -0.0982                  2.0                    !
 ! A19   A(8,11,12)             -0.0777                  1.6                    !
 ! A20   A(8,11,13)              0.1092                  2.3                    !
 ! A21   A(8,11,14)             -0.0774                  1.6                    !
 ! A22   A(12,11,13)            -0.0655                  1.4                    !
 ! A23   A(12,11,14)             0.18                    3.7                    !
 ! A24   A(13,11,14)            -0.0652                  1.3                    !
 ! D1    D(2,1,5,6)              0.048                   1.0                    !
 ! D2    D(2,1,5,7)             -0.0484                  1.0                    !
 ! D5    D(3,1,5,7)             -0.1105                  2.3                    !
 ! D6    D(3,1,5,8)             -0.062                   1.3                    !
 ! D7    D(4,1,5,6)              0.1097                  2.3                    !
 ! D9    D(4,1,5,8)              0.0618                  1.3                    !
 ! D10   D(1,5,8,9)              0.0468                  1.0                    !
 ! D11   D(1,5,8,10)            -0.0474                  1.0                    !
 ! D14   D(6,5,8,10)            -0.0942                  1.9                    !
 ! D15   D(6,5,8,11)            -0.0468                  1.0                    !
 ! D16   D(7,5,8,9)              0.0942                  1.9                    !
 ! D18   D(7,5,8,11)             0.0474                  1.0                    !
 ! D19   D(5,8,11,12)            0.062                   1.3                    !
 ! D21   D(5,8,11,14)           -0.0618                  1.3                    !
 ! D23   D(9,8,11,13)           -0.048                   1.0                    !
 ! D24   D(9,8,11,14)           -0.1097                  2.3                    !
 ! D25   D(10,8,11,12)           0.1105                  2.3                    !
 ! D26   D(10,8,11,13)           0.0483                  1.0                    !
 --------------------------------------------------------------------------------
                           ----------------------------
                           ! Normal Mode     6        !
 --------------------------                            --------------------------
 ! Name  Definition              Value          Relative Weight (%)             !
 --------------------------------------------------------------------------------
 ! R1    R(1,2)                  0.5227                  9.3                    !
 ! R2    R(1,3)                  0.1034                  1.8                    !
 ! R3    R(1,4)                  0.1034                  1.8                    !
 ! R4    R(1,5)                 -0.0382                  0.7                    !
 ! R5    R(5,6)                 -0.06                    1.1                    !
 ! R6    R(5,7)                 -0.06                    1.1                    !
 ! R8    R(8,9)                 -0.06                    1.1                    !
 ! R9    R(8,10)                -0.06                    1.1                    !
 ! R10   R(8,11)                -0.0382                  0.7                    !
 ! R11   R(11,12)                0.1033                  1.8                    !
 ! R12   R(11,13)                0.5227                  9.3                    !
 ! R13   R(11,14)                0.1035                  1.8                    !
 ! A1    A(2,1,3)                0.1339                  2.4                    !
 ! A2    A(2,1,4)                0.134                   2.4                    !
 ! A3    A(2,1,5)               -0.0959                  1.7                    !
 ! A4    A(3,1,4)               -0.2334                  4.1                    !
 ! A7    A(1,5,6)               -0.0498                  0.9                    !
 ! A8    A(1,5,7)               -0.0499                  0.9                    !
 ! A10   A(6,5,7)                0.0992                  1.8                    !
 ! A16   A(9,8,10)               0.0992                  1.8                    !
 ! A17   A(9,8,11)              -0.0498                  0.9                    !
 ! A18   A(10,8,11)             -0.0499                  0.9                    !
 ! A20   A(8,11,13)             -0.0959                  1.7                    !
 ! A22   A(12,11,13)             0.1339                  2.4                    !
 ! A23   A(12,11,14)            -0.2334                  4.1                    !
 ! A24   A(13,11,14)             0.134                   2.4                    !
 ! D4    D(3,1,5,6)             -0.095                   1.7                    !
 ! D5    D(3,1,5,7)             -0.158                   2.8                    !
 ! D6    D(3,1,5,8)             -0.1265                  2.2                    !
 ! D7    D(4,1,5,6)              0.158                   2.8                    !
 ! D8    D(4,1,5,7)              0.0951                  1.7                    !
 ! D9    D(4,1,5,8)              0.1265                  2.2                    !
 ! D10   D(1,5,8,9)             -0.0571                  1.0                    !
 ! D11   D(1,5,8,10)             0.0571                  1.0                    !
 ! D13   D(6,5,8,9)             -0.1141                  2.0                    !
 ! D15   D(6,5,8,11)            -0.0571                  1.0                    !
 ! D17   D(7,5,8,10)             0.1142                  2.0                    !
 ! D18   D(7,5,8,11)             0.0571                  1.0                    !
 ! D19   D(5,8,11,12)           -0.1265                  2.2                    !
 ! D21   D(5,8,11,14)            0.1265                  2.2                    !
 ! D22   D(9,8,11,12)           -0.0951                  1.7                    !
 ! D24   D(9,8,11,14)            0.158                   2.8                    !
 ! D25   D(10,8,11,12)          -0.158                   2.8                    !
 ! D27   D(10,8,11,14)           0.095                   1.7                    !
 --------------------------------------------------------------------------------
                           ----------------------------
                           ! Normal Mode     7        !
 --------------------------                            --------------------------
 ! Name  Definition              Value          Relative Weight (%)             !
 --------------------------------------------------------------------------------
 ! R1    R(1,2)                  0.1459                  2.8                    !
 ! R2    R(1,3)                  0.3872                  7.5                    !
 ! R3    R(1,4)                  0.3872                  7.5                    !
 ! R4    R(1,5)                 -0.071                   1.4                    !
 ! R5    R(5,6)                 -0.0358                  0.7                    !
 ! R6    R(5,7)                 -0.036                   0.7                    !
 ! R8    R(8,9)                  0.0358                  0.7                    !
 ! R9    R(8,10)                 0.0359                  0.7                    !
 ! R10   R(8,11)                 0.071                   1.4                    !
 ! R11   R(11,12)               -0.3873                  7.5                    !
 ! R12   R(11,13)               -0.1459                  2.8                    !
 ! R13   R(11,14)               -0.3871                  7.5                    !
 ! A3    A(2,1,5)               -0.0409                  0.8                    !
 ! A4    A(3,1,4)                0.2717                  5.3                    !
 ! A5    A(3,1,5)               -0.0865                  1.7                    !
 ! A6    A(4,1,5)               -0.0866                  1.7                    !
 ! A7    A(1,5,6)                0.0427                  0.8                    !
 ! A8    A(1,5,7)                0.0427                  0.8                    !
 ! A17   A(9,8,11)              -0.0427                  0.8                    !
 ! A18   A(10,8,11)             -0.0427                  0.8                    !
 ! A19   A(8,11,12)              0.0866                  1.7                    !
 ! A20   A(8,11,13)              0.041                   0.8                    !
 ! A21   A(8,11,14)              0.0865                  1.7                    !
 ! A23   A(12,11,14)            -0.2717                  5.3                    !
 ! D4    D(3,1,5,6)              0.1264                  2.5                    !
 ! D5    D(3,1,5,7)              0.1015                  2.0                    !
 ! D6    D(3,1,5,8)              0.1138                  2.2                    !
 ! D7    D(4,1,5,6)             -0.1014                  2.0                    !
 ! D8    D(4,1,5,7)             -0.1262                  2.4                    !
 ! D9    D(4,1,5,8)             -0.1139                  2.2                    !
 ! D14   D(6,5,8,10)             0.053                   1.0                    !
 ! D16   D(7,5,8,9)             -0.053                   1.0                    !
 ! D19   D(5,8,11,12)           -0.1138                  2.2                    !
 ! D21   D(5,8,11,14)            0.1139                  2.2                    !
 ! D22   D(9,8,11,12)           -0.1264                  2.5                    !
 ! D24   D(9,8,11,14)            0.1014                  2.0                    !
 ! D25   D(10,8,11,12)          -0.1015                  2.0                    !
 ! D27   D(10,8,11,14)           0.1262                  2.4                    !
 --------------------------------------------------------------------------------
                           ----------------------------
                           ! Normal Mode     8        !
 --------------------------                            --------------------------
 ! Name  Definition              Value          Relative Weight (%)             !
 --------------------------------------------------------------------------------
 ! R2    R(1,3)                  0.188                   1.9                    !
 ! R3    R(1,4)                 -0.1879                  1.9                    !
 ! R5    R(5,6)                 -0.1236                  1.3                    !
 ! R6    R(5,7)                  0.1237                  1.3                    !
 ! R8    R(8,9)                  0.1236                  1.3                    !
 ! R9    R(8,10)                -0.1236                  1.3                    !
 ! R11   R(11,12)               -0.188                   1.9                    !
 ! R13   R(11,14)                0.1878                  1.9                    !
 ! A1    A(2,1,3)               -0.239                   2.4                    !
 ! A2    A(2,1,4)                0.239                   2.4                    !
[...]
   R11        2.06398   0.00040   0.00000   0.02981   0.02981   2.09379
   R12        2.06182   0.00032   0.00000   0.02695   0.02695   2.08877
   R13        2.06398   0.00040   0.00000   0.02982   0.02982   2.09380
    A1        1.87879  -0.00071   0.00000  -0.04217  -0.04266   1.83613
    A2        1.87879  -0.00071   0.00000  -0.04217  -0.04266   1.83613
    A3        1.94646   0.00027   0.00000   0.03273   0.03218   1.97864
    A4        1.87608  -0.00070   0.00000  -0.03743  -0.03828   1.83780
    A5        1.94028   0.00086   0.00000   0.04085   0.04009   1.98037
    A6        1.94028   0.00086   0.00000   0.04085   0.04009   1.98037
    A7        1.91120  -0.00057   0.00000   0.00765   0.00769   1.91889
    A8        1.91120  -0.00057   0.00000   0.00765   0.00769   1.91889
    A9        1.97867   0.00145   0.00000  -0.01470  -0.01465   1.96401
   A10        1.84959  -0.00002   0.00000  -0.02501  -0.02502   1.82457
   A11        1.90436  -0.00019   0.00000   0.01182   0.01184   1.91620
   A12        1.90436  -0.00019   0.00000   0.01183   0.01185   1.91621
   A13        1.90436  -0.00019   0.00000   0.01182   0.01184   1.91620
   A14        1.90436  -0.00019   0.00000   0.01182   0.01185   1.91621
   A15        1.97867   0.00145   0.00000  -0.01470  -0.01465   1.96401
   A16        1.84959  -0.00002   0.00000  -0.02501  -0.02502   1.82457
   A17        1.91120  -0.00057   0.00000   0.00765   0.00769   1.91889
   A18        1.91120  -0.00057   0.00000   0.00765   0.00769   1.91889
   A19        1.94028   0.00086   0.00000   0.04084   0.04008   1.98036
   A20        1.94646   0.00027   0.00000   0.03273   0.03218   1.97864
   A21        1.94028   0.00086   0.00000   0.04086   0.04010   1.98037
   A22        1.87879  -0.00071   0.00000  -0.04217  -0.04266   1.83614
   A23        1.87608  -0.00070   0.00000  -0.03743  -0.03828   1.83780
   A24        1.87879  -0.00071   0.00000  -0.04218  -0.04266   1.83613
    D1        1.01051  -0.00033   0.00000  -0.01071  -0.01071   0.99980
    D2       -1.01051   0.00034   0.00000   0.01071   0.01071  -0.99980
    D3        3.14159  -0.00000   0.00000  -0.00000  -0.00000   3.14159
    D4       -1.08641  -0.00020   0.00000  -0.00710  -0.00701  -1.09342
    D5       -3.10744   0.00047   0.00000   0.01432   0.01441  -3.09303
    D6        1.04467   0.00013   0.00000   0.00361   0.00370   1.04836
    D7        3.10744  -0.00047   0.00000  -0.01431  -0.01440   3.09303
    D8        1.08641   0.00020   0.00000   0.00710   0.00701   1.09343
    D9       -1.04467  -0.00013   0.00000  -0.00361  -0.00370  -1.04837
   D10       -1.00671   0.00012   0.00000   0.00843   0.00841  -0.99830
   D11        1.00671  -0.00012   0.00000  -0.00843  -0.00841   0.99830
   D12        3.14159   0.00000   0.00000  -0.00000  -0.00000   3.14159
   D13        1.12818   0.00024   0.00000   0.01685   0.01683   1.14500
   D14        3.14159  -0.00000   0.00000  -0.00000  -0.00000   3.14159
   D15       -1.00671   0.00012   0.00000   0.00843   0.00841  -0.99830
   D16       -3.14159  -0.00000   0.00000  -0.00000  -0.00000   3.14159
   D17       -1.12818  -0.00024   0.00000  -0.01685  -0.01683  -1.14500
   D18        1.00671  -0.00012   0.00000  -0.00843  -0.00841   0.99830
   D19        1.04467   0.00013   0.00000   0.00361   0.00370   1.04837
   D20        3.14159  -0.00000   0.00000  -0.00000  -0.00000   3.14159
   D21       -1.04467  -0.00013   0.00000  -0.00360  -0.00370  -1.04836
   D22       -1.08641  -0.00020   0.00000  -0.00710  -0.00701  -1.09342
   D23        1.01051  -0.00034   0.00000  -0.01071  -0.01071   0.99980
   D24        3.10744  -0.00047   0.00000  -0.01431  -0.01440   3.09303
   D25       -3.10744   0.00047   0.00000   0.01432   0.01441  -3.09303
   D26       -1.01051   0.00033   0.00000   0.01071   0.01071  -0.99980
   D27        1.08641   0.00020   0.00000   0.00710   0.00701   1.09343
         Item               Value     Threshold  Converged?
 Maximum Force            0.003213     0.000450     NO 
 RMS     Force            0.000792     0.000300     NO 
 Maximum Displacement     0.219035     0.001800     NO 
 RMS     Displacement     0.077205     0.001200     NO 
 Predicted change in Energy=-1.080220D-03
                           ----------------------------
                           ! Non-Optimized Parameters !
                           ! (Angstroms and Degrees)  !
 --------------------------                            --------------------------
 ! Name  Definition              Value          Derivative Info.                !
 --------------------------------------------------------------------------------
 ! R1    R(1,2)                  1.1053         -DE/DX =    0.0003              !
 ! R2    R(1,3)                  1.108          -DE/DX =    0.0004              !
 ! R3    R(1,4)                  1.108          -DE/DX =    0.0004              !
 ! R4    R(1,5)                  1.5956         -DE/DX =    0.0025              !
 ! R5    R(5,6)                  1.1318         -DE/DX =    0.0008              !
 ! R6    R(5,7)                  1.1318         -DE/DX =    0.0008              !
 ! R7    R(5,8)                  1.5783         -DE/DX =    0.0032              !
 ! R8    R(8,9)                  1.1318         -DE/DX =    0.0008              !
 ! R9    R(8,10)                 1.1318         -DE/DX =    0.0008              !
 ! R10   R(8,11)                 1.5956         -DE/DX =    0.0025              !
 ! R11   R(11,12)                1.108          -DE/DX =    0.0004              !
 ! R12   R(11,13)                1.1053         -DE/DX =    0.0003              !
 ! R13   R(11,14)                1.108          -DE/DX =    0.0004              !
 ! A1    A(2,1,3)              105.2026         -DE/DX =   -0.0007              !
 ! A2    A(2,1,4)              105.2027         -DE/DX =   -0.0007              !
 ! A3    A(2,1,5)              113.3675         -DE/DX =    0.0003              !
 ! A4    A(3,1,4)              105.2979         -DE/DX =   -0.0007              !
 ! A5    A(3,1,5)              113.4666         -DE/DX =    0.0009              !
 ! A6    A(4,1,5)              113.4666         -DE/DX =    0.0009              !
 ! A7    A(1,5,6)              109.9444         -DE/DX =   -0.0006              !
 ! A8    A(1,5,7)              109.9442         -DE/DX =   -0.0006              !
 ! A9    A(1,5,8)              112.5296         -DE/DX =    0.0015              !
 ! A10   A(6,5,7)              104.5401         -DE/DX =    0.0                 !
 ! A11   A(6,5,8)              109.7903         -DE/DX =   -0.0002              !
 ! A12   A(7,5,8)              109.7906         -DE/DX =   -0.0002              !
 ! A13   A(5,8,9)              109.7904         -DE/DX =   -0.0002              !
 ! A14   A(5,8,10)             109.7905         -DE/DX =   -0.0002              !
 ! A15   A(5,8,11)             112.5296         -DE/DX =    0.0015              !
 ! A16   A(9,8,10)             104.5401         -DE/DX =    0.0                 !
 ! A17   A(9,8,11)             109.9443         -DE/DX =   -0.0006              !
 ! A18   A(10,8,11)            109.9442         -DE/DX =   -0.0006              !
 ! A19   A(8,11,12)            113.4662         -DE/DX =    0.0009              !
 ! A20   A(8,11,13)            113.3675         -DE/DX =    0.0003              !
 ! A21   A(8,11,14)            113.4671         -DE/DX =    0.0009              !
 ! A22   A(12,11,13)           105.2028         -DE/DX =   -0.0007              !
 ! A23   A(12,11,14)           105.2979         -DE/DX =   -0.0007              !
 ! A24   A(13,11,14)           105.2024         -DE/DX =   -0.0007              !
 ! D1    D(2,1,5,6)             57.2845         -DE/DX =   -0.0003              !
 ! D2    D(2,1,5,7)            -57.2845         -DE/DX =    0.0003              !
 ! D3    D(2,1,5,8)            179.9999         -DE/DX =    0.0                 !
 ! D4    D(3,1,5,6)            -62.6486         -DE/DX =   -0.0002              !
 ! D5    D(3,1,5,7)           -177.2176         -DE/DX =    0.0005              !
 ! D6    D(3,1,5,8)             60.0668         -DE/DX =    0.0001              !
 ! D7    D(4,1,5,6)            177.2177         -DE/DX =   -0.0005              !
 ! D8    D(4,1,5,7)             62.6487         -DE/DX =    0.0002              !
 ! D9    D(4,1,5,8)            -60.0669         -DE/DX =   -0.0001              !
 ! D10   D(1,5,8,9)            -57.1982         -DE/DX =    0.0001              !
 ! D11   D(1,5,8,10)            57.1981         -DE/DX =   -0.0001              !
 ! D12   D(1,5,8,11)           179.9999         -DE/DX =    0.0                 !
 ! D13   D(6,5,8,9)             65.6037         -DE/DX =    0.0002              !
 ! D14   D(6,5,8,10)           180.0            -DE/DX =    0.0                 !
 ! D15   D(6,5,8,11)           -57.1982         -DE/DX =    0.0001              !
 ! D16   D(7,5,8,9)            180.0            -DE/DX =    0.0                 !
 ! D17   D(7,5,8,10)           -65.6037         -DE/DX =   -0.0002              !
 ! D18   D(7,5,8,11)            57.1981         -DE/DX =   -0.0001              !
 ! D19   D(5,8,11,12)           60.067          -DE/DX =    0.0001              !
 ! D20   D(5,8,11,13)          180.0            -DE/DX =    0.0                 !
 ! D21   D(5,8,11,14)          -60.0668         -DE/DX =   -0.0001              !
 ! D22   D(9,8,11,12)          -62.6485         -DE/DX =   -0.0002              !
 ! D23   D(9,8,11,13)           57.2845         -DE/DX =   -0.0003              !
 ! D24   D(9,8,11,14)          177.2177         -DE/DX =   -0.0005              !
 ! D25   D(10,8,11,12)        -177.2175         -DE/DX =    0.0005              !
 ! D26   D(10,8,11,13)         -57.2845         -DE/DX =    0.0003              !
 ! D27   D(10,8,11,14)          62.6487         -DE/DX =    0.0002              !
 --------------------------------------------------------------------------------
 GradGradGradGradGradGradGradGradGradGradGradGradGradGradGradGradGradGrad

 Leave Link  103 at Tue Nov 14 11:48:11 2023, MaxMem=   134217728 cpu:               0.0 elap:               0.0
 (Enter /home/emanuele/chem_software/gaussian//gdv/l9999.exe)
 Unable to Open any file for archive entry.
 1\1\GINC-EMANUELE-XPS-13-9343\Freq\AMBER\ZDO\C4H10\EMANUELE\14-Nov-202
 3\0\\#p Amber=(SoftOnly,Print) nosymm Freq=intmodes\\Title\\0,1\C,1.95
 6897,-0.120392,0.\H,2.742005,0.637259,0.\H,2.103753,-0.749379,-0.88076
 \H,2.103753,-0.749379,0.88076\C,0.566957,0.512915,0.\H,0.461751,1.1634
 03,-0.874026\H,0.461751,1.163403,0.874026\C,-0.566957,-0.512915,0.\H,-
 0.461751,-1.163403,-0.874026\H,-0.461751,-1.163403,0.874026\C,-1.95689
 7,0.120392,0.\H,-2.103753,0.749379,-0.88076\H,-2.742005,-0.637259,0.\H
 ,-2.103753,0.749379,0.88076\\Version=ES64L-GDVRevJ.14\HF=0.004732\RMSD
 =0.000e+00\RMSF=4.412e-04\ZeroPoint=0.0077342\Thermal=0.0239896\ETot=0
 .0287216\HTot=0.0296658\GTot=-0.0302422\Dipole=-0.0000029,0.0000024,0.
 000085\DipoleDeriv=-0.267532,0.,0.,0.,-0.267532,0.,0.,0.,-0.267532,0.0
 83821,0.,0.,0.,0.083821,0.,0.,0.,0.083821,0.077363,0.,0.,0.,0.077363,0
 .,0.,0.,0.077363,0.07736,0.,0.,0.,0.07736,0.,0.,0.,0.07736,-0.092257,0
 .,0.,0.,-0.092257,0.,0.,0.,-0.092257,0.060623,0.,0.,0.,0.060623,0.,0.,
 0.,0.060623,0.060622,0.,0.,0.,0.060622,0.,0.,0.,0.060622,-0.092258,0.,
 0.,0.,-0.092258,0.,0.,0.,-0.092258,0.060627,0.,0.,0.,0.060627,0.,0.,0.
 ,0.060627,0.060618,0.,0.,0.,0.060618,0.,0.,0.,0.060618,-0.267532,0.,0.
 ,0.,-0.267532,0.,0.,0.,-0.267532,0.07733,0.,0.,0.,0.07733,0.,0.,0.,0.0
 7733,0.083821,0.,0.,0.,0.083821,0.,0.,0.,0.083821,0.077394,0.,0.,0.,0.
 077394,0.,0.,0.,0.077394\PG=C02H [SGH(C4H2),X(H8)]\NImag=15\\0.0025162
 1,0.00105802,0.00037472,0.,0.,0.00023926,0.,0.,0.,0.00105156,0.,0.,0.,
 -0.00027355,-0.00006617,0.,0.,0.,0.,0.,0.00004187,0.,0.,0.,0.,0.,0.,0.
 00202873,0.,0.,0.,0.,0.,0.,-0.00030441,0.00021578,0.,0.,0.,0.,0.,0.,-0
 .00044196,0.00005284,-0.00003301,0.,0.,0.,0.,0.,0.,0.,0.,0.,0.00202873
 ,0.,0.,0.,0.,0.,0.,0.,0.,0.,-0.00030442,0.00021578,0.,0.,0.,0.,0.,0.,0
 .,0.,0.,0.00044195,-0.00005284,-0.00003301,0.,0.,0.,0.,0.,0.,0.,0.,0.,
 0.,0.,0.,0.00228895,0.,0.,0.,0.,0.,0.,0.,0.,0.,0.,0.,0.,-0.00022427,-0
 .00005513,0.,0.,0.,0.,0.,0.,0.,0.,0.,0.,0.,0.,0.00000003,0.,0.00019074
 ,0.,0.,0.,-0.00053413,0.00014071,-0.00023374,-0.00020465,0.00031575,0.
 00000111,-0.00000151,0.00002428,-0.00002228,0.,0.,0.,0.00268096,0.,0.,
 0.,0.00014071,0.00004322,0.00005393,0.00031575,-0.00030142,-0.00000129
 ,0.00002428,-0.00000895,0.00002595,0.,0.,0.,0.00043489,0.00093798,0.,0
 .,0.,-0.00023374,0.00005393,-0.00001391,0.00000111,-0.00000129,0.00006
 639,-0.00002228,0.00002595,-0.00000447,0.,0.,0.,-0.00023702,-0.0003049
 3,-0.00004795,0.,0.,0.,-0.00053413,0.00014071,0.00023374,-0.00000151,0
 .00002428,0.00002228,-0.00020465,0.00031574,-0.00000111,0.,0.,0.,0.,0.
 ,0.,0.00268100,0.,0.,0.,0.00014071,0.00004322,-0.00005393,0.00002428,-
 0.00000895,-0.00002595,0.00031574,-0.00030142,0.00000129,0.,0.,0.,0.,0
 .,0.,0.00043490,0.00093796,0.,0.,0.,0.00023374,-0.00005393,-0.00001391
 ,0.00002228,-0.00002595,-0.00000447,-0.00000111,0.00000129,0.00006639,
 0.,0.,0.,0.,0.,0.,0.00023700,0.00030493,-0.00004797,0.,0.,0.,0.0000119
 0,0.00001231,0.,-0.00115042,0.00010598,0.00039475,-0.00115043,0.000105
 98,-0.00039475,0.,0.,0.,0.,0.,0.,0.,0.,0.,0.00228895,0.,0.,0.,0.000012
 31,-0.00001922,0.,0.00010598,0.00003717,-0.00003495,0.00010598,0.00003
 718,0.00003495,0.,0.,0.,0.,0.,0.,0.,0.,0.,-0.00022427,-0.00005513,0.,0
 .,0.,0.,0.,-0.00002350,0.00039475,-0.00003495,-0.00008362,-0.00039475,
 0.00003495,-0.00008362,0.,0.,0.,0.,0.,0.,0.,0.,0.,0.,0.,0.00019074,-0.
 00119449,-0.00052368,-0.00043883,-0.00001253,-0.00001430,-0.00000694,-
 0.00068053,-0.00012184,0.00000198,-0.00003354,-0.00000878,-0.00003720,
 0.,0.,0.,-0.00002920,-0.00023250,0.,0.00000961,-0.00001454,-0.00001092
 ,0.,0.,0.,0.00268098,-0.00052368,-0.00020596,-0.00018924,-0.00001430,0
 .00000487,-0.00000390,-0.00012184,0.00005480,0.00000032,-0.00000878,0.
 00001943,-0.00000600,0.,0.,0.,-0.00023250,-0.00052272,0.,-0.00001454,-
 0.00002124,-0.00002751,0.,0.,0.,0.00043490,0.00093796,-0.00043883,-0.0
 0018924,-0.00013871,-0.00000694,-0.00000390,0.00001101,0.00000198,0.00
 000032,0.00007446,-0.00003720,-0.00000600,-0.00000460,0.,0.,0.,0.,0.,0
 .00006308,-0.00001092,-0.00002751,-0.00000529,0.,0.,0.,0.00023700,0.00
 030494,-0.00004795,-0.00119451,-0.00052369,0.00043885,-0.00001253,-0.0
 0001429,0.00000694,-0.00003354,-0.00000878,0.00003720,-0.00068052,-0.0
 0012184,-0.00000198,0.,0.,0.,0.00000961,-0.00001453,0.00001092,-0.0000
 2920,-0.00023250,0.,0.,0.,0.,0.,0.,0.,0.00268098,-0.00052369,-0.000205
 95,0.00018925,-0.00001429,0.00000487,0.00000390,-0.00000878,0.00001943
 ,0.00000600,-0.00012184,0.00005479,-0.00000032,0.,0.,0.,-0.00001453,-0
 .00002124,0.00002751,-0.00023250,-0.00052271,0.,0.,0.,0.,0.,0.,0.,0.00
 043489,0.00093798,0.00043885,0.00018925,-0.00013870,0.00000694,0.00000
 390,0.00001101,0.00003720,0.00000600,-0.00000460,-0.00000198,-0.000000
 32,0.00007445,0.,0.,0.,0.00001092,0.00002751,-0.00000529,0.,0.,0.00006
 308,0.,0.,0.,0.,0.,0.,-0.00023702,-0.00030492,-0.00004797,-0.00035672,
 0.00003081,0.,0.00006879,0.00001116,0.,0.00008036,-0.00002631,-0.00002
 664,0.00008036,-0.00002631,0.00002664,0.,0.,0.,-0.00119450,-0.00052369
 ,0.00043884,-0.00119450,-0.00052369,-0.00043884,0.,0.,0.,0.,0.,0.,0.,0
 .,0.,0.00251621,0.00003081,0.00014226,0.,0.00001116,-0.00003140,0.,-0.
 00002631,-0.00003683,0.00000571,-0.00002631,-0.00003683,-0.00000571,0.
 ,0.,0.,-0.00052369,-0.00020596,0.00018924,-0.00052369,-0.00020595,-0.0
 0018924,0.,0.,0.,0.,0.,0.,0.,0.,0.,0.00105802,0.00037472,0.,0.,0.00014
 416,0.,0.,-0.00003263,-0.00002664,0.00000571,-0.00003669,0.00002664,-0
 .00000571,-0.00003669,0.,0.,0.,0.00043884,0.00018924,-0.00013871,-0.00
 043884,-0.00018924,-0.00013870,0.,0.,0.,0.,0.,0.,0.,0.,0.,0.,0.,0.0002
 3926,0.00008033,-0.00002630,0.00002663,-0.00001426,0.00000051,-0.00000
 402,-0.00001466,0.00000865,0.,-0.00000950,0.00000617,-0.00000725,-0.00
 115045,0.00010598,-0.00039476,-0.00068050,-0.00012183,-0.00000198,-0.0
 0003353,-0.00000877,-0.00003719,0.,0.,0.,-0.00020465,0.00031573,-0.000
 00111,-0.00000151,0.00002427,-0.00002227,0.,0.,0.,0.00202872,-0.000026
 30,-0.00003682,-0.00000570,0.00000051,0.00000786,0.00000009,0.00000865
 ,0.00000653,0.,0.00000617,0.00000562,0.00000258,0.00010598,0.00003719,
 0.00003495,-0.00012183,0.00005478,-0.00000032,-0.00000877,0.00001942,-
 0.00000600,0.,0.,0.,0.00031573,-0.00030141,0.00000129,0.00002427,-0.00
 000895,0.00002594,0.,0.,0.,-0.00030440,0.00021577,0.00002663,-0.000005
 70,-0.00003668,-0.00000402,0.00000009,0.00000714,0.,0.,0.00000961,-0.0
 0000725,0.00000258,0.00000478,-0.00039476,0.00003495,-0.00008361,-0.00
 000198,-0.00000032,0.00007444,-0.00003719,-0.00000600,-0.00000460,0.,0
 .,0.,-0.00000111,0.00000129,0.00006638,-0.00002227,0.00002594,-0.00000
 447,0.,0.,0.,0.00044195,-0.00005284,-0.00003300,0.00006879,0.00001116,
 0.,-0.00001041,-0.00000376,0.,-0.00001426,0.00000051,0.00000402,-0.000
 01426,0.00000051,-0.00000402,0.00001190,0.00001231,0.,-0.00001253,-0.0
 0001429,0.00000694,-0.00001253,-0.00001429,-0.00000694,0.,0.,0.,-0.000
 53413,0.00014071,0.00023375,-0.00053413,0.00014071,-0.00023374,0.,0.,0
 .,0.,0.,0.,0.00105156,0.00001116,-0.00003140,0.,-0.00000376,0.00000490
 ,0.,0.00000051,0.00000787,-0.00000009,0.00000051,0.00000787,0.00000009
 ,0.00001231,-0.00001922,0.,-0.00001429,0.00000487,0.00000390,-0.000014
 29,0.00000487,-0.00000390,0.,0.,0.,0.00014071,0.00004322,-0.00005393,0
 .00014071,0.00004321,0.00005393,0.,0.,0.,0.,0.,0.,-0.00027355,-0.00006
 618,0.,0.,-0.00003263,0.,0.,0.00000578,0.00000402,-0.00000009,0.000007
 15,-0.00000402,0.00000009,0.00000715,0.,0.,-0.00002350,0.00000694,0.00
 000390,0.00001101,-0.00000694,-0.00000390,0.00001101,0.,0.,0.,0.000233
 75,-0.00005393,-0.00001391,-0.00023374,0.00005393,-0.00001391,0.,0.,0.
 ,0.,0.,0.,0.,0.,0.00004187,0.00008039,-0.00002632,-0.00002665,-0.00001
 427,0.00000051,0.00000403,-0.00000951,0.00000617,0.00000725,-0.0000146
 8,0.00000866,0.,-0.00115040,0.00010598,0.00039473,-0.00003355,-0.00000
 878,0.00003722,-0.00068056,-0.00012185,0.00000198,0.,0.,0.,-0.00000150
 ,0.00002429,0.00002229,-0.00020466,0.00031576,0.00000111,0.,0.,0.,0.,0
 .,0.,0.,0.,0.,0.00202873,-0.00002632,-0.00003685,0.00000571,0.00000051
 ,0.00000787,-0.00000009,0.00000617,0.00000562,-0.00000258,0.00000866,0
 .00000654,0.,0.00010598,0.00003716,-0.00003495,-0.00000878,0.00001944,
 0.00000601,-0.00012185,0.00005481,0.00000032,0.,0.,0.,0.00002429,-0.00
 000895,-0.00002596,0.00031576,-0.00030143,-0.00000129,0.,0.,0.,0.,0.,0
 .,0.,0.,0.,-0.00030443,0.00021578,-0.00002665,0.00000571,-0.00003670,0
 .00000403,-0.00000009,0.00000715,0.00000725,-0.00000258,0.00000478,0.,
 0.,0.00000962,0.00039473,-0.00003495,-0.00008363,0.00003722,0.00000601
 ,-0.00000460,0.00000198,0.00000032,0.00007447,0.,0.,0.,0.00002229,-0.0
 0002596,-0.00000447,0.00000111,-0.00000129,0.00006640,0.,0.,0.,0.,0.,0
 .,0.,0.,0.,-0.00044196,0.00005285,-0.00003302\\-0.00030637,-0.00012050
 ,-0.00000003,-0.00057589,0.00013508,0.,-0.00084796,0.00023738,0.000181
 01,-0.00084795,0.00023739,-0.00018099,-0.00032303,0.00009268,-0.000000
 05,-0.00017575,-0.00088779,0.00036145,-0.00017582,-0.00088779,-0.00036
 140,0.00032303,-0.00009268,0.,0.00017578,0.00088779,0.00036146,0.00017
 579,0.00088779,-0.00036139,0.00030638,0.00012050,0.,0.00084788,-0.0002
 3734,0.00018097,0.00057590,-0.00013508,-0.00000001,0.00084803,-0.00023
 743,-0.00018103\\\@
 The archive entry for this job was punched.


 THAT'S WHAT MAKES US A GREAT COUNTRY.
 THE LITTLE THINGS ARE SERIOUS AND THE BIG ONES ARE NOT.
           WILL ROGERS
 Job cpu time:       0 days  0 hours  0 minutes  0.5 seconds.
 Elapsed time:       0 days  0 hours  0 minutes  0.5 seconds.
 File lengths (MBytes):  RWF=      6 Int=      0 D2E=      0 Chk=      1 Scr=      1
 Normal termination of Gaussian DV at Tue Nov 14 11:48:11 2023.
