Title                                                                   
Freq      RAMBER                                                      ZDO                 
Number of atoms                            I               14
Info1-9                                    I   N=           9
          33          33        1002           0           0         100
           6           8        1101
Charge                                     I                0
Multiplicity                               I                1
Number of electrons                        I               18
Number of alpha electrons                  I                9
Number of beta electrons                   I                9
Number of basis functions                  I                0
Number of independent functions            I                0
Number of point charges in /Mol/           I                0
Number of translation vectors              I                0
Atomic numbers                             I   N=          14
           6           1           1           1           6           1
           1           6           1           1           6           1
           1           1
Nuclear charges                            R   N=          14
  2.00000000E+00  1.00000000E+00  1.00000000E+00  1.00000000E+00  2.00000000E+00
  1.00000000E+00  1.00000000E+00  2.00000000E+00  1.00000000E+00  1.00000000E+00
  2.00000000E+00  1.00000000E+00  1.00000000E+00  1.00000000E+00
Current cartesian coordinates              R   N=          42
  3.70469936E+00 -2.37628646E-01  1.00176800E-07  5.14884160E+00  1.24061707E+00
 -3.29984146E-08  3.93995609E+00 -1.41061115E+00 -1.68512164E+00  3.93995619E+00
 -1.41061134E+00  1.68512164E+00  1.07295601E+00  9.75374113E-01  2.18415816E-07
  8.93637958E-01  2.17087600E+00 -1.67798281E+00  8.93639275E-01  2.17087679E+00
  1.67798266E+00 -1.07295598E+00 -9.75374056E-01  2.31848398E-07 -8.93638757E-01
 -2.17087553E+00 -1.67798322E+00 -8.93638283E-01 -2.17087716E+00  1.67798223E+00
 -3.70469939E+00  2.37628625E-01  5.55191241E-07 -3.93995480E+00  1.41061030E+00
 -1.68512173E+00 -5.14884158E+00 -1.24061714E+00  2.50926419E-07 -3.93995769E+00
  1.41061213E+00  1.68512154E+00
Force Field                                I                2
Int Atom Types                             I   N=          14
    20001001    20001034    20001034    20001034    20001001    20001034
    20001034    20001001    20001034    20001034    20001001    20001034
    20001034    20001034
MM charges                                 R   N=          14
  5.92878775-323  4.94065646-324  4.94065646-324  4.94065646-324  5.92878775-323
  4.94065646-324  4.94065646-324  5.92878775-323  4.94065646-324  4.94065646-324
  5.92878775-323  4.94065646-324  4.94065646-324  4.94065646-324
Integer atomic weights                     I   N=          14
           0           0           0           0           0           0
           0           0           0           0           0           0
           0           0
Real atomic weights                        R   N=          14
  0.00000000E+00  0.00000000E+00  0.00000000E+00  0.00000000E+00  0.00000000E+00
  0.00000000E+00  0.00000000E+00  0.00000000E+00  0.00000000E+00  0.00000000E+00
  0.00000000E+00  0.00000000E+00  0.00000000E+00  0.00000000E+00
Atom fragment info                         I   N=          14
           0           0           0           0           0           0
           0           0           0           0           0           0
           0           0
Atom residue num                           I   N=          14
           0           0           0           0           0           0
           0           0           0           0           0           0
           0           0
Nuclear spins                              I   N=          14
           0           0           0           0           0           0
           0           0           0           0           0           0
           0           0
Nuclear ZEff                               R   N=          14
  0.00000000E+00  0.00000000E+00  0.00000000E+00  0.00000000E+00  0.00000000E+00
  0.00000000E+00  0.00000000E+00  0.00000000E+00  0.00000000E+00  0.00000000E+00
  0.00000000E+00  0.00000000E+00  0.00000000E+00  0.00000000E+00
Nuclear ZNuc                               R   N=          14
  0.00000000E+00  0.00000000E+00  0.00000000E+00  0.00000000E+00  0.00000000E+00
  0.00000000E+00  0.00000000E+00  0.00000000E+00  0.00000000E+00  0.00000000E+00
  0.00000000E+00  0.00000000E+00  0.00000000E+00  0.00000000E+00
Nuclear QMom                               R   N=          14
  0.00000000E+00  0.00000000E+00  0.00000000E+00  0.00000000E+00  0.00000000E+00
  0.00000000E+00  0.00000000E+00  0.00000000E+00  0.00000000E+00  0.00000000E+00
  0.00000000E+00  0.00000000E+00  0.00000000E+00  0.00000000E+00
Nuclear GFac                               R   N=          14
  0.00000000E+00  0.00000000E+00  0.00000000E+00  0.00000000E+00  0.00000000E+00
  0.00000000E+00  0.00000000E+00  0.00000000E+00  0.00000000E+00  0.00000000E+00
  0.00000000E+00  0.00000000E+00  0.00000000E+00  0.00000000E+00
MicOpt                                     I   N=          14
           0           0           0           0           0           0
           0           0           0           0           0           0
           0           0
Number of contracted shells                I               14
Number of primitive shells                 I               14
Pure/Cartesian d shells                    I                0
Pure/Cartesian f shells                    I                0
Highest angular momentum                   I                0
Largest degree of contraction              I                1
Shell types                                I   N=          14
           0           0           0           0           0           0
           0           0           0           0           0           0
           0           0
Number of primitives per shell             I   N=          14
           1           1           1           1           1           1
           1           1           1           1           1           1
           1           1
Shell to atom map                          I   N=          14
           1           2           3           4           5           6
           7           8           9          10          11          12
          13          14
Primitive exponents                        R   N=          14
  1.00000000E+00  1.00000000E+00  1.00000000E+00  1.00000000E+00  1.00000000E+00
  1.00000000E+00  1.00000000E+00  1.00000000E+00  1.00000000E+00  1.00000000E+00
  1.00000000E+00  1.00000000E+00  1.00000000E+00  1.00000000E+00
Contraction coefficients                   R   N=          14
  1.00000000E+00  1.00000000E+00  1.00000000E+00  1.00000000E+00  1.00000000E+00
  1.00000000E+00  1.00000000E+00  1.00000000E+00  1.00000000E+00  1.00000000E+00
  1.00000000E+00  1.00000000E+00  1.00000000E+00  1.00000000E+00
Coordinates of each shell                  R   N=          42
  3.70469936E+00 -2.37628646E-01  1.00176800E-07  5.14884160E+00  1.24061707E+00
 -3.29984146E-08  3.93995609E+00 -1.41061115E+00 -1.68512164E+00  3.93995619E+00
 -1.41061134E+00  1.68512164E+00  1.07295601E+00  9.75374113E-01  2.18415816E-07
  8.93637958E-01  2.17087600E+00 -1.67798281E+00  8.93639275E-01  2.17087679E+00
  1.67798266E+00 -1.07295598E+00 -9.75374056E-01  2.31848398E-07 -8.93638757E-01
 -2.17087553E+00 -1.67798322E+00 -8.93638283E-01 -2.17087716E+00  1.67798223E+00
 -3.70469939E+00  2.37628625E-01  5.55191241E-07 -3.93995480E+00  1.41061030E+00
 -1.68512173E+00 -5.14884158E+00 -1.24061714E+00  2.50926419E-07 -3.93995769E+00
  1.41061213E+00  1.68512154E+00
Constraint Structure                       R   N=          42
  3.70469936E+00 -2.37628646E-01  1.00176800E-07  5.14884160E+00  1.24061707E+00
 -3.29984146E-08  3.93995609E+00 -1.41061115E+00 -1.68512164E+00  3.93995619E+00
 -1.41061134E+00  1.68512164E+00  1.07295601E+00  9.75374113E-01  2.18415816E-07
  8.93637958E-01  2.17087600E+00 -1.67798281E+00  8.93639275E-01  2.17087679E+00
  1.67798266E+00 -1.07295598E+00 -9.75374056E-01  2.31848398E-07 -8.93638757E-01
 -2.17087553E+00 -1.67798322E+00 -8.93638283E-01 -2.17087716E+00  1.67798223E+00
 -3.70469939E+00  2.37628625E-01  5.55191241E-07 -3.93995480E+00  1.41061030E+00
 -1.68512173E+00 -5.14884158E+00 -1.24061714E+00  2.50926419E-07 -3.93995769E+00
  1.41061213E+00  1.68512154E+00
Num ILSW                                   I              100
ILSW                                       I   N=         100
           0           0           0           0           0           0
           0           0           0           0           0          -1
           5           0           0           0           2           0
           0           0           0           0           1           0
           1           1           0           0           0           0
           0           0      100000           0          -1           0
           0           0           0           0           0           0
           0           0           0         101           0           0
           0 -2000000000           1           0           0           0
           0           0           4          41           0           0
           0           0           0           0           0           0
           0           0           0          14           0           1
           0           0           0           0           0           0
           0           0           0           0           0           0
           0           0           0           0           0           0
           0           0           0           0           0           0
           0           0           0           0
Num RLSW                                   I               41
RLSW                                       R   N=          41
  1.00000000E+00  1.00000000E+00  1.00000000E+00  1.00000000E+00  1.00000000E+00
  0.00000000E+00  0.00000000E+00  1.00000000E+00  0.00000000E+00  0.00000000E+00
  0.00000000E+00  0.00000000E+00  1.00000000E+00  0.00000000E+00  0.00000000E+00
  0.00000000E+00  0.00000000E+00  1.00000000E+00  0.00000000E+00  0.00000000E+00
  0.00000000E+00  0.00000000E+00  1.00000000E+00  0.00000000E+00  0.00000000E+00
  0.00000000E+00  0.00000000E+00  1.00000000E+00  0.00000000E+00  0.00000000E+00
  0.00000000E+00  0.00000000E+00  1.00000000E+00  0.00000000E+00  0.00000000E+00
  0.00000000E+00  0.00000000E+00  0.00000000E+00  1.00000000E+00  1.00000000E+00
  0.00000000E+00
MxBond                                     I                4
NBond                                      I   N=          14
           4           1           1           1           4           1
           1           4           1           1           4           1
           1           1
IBond                                      I   N=          56
           2           3           4           5           1           0
           0           0           1           0           0           0
           1           0           0           0           1           6
           7           8           5           0           0           0
           5           0           0           0           5           9
          10          11           8           0           0           0
           8           0           0           0           8          12
          13          14          11           0           0           0
          11           0           0           0          11           0
           0           0
RBond                                      R   N=          56
  1.00000000E+00  1.00000000E+00  1.00000000E+00  1.00000000E+00  1.00000000E+00
  0.00000000E+00  0.00000000E+00  0.00000000E+00  1.00000000E+00  0.00000000E+00
  0.00000000E+00  0.00000000E+00  1.00000000E+00  0.00000000E+00  0.00000000E+00
  0.00000000E+00  1.00000000E+00  1.00000000E+00  1.00000000E+00  1.00000000E+00
  1.00000000E+00  0.00000000E+00  0.00000000E+00  0.00000000E+00  1.00000000E+00
  0.00000000E+00  0.00000000E+00  0.00000000E+00  1.00000000E+00  1.00000000E+00
  1.00000000E+00  1.00000000E+00  1.00000000E+00  0.00000000E+00  0.00000000E+00
  0.00000000E+00  1.00000000E+00  0.00000000E+00  0.00000000E+00  0.00000000E+00
  1.00000000E+00  1.00000000E+00  1.00000000E+00  1.00000000E+00  1.00000000E+00
  0.00000000E+00  0.00000000E+00  0.00000000E+00  1.00000000E+00  0.00000000E+00
  0.00000000E+00  0.00000000E+00  1.00000000E+00  0.00000000E+00  0.00000000E+00
  0.00000000E+00
Virial Ratio                               R      0.000000000000000E+00
SCF Energy                                 R      5.603037623673654E-03
Total Energy                               R      5.603037623673654E-03
RMS Force                                  R      2.882435924761772E-05
External E-field                           R   N=         105
  0.00000000E+00  0.00000000E+00  0.00000000E+00  0.00000000E+00  0.00000000E+00
  0.00000000E+00  0.00000000E+00  0.00000000E+00  0.00000000E+00  0.00000000E+00
  0.00000000E+00  0.00000000E+00  0.00000000E+00  0.00000000E+00  0.00000000E+00
  0.00000000E+00  0.00000000E+00  0.00000000E+00  0.00000000E+00  0.00000000E+00
  0.00000000E+00  0.00000000E+00  0.00000000E+00  0.00000000E+00  0.00000000E+00
  0.00000000E+00  0.00000000E+00  0.00000000E+00  0.00000000E+00  0.00000000E+00
  0.00000000E+00  0.00000000E+00  0.00000000E+00  0.00000000E+00  0.00000000E+00
  0.00000000E+00  0.00000000E+00  0.00000000E+00  0.00000000E+00  0.00000000E+00
  0.00000000E+00  0.00000000E+00  0.00000000E+00  0.00000000E+00  0.00000000E+00
  0.00000000E+00  0.00000000E+00  0.00000000E+00  0.00000000E+00  0.00000000E+00
  0.00000000E+00  0.00000000E+00  0.00000000E+00  0.00000000E+00  0.00000000E+00
  0.00000000E+00  0.00000000E+00  0.00000000E+00  0.00000000E+00  0.00000000E+00
  0.00000000E+00  0.00000000E+00  0.00000000E+00  0.00000000E+00  0.00000000E+00
  0.00000000E+00  0.00000000E+00  0.00000000E+00  0.00000000E+00  0.00000000E+00
  0.00000000E+00  0.00000000E+00  0.00000000E+00  0.00000000E+00  0.00000000E+00
  0.00000000E+00  0.00000000E+00  0.00000000E+00  0.00000000E+00  0.00000000E+00
  0.00000000E+00  0.00000000E+00  0.00000000E+00  0.00000000E+00  0.00000000E+00
  0.00000000E+00  0.00000000E+00  0.00000000E+00  0.00000000E+00  0.00000000E+00
  0.00000000E+00  0.00000000E+00  0.00000000E+00  0.00000000E+00  0.00000000E+00
  0.00000000E+00  0.00000000E+00  0.00000000E+00  0.00000000E+00  0.00000000E+00
  0.00000000E+00  0.00000000E+00  0.00000000E+00  0.00000000E+00  0.00000000E+00
IOpCl                                      I                0
IROHF                                      I                0
Optimization MaxStp                        I                2
Optimization Job offset                    I                0
Optimization Num results per geometry      I                2
Optimization Num geometry variables        I               42
Opt point       1 Results for each geome   R   N=           2
  5.60303762E-03  0.00000000E+00
Opt point       1 Geometries               R   N=          42
  3.70469936E+00 -2.37628646E-01  1.00176800E-07  5.14884160E+00  1.24061707E+00
 -3.29984146E-08  3.93995609E+00 -1.41061115E+00 -1.68512164E+00  3.93995619E+00
 -1.41061134E+00  1.68512164E+00  1.07295601E+00  9.75374113E-01  2.18415816E-07
  8.93637958E-01  2.17087600E+00 -1.67798281E+00  8.93639275E-01  2.17087679E+00
  1.67798266E+00 -1.07295598E+00 -9.75374056E-01  2.31848398E-07 -8.93638757E-01
 -2.17087553E+00 -1.67798322E+00 -8.93638283E-01 -2.17087716E+00  1.67798223E+00
 -3.70469939E+00  2.37628625E-01  5.55191241E-07 -3.93995480E+00  1.41061030E+00
 -1.68512173E+00 -5.14884158E+00 -1.24061714E+00  2.50926419E-07 -3.93995769E+00
  1.41061213E+00  1.68512154E+00
Opt point       1 Gradient at each geome   R   N=          42
  8.16860931E-06 -3.90577778E-05  6.01528111E-09  1.83709591E-05  5.83962496E-06
 -1.26529216E-09  2.06342279E-05  1.31581498E-05  4.68018059E-05  2.06332597E-05
  1.31584118E-05 -4.68040699E-05  1.87828980E-05  6.89961983E-05 -1.05710018E-08
  1.55811022E-05 -8.10074047E-06 -4.56860962E-05  1.55833740E-05 -8.09156168E-06
  4.56932709E-05 -1.87839929E-05 -6.89971560E-05 -4.03867772E-09 -1.55817846E-05
  8.09512767E-06 -4.56894188E-05 -1.55832112E-05  8.09728055E-06  4.56890016E-05
 -8.16658369E-06  3.90574881E-05  2.02221315E-08 -2.06320513E-05 -1.31530545E-05
  4.67970445E-05 -1.83717065E-05 -5.83931791E-06 -3.47769896E-09 -2.06351000E-05
 -1.31626726E-05 -4.68084227E-05
Optimization Number of geometries          I   N=           1
           1
MMPar NCPar                                I   N=          16
          -1         138          14         203           4           3
          10           6          18           6           4          95
           6           7           0           9
MMPar IPrt                                 I   N=          18
           1           1           6           6           6           3
           6           3           0           0           0           0
           0           0           0           0           0           0
MMPar ICnvrt                               I   N=           6
           0           0           0           0           0           0
MMPar ICntr                                I   N=           4
           0           0           0           0
MMPar IList                                I   N=          97
           5           0           0           0           0           0
           0           0           0           0           0           0
           0           0           0           0           0           0
           0           0           0           0           0           0
           0           0           0           0           0           0
           0           0           0           0           0           0
           0           0           0           0           0           0
           0           0           0           0           0           0
           0           0           0           0           0           0
           0           0           0           0           0           0
           0           0           0           0           0           0
           0           0           0           0           0           0
           0           0           0           0           0           0
           0           0           0           0           0           0
           0           0           0           0           0           0
           0           0           0           0           0           7
           0
MMPar AtL                                  I   N=          14
           1           1           1           1           1           1
           1           1           1           1           1           1
           1           1
MMPar ChL                                  I   N=          14
           0           0           0           0           0           0
           0           0           0           0           0           0
           0           0
MMPar Q                                    R   N=          14
 -2.67532000E-01  8.38210000E-02  7.73630000E-02  7.73600000E-02 -9.22570000E-02
  6.06230000E-02  6.06220000E-02 -9.22580000E-02  6.06270000E-02  6.06180000E-02
 -2.67532000E-01  7.73300000E-02  8.38210000E-02  7.73940000E-02
MMPar IAType                               I   N=          28
           1          34          34          34           1          34
          34           1          34          34           1          34
          34          34           0           0           0           0
           0           0           0           0           0           0
           0           0           0           0
MMPar IAtTpT                               I   N=           3
           0    20001001    20001034
MMPar IUserT                               I   N=           3
           0           0           0
MMPar StepD                                I   N=          95
           0           0           0           0           0           0
           0           0           0           0           0           0
           0           0           0           0           0           0
           0           0           0           0           0           0
           0           0           0           0           0           0
           0           0           0           0           0           0
           0           0           0           0           0           0
           0           0           0           0           0           0
           0           0           0           0           0           0
           0           0           0           0           0           0
           0           0           0           0           0           0
           0           0           0           0           0           0
           0           0           0           0           0           0
           0           0           0           0           0           0
           0           0           0           0           0           0
           0           0           0           0           0
MMPar ICorL                                I   N=        1380
           3           1           0           0           0           0
           0           0           0           6    20001001    20001001
           0           0           0           0           0           0
           0          10    20001001    20001034           0           0
           0           0           0           0           0          10
    20001001    20001001    20001001           0           0           0
           0           0           0          20    20001001    20001001
    20001034           0           0           0           0           0
           0          20    20001034    20001001    20001034           0
           0           0           0           0           0          20
    20001001    20001001    20001001    20001001           0           0
           0           0           0          30    20001001    20001001
    20001001    20001034           0           0           0           0
           0          30    20001034    20001001    20001001    20001034
           0           0           0           0           0          30
           3           1           0           0           0           0
           0           0           0           2           1           2
           0           0           0           0           0           0
           0          10           1           3           0           0
           0           0           0           0           0          10
           1           4           0           0           0           0
           0           0           0          10           1           5
           0           0           0           0           0           0
           0          10           5           6           0           0
           0           0           0           0           0          10
           5           7           0           0           0           0
           0           0           0          10           5           8
           0           0           0           0           0           0
           0          10           8           9           0           0
           0           0           0           0           0          10
           8          10           0           0           0           0
           0           0           0          10           8          11
           0           0           0           0           0           0
           0          10          11          12           0           0
           0           0           0           0           0          10
          11          13           0           0           0           0
           0           0           0          10          11          14
           0           0           0           0           0           0
           0          10           1           5           6           0
           0           0           0           0           0          20
           1           5           7           0           0           0
           0           0           0          20           1           5
           8           0           0           0           0           0
           0          20           2           1           3           0
           0           0           0           0           0          20
           2           1           4           0           0           0
           0           0           0          20           5           1
           2           0           0           0           0           0
           0          20           3           1           4           0
           0           0           0           0           0          20
           5           1           3           0           0           0
           0           0           0          20           5           1
           4           0           0           0           0           0
           0          20           5           8           9           0
           0           0           0           0           0          20
           5           8          10           0           0           0
           0           0           0          20           5           8
          11           0           0           0           0           0
           0          20           6           5           7           0
           0           0           0           0           0          20
           8           5           6           0           0           0
           0           0           0          20           8           5
           7           0           0           0           0           0
           0          20           8          11          12           0
           0           0           0           0           0          20
           8          11          13           0           0           0
           0           0           0          20           8          11
          14           0           0           0           0           0
           0          20           9           8          10           0
           0           0           0           0           0          20
          11           8           9           0           0           0
           0           0           0          20          11           8
          10           0           0           0           0           0
           0          20          12          11          13           0
           0           0           0           0           0          20
          12          11          14           0           0           0
           0           0           0          20          13          11
          14           0           0           0           0           0
           0          20           2           1           5           6
           0           0           0           0           0          30
           2           1           5           7           0           0
           0           0           0          30           8           5
           1           2           0           0           0           0
           0          30           3           1           5           6
           0           0           0           0           0          30
           3           1           5           7           0           0
           0           0           0          30           8           5
           1           3           0           0           0           0
           0          30           4           1           5           6
           0           0           0           0           0          30
           4           1           5           7           0           0
           0           0           0          30           8           5
           1           4           0           0           0           0
           0          30           1           5           8           9
           0           0           0           0           0          30
           1           5           8          10           0           0
           0           0           0          30           1           5
           8          11           0           0           0           0
           0          30           6           5           8           9
           0           0           0           0           0          30
           6           5           8          10           0           0
           0           0           0          30          11           8
           5           6           0           0           0           0
           0          30           7           5           8           9
           0           0           0           0           0          30
           7           5           8          10           0           0
           0           0           0          30          11           8
           5           7           0           0           0           0
           0          30           5           8          11          12
           0           0           0           0           0          30
           5           8          11          13           0           0
           0           0           0          30           5           8
          11          14           0           0           0           0
           0          30           9           8          11          12
           0           0           0           0           0          30
           9           8          11          13           0           0
           0           0           0          30           9           8