 Entering Gaussian System, Link 0=/home/emanuele/chem_software/gaussian//g09/g09
 Input=SmartField4gau.gjf
 Output=SmartField4gau.log
 Initial command:
 /home/emanuele/chem_software/gaussian//gdv/l1.exe "/home/emanuele/chem_software/gaussian/scratch/Gau-5065.inp" -scrdir="/home/emanuele/chem_software/gaussian/scratch/"
 Entering Link 1 = /home/emanuele/chem_software/gaussian//gdv/l1.exe PID=      5067.
  
 Copyright (c) 1988-2020, Gaussian, Inc.  All Rights Reserved.
  
 This is the private, development version of
 the Gaussian(R) DV system of programs. It is based on
 the Gaussian(R) 16 system (copyright 2016, Gaussian, Inc.),
 the Gaussian(R) 09 system (copyright 2009, Gaussian, Inc.),
 the Gaussian(R) 03 system (copyright 2003, Gaussian, Inc.),
 the Gaussian(R) 98 system (copyright 1998, Gaussian, Inc.),
 the Gaussian(R) 94 system (copyright 1995, Gaussian, Inc.),
 the Gaussian 92(TM) system (copyright 1992, Gaussian, Inc.),
 the Gaussian 90(TM) system (copyright 1990, Gaussian, Inc.),
 the Gaussian 88(TM) system (copyright 1988, Gaussian, Inc.),
 the Gaussian 86(TM) system (copyright 1986, Carnegie Mellon
 University), and the Gaussian 82(TM) system (copyright 1983,
 Carnegie Mellon University). Gaussian is a federally registered
 trademark of Gaussian, Inc.
  
 This software contains proprietary and confidential information,
 including trade secrets, belonging to Gaussian, Inc.
  
 This software is provided under written license and may be
 used, copied, transmitted, or stored only in accord with that
 written license.
  
 The following legend is applicable only to US Government
 contracts under FAR:
  
                    RESTRICTED RIGHTS LEGEND
  
 Use, reproduction and disclosure by the US Government is
 subject to restrictions as set forth in subparagraphs (a)
 and (c) of the Commercial Computer Software - Restricted
 Rights clause in FAR 52.227-19.
  
 Gaussian, Inc.
 340 Quinnipiac St., Bldg. 40, Wallingford CT 06492
  
  
 ---------------------------------------------------------------
 Warning -- This program may not be used in any manner that
 competes with the business of Gaussian, Inc. or will provide
 assistance to any competitor of Gaussian, Inc.  The licensee
 of this program is prohibited from giving any competitor of
 Gaussian, Inc. access to this program.  By using this program,
 the user acknowledges that Gaussian, Inc. is engaged in the
 business of creating and licensing software in the field of
 computational chemistry and represents and warrants to the
 licensee that it is not a competitor of Gaussian, Inc. and that
 it will not use this program in any manner prohibited above.
 ---------------------------------------------------------------
  

 Cite this work as:
 Gaussian Development Version, Revision J.14,
 M. J. Frisch, G. W. Trucks, H. B. Schlegel, G. E. Scuseria, 
 M. A. Robb, J. R. Cheeseman, G. Scalmani, V. Barone, 
 G. A. Petersson, H. Nakatsuji, X. Li, A. V. Marenich, M. Caricato, 
 J. Bloino, B. G. Janesko, J. Zheng, R. Gomperts, B. Mennucci, 
 H. P. Hratchian, J. V. Ortiz, A. F. Izmaylov, J. L. Sonnenberg, 
 D. Williams-Young, F. Ding, F. Lipparini, F. Egidi, J. Goings, 
 B. Peng, A. Petrone, T. Henderson, D. Ranasinghe, V. G. Zakrzewski, 
 J. Gao, N. Rega, G. Zheng, W. Liang, M. Hada, M. Ehara, K. Toyota, 
 R. Fukuda, J. Hasegawa, M. Ishida, T. Nakajima, Y. Honda, O. Kitao, 
 H. Nakai, T. Vreven, K. Throssell, J. A. Montgomery, Jr., 
 J. E. Peralta, F. Ogliaro, M. J. Bearpark, J. J. Heyd, 
 E. N. Brothers, K. N. Kudin, V. N. Staroverov, T. A. Keith, 
 R. Kobayashi, J. Normand, K. Raghavachari, A. P. Rendell, 
 J. C. Burant, S. S. Iyengar, J. Tomasi, M. Cossi, J. M. Millam, 
 M. Klene, C. Adamo, R. Cammi, J. W. Ochterski, R. L. Martin, 
 K. Morokuma, O. Farkas, J. B. Foresman, and D. J. Fox, 
 Gaussian, Inc., Wallingford CT, 2020.
 
 ******************************************
 Gaussian DV:  ES64L-GDVRevJ.14 29-Dec-2020
                15-Nov-2023 
 ******************************************
 %mem=1GB
 %nprocshared=1
 Will use up to    1 processors via shared memory.
 %chk=SmartField4gau.chk
 -------------------------------------------------------
 #p Amber=(SoftFirst,Print) nosymm geom=nocrowd opt Freq
 -------------------------------------------------------
 1/6=10,10=10,18=4000020,19=15,37=210000000,38=1,56=2,64=203/1,3;
 2/9=110,12=1,15=1,40=1/2;
 3/5=30,11=9,25=1,30=1,41=10030000,43=2,71=1/1;
 4/20=11,22=1001,24=3,119=11/2;
 7/30=1,44=-1/16;
 1/6=10,10=10,18=4000020,19=15,64=203/3(2);
 2/9=110,12=1,15=1/2;
 99//99;
 2/9=110,12=1,15=1/2;
 3/5=30,11=9,25=1,30=1,41=10030000,43=2,71=1/1;
 4/16=2,20=11,22=1001,24=3,119=11/2;
 7/30=1,44=-1/16;
 1/6=10,10=10,18=4000020,19=15,64=203/3(-4);
 2/9=110,12=1,15=1/2;
 99/9=10/99;
 Leave Link    1 at Wed Nov 15 17:58:17 2023, MaxMem=   134217728 cpu:               0.0 elap:               0.0
 (Enter /home/emanuele/chem_software/gaussian//gdv/l101.exe)
 -----
 Title
 -----
 Symbolic Z-matrix:
 Charge =  0 Multiplicity = 1
 C-CT--0.267532        1.9569   -0.12039   0. 
 H-HC-+0.083821        2.74201   0.63726   0. 
 H-HC-+0.077363        2.10375  -0.74938  -0.88076 
 H-HC-+0.077360        2.10375  -0.74938   0.88076 
 C-CT--0.092257        0.56696   0.51292   0. 
 H-HC-+0.060623        0.46175   1.1634   -0.87403 
 H-HC-+0.060622        0.46175   1.1634    0.87403 
 C-CT--0.092258       -0.56696  -0.51292   0. 
 H-HC-+0.060627       -0.46175  -1.1634   -0.87403 
 H-HC-+0.060618       -0.46175  -1.1634    0.87403 
 C-CT--0.267532       -1.9569    0.12039   0. 
 H-HC-+0.077330       -2.10375   0.74938  -0.88076 
 H-HC-+0.083821       -2.74201  -0.63726   0. 
 H-HC-+0.077394       -2.10375   0.74938   0.88076 
 
 ITRead=  3  3  3  3  3  3  3  3  3  3  3  3  3  3
 MicOpt=  0  0  0  0  0  0  0  0  0  0  0  0  0  0
 DXMax1 from symmetrization= 1.89D-06
 NAtoms=     14 NQM=        0 NQMF=       0 NMMI=      0 NMMIF=      0
                NMic=      14 NMicF=      0.
                    Isotopes and Nuclear Properties:
 (Nuclear quadrupole moments (NQMom) in fm**2, nuclear magnetic moments (NMagM)
  in nuclear magnetons)

  Atom         1           2           3           4           5           6           7           8           9          10
 IAtWgt=          12           1           1           1          12           1           1          12           1           1
 AtmWgt=  12.0000000   1.0078250   1.0078250   1.0078250  12.0000000   1.0078250   1.0078250  12.0000000   1.0078250   1.0078250
 NucSpn=           0           1           1           1           0           1           1           0           1           1
 AtZEff=  -0.0000000  -0.0000000  -0.0000000  -0.0000000  -0.0000000  -0.0000000  -0.0000000  -0.0000000  -0.0000000  -0.0000000
 NQMom=    0.0000000   0.0000000   0.0000000   0.0000000   0.0000000   0.0000000   0.0000000   0.0000000   0.0000000   0.0000000
 NMagM=    0.0000000   2.7928460   2.7928460   2.7928460   0.0000000   2.7928460   2.7928460   0.0000000   2.7928460   2.7928460
 AtZNuc=   6.0000000   1.0000000   1.0000000   1.0000000   6.0000000   1.0000000   1.0000000   6.0000000   1.0000000   1.0000000

  Atom        11          12          13          14
 IAtWgt=          12           1           1           1
 AtmWgt=  12.0000000   1.0078250   1.0078250   1.0078250
 NucSpn=           0           1           1           1
 AtZEff=  -0.0000000  -0.0000000  -0.0000000  -0.0000000
 NQMom=    0.0000000   0.0000000   0.0000000   0.0000000
 NMagM=    0.0000000   2.7928460   2.7928460   2.7928460
 AtZNuc=   6.0000000   1.0000000   1.0000000   1.0000000
 Generating MM parameters.
 Read MM parameter file:
 Include all MM classes

 MM sanity checks:
 All charges sum to:                0.00000000
 Charges of atoms sum to:           0.00000000
 MMInit generated parameter data with length LenPar=        2717.
 MM Charge=              0.0000 electrons
 MM Dipole moment (Debye):
    X=             -0.0000    Y=              0.0000    Z=              0.0002  Tot=              0.0002
 MM Quadrupole moment (Debye-Ang):
   XX=              2.7540   YY=              2.4677   ZZ=              2.0428
   XY=              0.0372   XZ=             -0.0006   YZ=              0.0003
 MM Traceless Quadrupole moment (Debye-Ang):
   XX=              0.3325   YY=              0.0462   ZZ=             -0.3787
   XY=              0.0372   XZ=             -0.0006   YZ=              0.0003
 MM Octapole moment (Debye-Ang**2):
  XXX=             -0.0000  YYY=              0.0000  ZZZ=              0.0002  XYY=             -0.0000
  XXY=              0.0000  XXZ=              0.0011  XZZ=             -0.0000  YZZ=              0.0000
  YYZ=              0.0001  XYZ=             -0.0004
 MM Hexadecapole moment (Debye-Ang**3):
 XXXX=             36.9049 YYYY=              2.6734 ZZZZ=              1.5741 XXXY=              2.5774
 XXXZ=             -0.0026 YYYX=              0.0434 YYYZ=              0.0002 ZZZX=             -0.0005
 ZZZY=              0.0002 XXYY=              6.2712 XXZZ=              5.2927 YYZZ=              1.8518
 XXYZ=              0.0009 YYXZ=             -0.0003 ZZXY=             -1.3397
 Leave Link  101 at Wed Nov 15 17:58:17 2023, MaxMem=   134217728 cpu:               0.2 elap:               0.2
 (Enter /home/emanuele/chem_software/gaussian//gdv/l103.exe)

 GradGradGradGradGradGradGradGradGradGradGradGradGradGradGradGradGradGrad
 Berny optimization.
 Initialization pass.
 No Z-matrix variables, so optimization will use Cartesian coordinates.
 Trust Radius=1.00D-01 FncErr=1.00D-07 GrdErr=1.00D-07 EigMax=2.50D+02 EigMin=1.00D-04
 Number of steps in this run=      2 maximum allowed number of steps=      2.
 GradGradGradGradGradGradGradGradGradGradGradGradGradGradGradGradGradGrad

 Leave Link  103 at Wed Nov 15 17:58:17 2023, MaxMem=   134217728 cpu:               0.0 elap:               0.0
 (Enter /home/emanuele/chem_software/gaussian//gdv/l202.exe)
                          Input orientation:                          
 ---------------------------------------------------------------------
 Center     Atomic      Atomic             Coordinates (Angstroms)
 Number     Number       Type             X           Y           Z
 ---------------------------------------------------------------------
      1          6    20001001        1.956897   -0.120392    0.000000
      2          1    20001034        2.742005    0.637259    0.000000
      3          1    20001034        2.103753   -0.749379   -0.880760
      4          1    20001034        2.103753   -0.749379    0.880760
      5          6    20001001        0.566957    0.512915    0.000000
      6          1    20001034        0.461751    1.163403   -0.874026
      7          1    20001034        0.461751    1.163403    0.874026
      8          6    20001001       -0.566957   -0.512915    0.000000
      9          1    20001034       -0.461751   -1.163403   -0.874026
     10          1    20001034       -0.461751   -1.163403    0.874026
     11          6    20001001       -1.956897    0.120392    0.000000
     12          1    20001034       -2.103753    0.749379   -0.880760
     13          1    20001034       -2.742005   -0.637259    0.000000
     14          1    20001034       -2.103753    0.749379    0.880760
 ---------------------------------------------------------------------
                    Distance matrix (angstroms):
                    1          2          3          4          5
     1  C    0.000000
     2  H    1.091068   0.000000
     3  H    1.092213   1.762348   0.000000
     4  H    1.092213   1.762348   1.761520   0.000000
     5  C    1.527420   2.178599   2.175055   2.175055   0.000000
     6  H    2.155809   2.498061   2.520903   3.071511   1.094589
     7  H    2.155809   2.498061   3.071511   2.520903   1.094589
     8  C    2.554195   3.503160   2.822117   2.822117   1.529081
     9  H    2.775185   3.777613   2.598706   3.135682   2.152255
    10  H    2.775185   3.777613   3.135682   2.598706   2.152255
    11  C    3.921194   4.727244   4.245129   4.245129   2.554195
    12  H    4.245129   4.926427   4.466473   4.801285   2.822117
    13  H    4.727244   5.630165   4.926427   4.926427   3.503160
    14  H    4.245129   4.926427   4.801285   4.466473   2.822117
                    6          7          8          9         10
     6  H    0.000000
     7  H    1.748052   0.000000
     8  C    2.152255   2.152255   0.000000
     9  H    2.503374   3.053288   1.094589   0.000000
    10  H    3.053288   2.503374   1.094589   1.748052   0.000000
    11  C    2.775185   2.775185   1.527420   2.155809   2.155809
    12  H    2.598706   3.135682   2.175055   2.520903   3.071511
    13  H    3.777613   3.777613   2.178599   2.498061   2.498061
    14  H    3.135682   2.598706   2.175055   3.071511   2.520903
                   11         12         13         14
    11  C    0.000000
    12  H    1.092213   0.000000
    13  H    1.091068   1.762348   0.000000
    14  H    1.092213   1.761520   1.762348   0.000000
 Symmetry turned off by external request.
 Stoichiometry    C4H10
 Framework group  C2H[SGH(C4H2),X(H8)]
 Deg. of freedom    11
 Full point group                 C2H     NOp   4
 Rotational constants (GHZ):          23.6116490           3.6179190           3.3991535
 Leave Link  202 at Wed Nov 15 17:58:17 2023, MaxMem=   134217728 cpu:               0.0 elap:               0.0
 (Enter /home/emanuele/chem_software/gaussian//gdv/l301.exe)
 Standard basis: Dummy (5D, 7F)
    14 basis functions,    14 primitive gaussians,    14 cartesian basis functions
     9 alpha electrons        9 beta electrons
       nuclear repulsion energy        36.5440176861 Hartrees.
 IExCor=       0 DFT=F Ex=HF Corr=None N6=None ScaHFX=  1.000000
 ScaDFX=  1.000000  1.000000  1.000000  1.000000  1.000000  0.000000
 ScaDFX=  0.000000  0.000000  0.000000  0.000000  0.000000  0.000000
 IRadAn=      5 IRanWt=     -1 IRanGd=            0 ICorTp=0 IEmpDi=  4
 NAtoms=   14 NActive=   14 NUniq=   14 SFac= 1.00D+00 NAtFMM=   60 NAOKFM=F Big=F
 Integral buffers will be    131072 words long.
 Raffenetti 1 integral format.
 Two-electron integral symmetry is turned off.
 Leave Link  301 at Wed Nov 15 17:58:17 2023, MaxMem=   134217728 cpu:               0.0 elap:               0.0
 (Enter /home/emanuele/chem_software/gaussian//gdv/l402.exe)
 AMBER calculation of energy and first derivatives.
 NRF= 0 NRA=   0 NVA=  14 HaveQM=F NVQ=       0
 Convergence limit is  0.750E-04 MaxStp= 10000 StMxLn= 3.00D-04 StpMin= 1.00D-06.
 Convergence criteria             0.00011250 0.00007500 0.00045000 0.00030000
  Step  NS  ND Rises OKQ   Scale  Max. Force  RMS Force Max. Disp.  RMS Disp.     Energy   Flag
     1   0   0   F    T  1.00D+00 0.00849299 0.00331050 0.00849299 0.00331050    0.0062996 ----
     2   0   0   F    F  4.57D-01 0.00849299 0.00331050 0.00388144 0.00151295    0.0059976 ----
     3   0   0   F    T  2.46D+00 0.00310907 0.00173545 0.00911121 0.00482345    0.0059647 ----
     4   0   0   F    F  7.00D-01 0.00310907 0.00173545 0.00638218 0.00337871    0.0057447 ----
     5   0   0   F    T  8.25D+00 0.00166118 0.00086512 0.01533063 0.00820216    0.0056997 ----
     6   0   0   F    F -3.52D-01 0.00166118 0.00086512 0.00540004 0.00288912    0.0056405 ----
     7   0   0   F    T  2.92D+00 0.00265737 0.00105627 0.01094391 0.00531304    0.0056157 ----
     8   0   0   F    F  1.37D-01 0.00265737 0.00105627 0.00150037 0.00072840    0.0055390 ----
     9   0   0   F    T  6.91D+00 0.00160419 0.00061496 0.01252004 0.00604144    0.0055379 ----
    10   0   0   T    F  3.03D-01 0.00160419 0.00061496 0.00379746 0.00183243    0.0056088 ----
    11   0   0   F    T  1.06D+01 0.00040625 0.00016127 0.00565706 0.00183243    0.0055213 ----
    12   0   0   F    F -3.37D-01 0.00040625 0.00016127 0.00190721 0.00061778    0.0055184 ----
    13   0   0   F    T  2.99D+00 0.00075174 0.00022592 0.00329583 0.00121465    0.0055174 ----
    14   0   0   F    F -3.94D-01 0.00075174 0.00022592 0.00130015 0.00047916    0.0055163 ----
    15   0   0   F    T  7.23D+00 0.00017045 0.00008440 0.00185372 0.00073549    0.0055155 ----
    16   0   0   F    F  4.63D-01 0.00017045 0.00008440 0.00085800 0.00034042    0.0055141 ----
    17   0   0   F    T  2.64D+01 0.00007704 0.00003624 0.00219212 0.00107591    0.0055139 ++--
    18   0   0   T    T  1.00D+00 0.00138904 0.00039764 0.00138904 0.00039764    0.0055193 ----
    19   0   0   T    F  5.00D-01 0.00138904 0.00039764 0.00069452 0.00019882    0.0055165 ---+
    20   0   0   T    F  5.00D-01 0.00138904 0.00039764 0.00034726 0.00009941    0.0055147 --++
    21   0   0   T    F  5.00D-01 0.00138904 0.00039764 0.00017363 0.00004971    0.0055142 --++
    22   0   0   T    F  5.00D-01 0.00138904 0.00039764 0.00008681 0.00002485    0.0055140 --++
    23   0   0   T    F  5.00D-01 0.00138904 0.00039764 0.00004341 0.00001243    0.0055139 --++
    24   0   0   T    F  5.00D-01 0.00138904 0.00039764 0.00002170 0.00000621    0.0055139 --++
    25   0   0   T    F  5.00D-01 0.00138904 0.00039764 0.00001085 0.00000311    0.0055139 --++
    26   0   0   T    F  5.00D-01 0.00138904 0.00039764 0.00000543 0.00000155    0.0055139 --++
    27   0   0   T    F  5.00D-01 0.00138904 0.00039764 0.00000271 0.00000078    0.0055139 --++
    28   0   0   T    F  5.00D-01 0.00138904 0.00039764 0.00000136 0.00000039    0.0055139 --++
    29   0   0   T    F  5.00D-01 0.00138904 0.00039764 0.00000068 0.00000019    0.0055139 --++
    30   0   0   T    T  1.00D+00 0.00007749 0.00003633 0.00005327 0.00002305    0.0055139 ++++
    31   0   0   F    F  9.18D+00 0.00007749 0.00003633 0.00048900 0.00021157    0.0055139 ++-+
    32   0   0   F    T  3.32D+00 0.00016075 0.00005935 0.00053766 0.00023461    0.0055138 -+-+
    33   0   0   F    T  1.51D+00 0.00024062 0.00007190 0.00055993 0.00023461    0.0055137 -+-+
    34   0   0   T    F  5.00D-01 0.00024062 0.00007190 0.00027997 0.00011731    0.0055139 -+++
    35   0   0   T    F  5.00D-01 0.00024062 0.00007190 0.00013998 0.00005865    0.0055138 -+++
    36   0   0   T    F  5.00D-01 0.00024062 0.00007190 0.00006999 0.00002933    0.0055138 -+++
    37   0   0   T    F  5.00D-01 0.00024062 0.00007190 0.00003500 0.00001466    0.0055138 -+++
    38   0   0   T    F  5.00D-01 0.00024062 0.00007190 0.00001750 0.00000733    0.0055138 -+++
    39   0   0   T    F  5.00D-01 0.00024062 0.00007190 0.00000875 0.00000367    0.0055137 -+++
    40   0   0   T    F  5.00D-01 0.00024062 0.00007190 0.00000437 0.00000183    0.0055137 -+++
    41   0   0   T    F  5.00D-01 0.00024062 0.00007190 0.00000219 0.00000092    0.0055137 -+++
    42   0   0   T    F  5.00D-01 0.00024062 0.00007190 0.00000109 0.00000046    0.0055137 -+++
    43   0   0   T    F  5.00D-01 0.00024062 0.00007190 0.00000055 0.00000023    0.0055137 -+++
    44   0   0   T    T  1.00D+00 0.00024077 0.00007195 0.00023992 0.00007140    0.0055137 -+++
    45   0   0   F    T  5.19D+00 0.00004234 0.00001833 0.00017436 0.00007140    0.0055136 ====
 ****************************
 MOLECULAR MECHANICS FUNCTION
 ****************************
 Atomic parameters:
 Center  VDW
      1 1.9080 0.1094000
      2 1.4870 0.0157000
      3 1.4870 0.0157000
      4 1.4870 0.0157000
      5 1.9080 0.1094000
      6 1.4870 0.0157000
      7 1.4870 0.0157000
      8 1.9080 0.1094000
      9 1.4870 0.0157000
     10 1.4870 0.0157000
     11 1.9080 0.1094000
     12 1.4870 0.0157000
     13 1.4870 0.0157000
     14 1.4870 0.0157000
 Molecular mechanics terms:
 NBDir 3 1      0      0
 HrmStr1  1- 2  368.27 1.0930
 HrmStr1  1- 3  368.27 1.0930
 HrmStr1  1- 4  368.27 1.0930
 HrmStr1  1- 5  302.21 1.5280
 HrmStr1  5- 6  368.27 1.0930
 HrmStr1  5- 7  368.27 1.0930
 HrmStr1  5- 8  302.21 1.5280
 HrmStr1  8- 9  368.27 1.0930
 HrmStr1  8-10  368.27 1.0930
 HrmStr1  8-11  302.21 1.5280
 HrmStr1 11-12  368.27 1.0930
 HrmStr1 11-13  368.27 1.0930
 HrmStr1 11-14  368.27 1.0930
 HrmBnd1  1- 5- 6  40.03 110.16
 HrmBnd1  1- 5- 7  40.03 110.16
 HrmBnd1  1- 5- 8  52.04 113.37
 HrmBnd1  2- 1- 3  33.87 110.16
 HrmBnd1  2- 1- 4  33.87 110.16
 HrmBnd1  5- 1- 2  40.03 110.16
 HrmBnd1  3- 1- 4  33.87 110.16
 HrmBnd1  5- 1- 3  40.03 110.16
 HrmBnd1  5- 1- 4  40.03 110.16
 HrmBnd1  5- 8- 9  40.03 110.16
 HrmBnd1  5- 8-10  40.03 110.16
 HrmBnd1  5- 8-11  52.04 113.37
 HrmBnd1  6- 5- 7  33.87 110.16
 HrmBnd1  8- 5- 6  40.03 110.16
 HrmBnd1  8- 5- 7  40.03 110.16
 HrmBnd1  8-11-12  40.03 110.16
 HrmBnd1  8-11-13  40.03 110.16
 HrmBnd1  8-11-14  40.03 110.16
 HrmBnd1  9- 8-10  33.87 110.16
 HrmBnd1 11- 8- 9  40.03 110.16
 HrmBnd1 11- 8-10  40.03 110.16
 HrmBnd1 12-11-13  33.87 110.16
 HrmBnd1 12-11-14  33.87 110.16
 HrmBnd1 13-11-14  33.87 110.16
 AmbTrs  2- 1- 5- 6   0   0   0   0  0.0000  0.0000  2.1600  0.0000  9.0
 AmbTrs  2- 1- 5- 7   0   0   0   0  0.0000  0.0000  2.1600  0.0000  9.0
 AmbTrs  8- 5- 1- 2   0   0   0   0  0.0000  0.0000  2.1600  0.0000  9.0
 AmbTrs  3- 1- 5- 6   0   0   0   0  0.0000  0.0000  2.1600  0.0000  9.0
 AmbTrs  3- 1- 5- 7   0   0   0   0  0.0000  0.0000  2.1600  0.0000  9.0
 AmbTrs  8- 5- 1- 3   0   0   0   0  0.0000  0.0000  2.1600  0.0000  9.0
 AmbTrs  4- 1- 5- 6   0   0   0   0  0.0000  0.0000  2.1600  0.0000  9.0
 AmbTrs  4- 1- 5- 7   0   0   0   0  0.0000  0.0000  2.1600  0.0000  9.0
 AmbTrs  8- 5- 1- 4   0   0   0   0  0.0000  0.0000  2.1600  0.0000  9.0
 AmbTrs  1- 5- 8- 9   0   0   0   0  0.0000  0.0000  2.1600  0.0000  9.0
 AmbTrs  1- 5- 8-10   0   0   0   0  0.0000  0.0000  2.1600  0.0000  9.0
 AmbTrs  1- 5- 8-11   0   0   0   0  0.0000  0.0000  2.3000  0.0000  9.0
 AmbTrs  6- 5- 8- 9   0   0   0   0  0.0000  0.0000  2.1600  0.0000  9.0
 AmbTrs  6- 5- 8-10   0   0   0   0  0.0000  0.0000  2.1600  0.0000  9.0
 AmbTrs 11- 8- 5- 6   0   0   0   0  0.0000  0.0000  2.1600  0.0000  9.0
 AmbTrs  7- 5- 8- 9   0   0   0   0  0.0000  0.0000  2.1600  0.0000  9.0
 AmbTrs  7- 5- 8-10   0   0   0   0  0.0000  0.0000  2.1600  0.0000  9.0
 AmbTrs 11- 8- 5- 7   0   0   0   0  0.0000  0.0000  2.1600  0.0000  9.0
 AmbTrs  5- 8-11-12   0   0   0   0  0.0000  0.0000  2.1600  0.0000  9.0
 AmbTrs  5- 8-11-13   0   0   0   0  0.0000  0.0000  2.1600  0.0000  9.0
 AmbTrs  5- 8-11-14   0   0   0   0  0.0000  0.0000  2.1600  0.0000  9.0
 AmbTrs  9- 8-11-12   0   0   0   0  0.0000  0.0000  2.1600  0.0000  9.0
 AmbTrs  9- 8-11-13   0   0   0   0  0.0000  0.0000  2.1600  0.0000  9.0
 AmbTrs  9- 8-11-14   0   0   0   0  0.0000  0.0000  2.1600  0.0000  9.0
 AmbTrs 10- 8-11-12   0   0   0   0  0.0000  0.0000  2.1600  0.0000  9.0
 AmbTrs 10- 8-11-13   0   0   0   0  0.0000  0.0000  2.1600  0.0000  9.0
 AmbTrs 10- 8-11-14   0   0   0   0  0.0000  0.0000  2.1600  0.0000  9.0
 NBPair  2- 1 3 1      0      0 -1.000 -1.000
 NBPair  3- 2 3 1      0      0 -1.000 -1.000
 NBPair  4- 2 3 1      0      0 -1.000 -1.000
 NBPair  5- 2 3 1      0      0 -1.000 -1.000
 NBPair  3- 1 3 1      0      0 -1.000 -1.000
 NBPair  4- 3 3 1      0      0 -1.000 -1.000
 NBPair  5- 3 3 1      0      0 -1.000 -1.000
 NBPair  4- 1 3 1      0      0 -1.000 -1.000
 NBPair  5- 4 3 1      0      0 -1.000 -1.000
 NBPair  5- 1 3 1      0      0 -1.000 -1.000
 NBPair  6- 2 3 1      0      0 -0.500 -0.167
 NBPair  7- 2 3 1      0      0 -0.500 -0.167
 NBPair  8- 2 3 1      0      0 -0.500 -0.167
 NBPair  6- 3 3 1      0      0 -0.500 -0.167
 NBPair  7- 3 3 1      0      0 -0.500 -0.167
 NBPair  8- 3 3 1      0      0 -0.500 -0.167
 NBPair  6- 4 3 1      0      0 -0.500 -0.167
 NBPair  7- 4 3 1      0      0 -0.500 -0.167
 NBPair  8- 4 3 1      0      0 -0.500 -0.167
 NBPair  6- 1 3 1      0      0 -1.000 -1.000
 NBPair  7- 1 3 1      0      0 -1.000 -1.000
 NBPair  8- 1 3 1      0      0 -1.000 -1.000
 NBPair  6- 5 3 1      0      0 -1.000 -1.000
 NBPair  7- 6 3 1      0      0 -1.000 -1.000
 NBPair  8- 6 3 1      0      0 -1.000 -1.000
 NBPair  7- 5 3 1      0      0 -1.000 -1.000
 NBPair  8- 7 3 1      0      0 -1.000 -1.000
 NBPair  8- 5 3 1      0      0 -1.000 -1.000
 NBPair  9- 1 3 1      0      0 -0.500 -0.167
 NBPair 10- 1 3 1      0      0 -0.500 -0.167
 NBPair 11- 1 3 1      0      0 -0.500 -0.167
 NBPair  9- 6 3 1      0      0 -0.500 -0.167
 NBPair 10- 6 3 1      0      0 -0.500 -0.167
 NBPair 11- 6 3 1      0      0 -0.500 -0.167
 NBPair  9- 7 3 1      0      0 -0.500 -0.167
 NBPair 10- 7 3 1      0      0 -0.500 -0.167
 NBPair 11- 7 3 1      0      0 -0.500 -0.167
 NBPair  9- 5 3 1      0      0 -1.000 -1.000
 NBPair 10- 5 3 1      0      0 -1.000 -1.000
 NBPair 11- 5 3 1      0      0 -1.000 -1.000
 NBPair  9- 8 3 1      0      0 -1.000 -1.000
 NBPair 10- 9 3 1      0      0 -1.000 -1.000
 NBPair 11- 9 3 1      0      0 -1.000 -1.000
 NBPair 10- 8 3 1      0      0 -1.000 -1.000
 NBPair 11-10 3 1      0      0 -1.000 -1.000
 NBPair 11- 8 3 1      0      0 -1.000 -1.000
 NBPair 12- 5 3 1      0      0 -0.500 -0.167
 NBPair 13- 5 3 1      0      0 -0.500 -0.167
 NBPair 14- 5 3 1      0      0 -0.500 -0.167
 NBPair 12- 9 3 1      0      0 -0.500 -0.167
 NBPair 13- 9 3 1      0      0 -0.500 -0.167
 NBPair 14- 9 3 1      0      0 -0.500 -0.167
 NBPair 12-10 3 1      0      0 -0.500 -0.167
 NBPair 13-10 3 1      0      0 -0.500 -0.167
 NBPair 14-10 3 1      0      0 -0.500 -0.167
 NBPair 12- 8 3 1      0      0 -1.000 -1.000
 NBPair 13- 8 3 1      0      0 -1.000 -1.000
 NBPair 14- 8 3 1      0      0 -1.000 -1.000
 NBPair 12-11 3 1      0      0 -1.000 -1.000
 NBPair 13-12 3 1      0      0 -1.000 -1.000
 NBPair 14-12 3 1      0      0 -1.000 -1.000
 NBPair 13-11 3 1      0      0 -1.000 -1.000
 NBPair 14-13 3 1      0      0 -1.000 -1.000
 NBPair 14-11 3 1      0      0 -1.000 -1.000
 Energy per function type:
 Direct Coulomb + vdW (small)                           0.002016552
 Direct Coulomb (large)                                -0.056455284
 Direct vdW (large)                                   555.659628748
 Non-direct Coulomb + vdW (small)                      -0.002404211
 Non-direct Coulomb (large)                             0.061759655
 Non-direct vdW (large)                              -555.659628748
 Harmonic stretch I                                     0.000054528
 Harmonic bend I                                        0.000527640
 Amber torsion                                          0.000014740
 Energy per function class:
        Coulomb               0.004034628
    Vanderwaals               0.000882083
     Stretching               0.000054528
        Bending               0.000527640
        Torsion               0.000014740
 Energy=    5.513619375E-03 NIter=   0.
 Dipole moment=      -0.000003       0.000002       0.000086
 Leave Link  402 at Wed Nov 15 17:58:17 2023, MaxMem=   134217728 cpu:               0.1 elap:               0.1
 (Enter /home/emanuele/chem_software/gaussian//gdv/l716.exe)
 Dipole        =-2.86994734D-06 2.38093656D-06 8.57522740D-05
 -------------------------------------------------------------------
 Center     Atomic                   Forces (Hartrees/Bohr)
 Number     Number              X              Y              Z
 -------------------------------------------------------------------
      1        6          -0.000029610   -0.000021821    0.000000016
      2        1           0.000000009    0.000000380   -0.000000001
      3        1          -0.000027947    0.000008357   -0.000004895
      4        1          -0.000027947    0.000008366    0.000004879
      5        6          -0.000042339   -0.000030910   -0.000000002
      6        1          -0.000016673    0.000010272    0.000014792
      7        1          -0.000016674    0.000010270   -0.000014790
      8        6           0.000042336    0.000030912    0.000000023
      9        1           0.000016676   -0.000010276    0.000014780
     10        1           0.000016672   -0.000010267   -0.000014801
     11        6           0.000029612    0.000021821    0.000000054
     12        1           0.000027943   -0.000008349   -0.000004913
     13        1          -0.000000008   -0.000000380   -0.000000002
     14        1           0.000027950   -0.000008377    0.000004860
 -------------------------------------------------------------------
 Cartesian Forces:  Max     0.000042339 RMS     0.000018329
 Z-matrix is all fixed cartesians, so copy forces.
 Leave Link  716 at Wed Nov 15 17:58:17 2023, MaxMem=   134217728 cpu:               0.0 elap:               0.0
 (Enter /home/emanuele/chem_software/gaussian//gdv/l103.exe)

 GradGradGradGradGradGradGradGradGradGradGradGradGradGradGradGradGradGrad
 Berny optimization.
 Search for a local minimum.
 Step number   1 out of a maximum of    2
 All quantities printed in internal units (Hartrees-Bohrs-Radians)
 RMS Force = .18329D-04 SwitMx=.10000D-02 MixMth= 2
 Mixed Optimization -- En-DIIS/RFO-DIIS
 Second derivative matrix not updated -- unit matrix used.
 ITU=  0
 RFO step:  Lambda=-1.41106108D-08 EMin= 1.00000000D+00
 Linear search not attempted -- first point.
 Variable       Old X    -DE/DX   Delta X   Delta X   Delta X     New X
                                 (Linear)    (Quad)   (Total)
    X1        3.70672  -0.00003   0.00000  -0.00003  -0.00003   3.70669
    Y1       -0.23762  -0.00002   0.00000  -0.00002  -0.00002  -0.23764
    Z1        0.00000   0.00000   0.00000   0.00000   0.00000   0.00000
    X2        5.15144   0.00000   0.00000   0.00000   0.00000   5.15144
    Y2        1.24000   0.00000   0.00000   0.00000   0.00000   1.24000
    Z2       -0.00000  -0.00000   0.00000  -0.00000  -0.00000  -0.00000
    X3        3.94629  -0.00003   0.00000  -0.00003  -0.00003   3.94626
    Y3       -1.41071   0.00001   0.00000   0.00001   0.00001  -1.41070
    Z3       -1.68460  -0.00000   0.00000  -0.00000  -0.00000  -1.68461
    X4        3.94629  -0.00003   0.00000  -0.00003  -0.00003   3.94626
    Y4       -1.41071   0.00001   0.00000   0.00001   0.00001  -1.41070
    Z4        1.68460   0.00000   0.00000   0.00000   0.00000   1.68461
    X5        1.07432  -0.00004   0.00000  -0.00004  -0.00004   1.07428
    Y5        0.97373  -0.00003   0.00000  -0.00003  -0.00003   0.97369
    Z5        0.00000  -0.00000   0.00000  -0.00000  -0.00000   0.00000
    X6        0.89565  -0.00002   0.00000  -0.00002  -0.00002   0.89563
    Y6        2.17125   0.00001   0.00000   0.00001   0.00001   2.17126
    Z6       -1.67650   0.00001   0.00000   0.00001   0.00001  -1.67648
    X7        0.89565  -0.00002   0.00000  -0.00002  -0.00002   0.89563
    Y7        2.17125   0.00001   0.00000   0.00001   0.00001   2.17126
    Z7        1.67650  -0.00001   0.00000  -0.00001  -0.00001   1.67648
    X8       -1.07432   0.00004   0.00000   0.00004   0.00004  -1.07428
    Y8       -0.97373   0.00003   0.00000   0.00003   0.00003  -0.97369
    Z8        0.00000   0.00000   0.00000   0.00000   0.00000   0.00000
    X9       -0.89565   0.00002   0.00000   0.00002   0.00002  -0.89563
    Y9       -2.17125  -0.00001   0.00000  -0.00001  -0.00001  -2.17126
    Z9       -1.67650   0.00001   0.00000   0.00001   0.00001  -1.67648
   X10       -0.89565   0.00002   0.00000   0.00002   0.00002  -0.89563
   Y10       -2.17125  -0.00001   0.00000  -0.00001  -0.00001  -2.17126
   Z10        1.67650  -0.00001   0.00000  -0.00001  -0.00001   1.67648
   X11       -3.70672   0.00003   0.00000   0.00003   0.00003  -3.70669
   Y11        0.23762   0.00002   0.00000   0.00002   0.00002   0.23764
   Z11        0.00000   0.00000   0.00000   0.00000   0.00000   0.00000
   X12       -3.94629   0.00003   0.00000   0.00003   0.00003  -3.94626
   Y12        1.41071  -0.00001   0.00000  -0.00001  -0.00001   1.41070
   Z12       -1.68460  -0.00000   0.00000  -0.00000  -0.00000  -1.68461
   X13       -5.15144  -0.00000   0.00000  -0.00000  -0.00000  -5.15144
   Y13       -1.24000  -0.00000   0.00000  -0.00000  -0.00000  -1.24000
   Z13        0.00000  -0.00000   0.00000  -0.00000  -0.00000   0.00000
   X14       -3.94629   0.00003   0.00000   0.00003   0.00003  -3.94626
   Y14        1.41071  -0.00001   0.00000  -0.00001  -0.00001   1.41070
   Z14        1.68460   0.00000   0.00000   0.00000   0.00000   1.68461
         Item               Value     Threshold  Converged?
 Maximum Force            0.000042     0.000450     YES
 RMS     Force            0.000018     0.000300     YES
 Maximum Displacement     0.000042     0.001800     YES
 RMS     Displacement     0.000018     0.001200     YES
 Predicted change in Energy=-7.055305D-09
 Optimization completed.
    -- Stationary point found.
 Largest change from initial coordinates is atom   13       0.019 Angstoms.
 GradGradGradGradGradGradGradGradGradGradGradGradGradGradGradGradGradGrad

 Leave Link  103 at Wed Nov 15 17:58:17 2023, MaxMem=   134217728 cpu:               0.0 elap:               0.0
 (Enter /home/emanuele/chem_software/gaussian//gdv/l202.exe)
                          Input orientation:                          
 ---------------------------------------------------------------------
 Center     Atomic      Atomic             Coordinates (Angstroms)
 Number     Number       Type             X           Y           Z
 ---------------------------------------------------------------------
      1          6    20001001        1.961514   -0.125742    0.000000
      2          1    20001034        2.726023    0.656177   -0.000000
      3          1    20001034        2.088287   -0.746514   -0.891453
      4          1    20001034        2.088287   -0.746514    0.891454
      5          6    20001001        0.568506    0.515273    0.000000
      6          1    20001034        0.473956    1.148974   -0.887164
      7          1    20001034        0.473957    1.148974    0.887164
      8          6    20001001       -0.568506   -0.515273    0.000000
      9          1    20001034       -0.473956   -1.148974   -0.887165
     10          1    20001034       -0.473956   -1.148974    0.887164
     11          6    20001001       -1.961514    0.125742    0.000000
     12          1    20001034       -2.088286    0.746513   -0.891454
     13          1    20001034       -2.726023   -0.656177    0.000000
     14          1    20001034       -2.088288    0.746514    0.891453
 ---------------------------------------------------------------------
                    Distance matrix (angstroms):
                    1          2          3          4          5
     1  C    0.000000
     2  H    1.093560   0.000000
     3  H    1.093672   1.780152   0.000000
     4  H    1.093672   1.780152   1.782907   0.000000
     5  C    1.533418   2.162113   2.167148   2.167148   0.000000
     6  H    2.150532   2.470165   2.489770   3.059807   1.094339
     7  H    2.150532   2.470165   3.059807   2.489770   1.094338
     8  C    2.559831   3.496601   2.811887   2.811887   1.534543
     9  H    2.786679   3.779617   2.593662   3.144924   2.154880
    10  H    2.786679   3.779617   3.144923   2.593662   2.154880
    11  C    3.931080   4.717453   4.237500   4.237500   2.559831
    12  H    4.237499   4.896981   4.435413   4.780340   2.811887
    13  H    4.717453   5.607770   4.896982   4.896982   3.496602
    14  H    4.237501   4.896983   4.780342   4.435415   2.811888
                    6          7          8          9         10
     6  H    0.000000
     7  H    1.774329   0.000000
     8  C    2.154880   2.154880   0.000000
     9  H    2.485780   3.054070   1.094339   0.000000
    10  H    3.054070   2.485781   1.094338   1.774329   0.000000
    11  C    2.786679   2.786679   1.533418   2.150532   2.150532
    12  H    2.593661   3.144923   2.167147   2.489769   3.059806
    13  H    3.779616   3.779617   2.162113   2.470165   2.470165
    14  H    3.144924   2.593663   2.167149   3.059807   2.489771
                   11         12         13         14
    11  C    0.000000
    12  H    1.093672   0.000000
    13  H    1.093560   1.780152   0.000000
    14  H    1.093672   1.782907   1.780152   0.000000
 Symmetry turned off by external request.
 Stoichiometry    C4H10
 Framework group  C1[X(C4H10)]
 Deg. of freedom    36
 Full point group                 C1      NOp   1
 Rotational constants (GHZ):          23.4393423           3.6113454           3.3975024
 Leave Link  202 at Wed Nov 15 17:58:17 2023, MaxMem=   134217728 cpu:               0.0 elap:               0.0
 (Enter /home/emanuele/chem_software/gaussian//gdv/l9999.exe)
 Unable to Open any file for archive entry.
 1\1\GINC-EMANUELE-XPS-13-9343\FOpt\AMBER\ZDO\C4H10\EMANUELE\15-Nov-202
 3\0\\#p Amber=(SoftFirst,Print) nosymm geom=nocrowd opt Freq\\Title\\0
 ,1\C,1.9615137855,-0.1257421526,0.0000000342\H,2.7260234395,0.65617717
 02,-0.0000000352\H,2.08828677,-0.7465138882,-0.8914534909\H,2.08828678
 67,-0.7465139624,0.8914535192\C,0.568506257,0.5152732583,0.000000103\H
 ,0.4739560246,1.1489737885,-0.8871643047\H,0.4739567799,1.1489741676,0
 .8871642124\C,-0.5685062378,-0.5152732347,0.0000000994\H,-0.4739564901
 ,-1.1489735483,-0.8871645009\H,-0.473956217,-1.148974374,0.8871640014\
 C,-1.9615138029,0.1257421443,0.00000027\H,-2.088285984,0.7465134413,-0
 .891453514\H,-2.7260234362,-0.6561772004,0.0000001089\H,-2.0882876754,
 0.7465143905,0.8914534971\\Version=ES64L-GDVRevJ.14\HF=0.0055136\RMSD=
 0.000e+00\RMSF=1.833e-05\Dipole=-0.0000029,0.0000024,0.0000858\PG=C01 
 [X(C4H10)]\\@
 The archive entry for this job was punched.


 SIGN SEEN IN A RESTAURANT-
 WE RESERVE THE RIGHT TO SERVE REFUSE TO ANYONE.
 Leave Link 9999 at Wed Nov 15 17:58:17 2023, MaxMem=   134217728 cpu:               0.0 elap:               0.0
 Job cpu time:       0 days  0 hours  0 minutes  0.6 seconds.
 Elapsed time:       0 days  0 hours  0 minutes  0.5 seconds.
 File lengths (MBytes):  RWF=      6 Int=      0 D2E=      0 Chk=      1 Scr=      1
 Normal termination of Gaussian DV at Wed Nov 15 17:58:17 2023.
 (Enter /home/emanuele/chem_software/gaussian//gdv/l1.exe)
 Link1:  Proceeding to internal job step number  2.
 --------------------------------------------------------------
 #P Geom=AllCheck Guess=TCheck SCRF=Check GenChk AMBER/ZDO Freq
 --------------------------------------------------------------
 1/10=4,18=10,29=7,30=1,38=1,40=1,56=2,64=203/1,3;
 2/12=1,15=1,40=1/2;
 3/5=30,11=9,14=-4,25=1,30=1,41=10030000,43=2,70=40000002,71=2,116=-2,140=1/1;
 4/20=11,22=2,24=3/2;
 7/8=1,25=1,30=1,44=-1/16;
 1/10=4,18=10,30=1,64=203/3;
 99//99;
 Leave Link    1 at Wed Nov 15 17:58:17 2023, MaxMem=   134217728 cpu:               0.0 elap:               0.0
 (Enter /home/emanuele/chem_software/gaussian//gdv/l101.exe)
 MM symbol table in CpMMST:
 There are    3 entries in the MM symbol table.
 Symbol    1 IAtTpT=           0 IUser=           0 String=*
 Symbol    2 IAtTpT=    20001001 IUser=           0 String=CT
 Symbol    3 IAtTpT=    20001034 IUser=           0 String=HC
 Structure from the checkpoint file:  "SmartField4gau.chk"
 -----
 Title
 -----
 Charge =  0 Multiplicity = 1
 No Z-Matrix found in chk file; cartesian coordinates used.
  C-CT--0.267532                                    1.961513785535     -0.125742152591      0.000000034192
  H-HC-0.083821                                     2.726023439530      0.656177170198     -0.000000035152
  H-HC-0.077363                                     2.088286769984     -0.746513888159     -0.891453490911
  H-HC-0.077360                                     2.088286786712     -0.746513962410      0.891453519179
  C-CT--0.092257                                    0.568506257018      0.515273258298      0.000000102991
  H-HC-0.060623                                     0.473956024600      1.148973788468     -0.887164304664
  H-HC-0.060622                                     0.473956779890      1.148974167624      0.887164212417
  C-CT--0.092258                                   -0.568506237779     -0.515273234741      0.000000099406
  H-HC-0.060627                                    -0.473956490052     -1.148973548327     -0.887164500907
  H-HC-0.060618                                    -0.473956217009     -1.148974373959      0.887164001389
  C-CT--0.267532                                   -1.961513802925      0.125742144262      0.000000270029
  H-HC-0.077330                                    -2.088285983974      0.746513441268     -0.891453514037
  H-HC-0.083821                                    -2.726023436159     -0.656177200379      0.000000108931
  H-HC-0.077394                                    -2.088287675368      0.746514390452      0.891453497138
 Recover connectivity data from disk.
 ITRead=  0  0  0  0  0  0  0  0  0  0  0  0  0  0
 MicOpt= -1 -1 -1 -1 -1 -1 -1 -1 -1 -1 -1 -1 -1 -1
 NAtoms=     14 NQM=       14 NQMF=       0 NMMI=      0 NMMIF=      0
                NMic=       0 NMicF=      0.
                    Isotopes and Nuclear Properties:
 (Nuclear quadrupole moments (NQMom) in fm**2, nuclear magnetic moments (NMagM)
  in nuclear magnetons)

  Atom         1           2           3           4           5           6           7           8           9          10
 IAtWgt=          12           1           1           1          12           1           1          12           1           1
 AtmWgt=  12.0000000   1.0078250   1.0078250   1.0078250  12.0000000   1.0078250   1.0078250  12.0000000   1.0078250   1.0078250
 NucSpn=           0           1           1           1           0           1           1           0           1           1
 AtZEff=   3.9000000   1.0000000   1.0000000   1.0000000   3.9000000   1.0000000   1.0000000   3.9000000   1.0000000   1.0000000
 NQMom=    0.0000000   0.0000000   0.0000000   0.0000000   0.0000000   0.0000000   0.0000000   0.0000000   0.0000000   0.0000000
 NMagM=    0.0000000   2.7928460   2.7928460   2.7928460   0.0000000   2.7928460   2.7928460   0.0000000   2.7928460   2.7928460
 AtZNuc=   6.0000000   1.0000000   1.0000000   1.0000000   6.0000000   1.0000000   1.0000000   6.0000000   1.0000000   1.0000000

  Atom        11          12          13          14
 IAtWgt=          12           1           1           1
 AtmWgt=  12.0000000   1.0078250   1.0078250   1.0078250
 NucSpn=           0           1           1           1
 AtZEff=   3.9000000   1.0000000   1.0000000   1.0000000
 NQMom=    0.0000000   0.0000000   0.0000000   0.0000000
 NMagM=    0.0000000   2.7928460   2.7928460   2.7928460
 AtZNuc=   6.0000000   1.0000000   1.0000000   1.0000000
 Generating MM parameters.
 Retrieving read-in MM parameters from chk file.
 Include all MM classes

 MM sanity checks:
 All charges sum to:                0.00000000
 Charges of atoms sum to:           0.00000000
 MMInit generated parameter data with length LenPar=        2717.
 MM Charge=              0.0000 electrons
 MM Dipole moment (Debye):
    X=             -0.0000    Y=              0.0000    Z=              0.0002  Tot=              0.0002
 MM Quadrupole moment (Debye-Ang):
   XX=              2.5525   YY=              2.4367   ZZ=              2.0979
   XY=              0.1318   XZ=             -0.0006   YZ=              0.0003
 MM Traceless Quadrupole moment (Debye-Ang):
   XX=              0.1902   YY=              0.0743   ZZ=             -0.2645
   XY=              0.1318   XZ=             -0.0006   YZ=              0.0003
 MM Octapole moment (Debye-Ang**2):
  XXX=             -0.0000  YYY=              0.0000  ZZZ=              0.0002  XYY=             -0.0000
  XXY=              0.0000  XXZ=              0.0011  XZZ=             -0.0000  YZZ=              0.0000
  YYZ=              0.0001  XYZ=             -0.0004
 MM Hexadecapole moment (Debye-Ang**3):
 XXXX=             34.6541 YYYY=              2.5776 ZZZZ=              1.6602 XXXY=              3.0962
 XXXZ=             -0.0026 YYYX=              0.1073 YYYZ=              0.0002 ZZZX=             -0.0005
 ZZZY=              0.0002 XXYY=              6.3016 XXZZ=              5.3570 YYZZ=              1.8684
 XXYZ=              0.0009 YYXZ=             -0.0003 ZZXY=             -1.3422
 Leave Link  101 at Wed Nov 15 17:58:17 2023, MaxMem=   134217728 cpu:               0.2 elap:               0.2
 (Enter /home/emanuele/chem_software/gaussian//gdv/l103.exe)

 GradGradGradGradGradGradGradGradGradGradGradGradGradGradGradGradGradGrad
 Berny optimization.
 Initialization pass.
 Trust Radius=3.00D-01 FncErr=1.00D-07 GrdErr=1.00D-07 EigMax=2.50D+02 EigMin=1.00D-04
 Number of steps in this run=      2 maximum allowed number of steps=      2.
 GradGradGradGradGradGradGradGradGradGradGradGradGradGradGradGradGradGrad

 Leave Link  103 at Wed Nov 15 17:58:17 2023, MaxMem=   134217728 cpu:               0.0 elap:               0.0
 (Enter /home/emanuele/chem_software/gaussian//gdv/l202.exe)
                          Input orientation:                          
 ---------------------------------------------------------------------
 Center     Atomic      Atomic             Coordinates (Angstroms)
 Number     Number       Type             X           Y           Z
 ---------------------------------------------------------------------
      1          6    20001001        1.961514   -0.125742    0.000000
      2          1    20001034        2.726023    0.656177   -0.000000
      3          1    20001034        2.088287   -0.746514   -0.891453
      4          1    20001034        2.088287   -0.746514    0.891454
      5          6    20001001        0.568506    0.515273    0.000000
      6          1    20001034        0.473956    1.148974   -0.887164
      7          1    20001034        0.473957    1.148974    0.887164
      8          6    20001001       -0.568506   -0.515273    0.000000
      9          1    20001034       -0.473956   -1.148974   -0.887165
     10          1    20001034       -0.473956   -1.148974    0.887164
     11          6    20001001       -1.961514    0.125742    0.000000
     12          1    20001034       -2.088286    0.746513   -0.891454
     13          1    20001034       -2.726023   -0.656177    0.000000
     14          1    20001034       -2.088288    0.746514    0.891453
 ---------------------------------------------------------------------
                    Distance matrix (angstroms):
                    1          2          3          4          5
     1  C    0.000000
     2  H    1.093560   0.000000
     3  H    1.093672   1.780152   0.000000
     4  H    1.093672   1.780152   1.782907   0.000000
     5  C    1.533418   2.162113   2.167148   2.167148   0.000000
     6  H    2.150532   2.470165   2.489770   3.059807   1.094339
     7  H    2.150532   2.470165   3.059807   2.489770   1.094338
     8  C    2.559831   3.496601   2.811887   2.811887   1.534543
     9  H    2.786679   3.779617   2.593662   3.144924   2.154880
    10  H    2.786679   3.779617   3.144923   2.593662   2.154880
    11  C    3.931080   4.717453   4.237500   4.237500   2.559831
    12  H    4.237499   4.896981   4.435413   4.780340   2.811887
    13  H    4.717453   5.607770   4.896982   4.896982   3.496602
    14  H    4.237501   4.896983   4.780342   4.435415   2.811888
                    6          7          8          9         10
     6  H    0.000000
     7  H    1.774329   0.000000
     8  C    2.154880   2.154880   0.000000
     9  H    2.485780   3.054070   1.094339   0.000000
    10  H    3.054070   2.485781   1.094338   1.774329   0.000000
    11  C    2.786679   2.786679   1.533418   2.150532   2.150532
    12  H    2.593661   3.144923   2.167147   2.489769   3.059806
    13  H    3.779616   3.779617   2.162113   2.470165   2.470165
    14  H    3.144924   2.593663   2.167149   3.059807   2.489771
                   11         12         13         14
    11  C    0.000000
    12  H    1.093672   0.000000
    13  H    1.093560   1.780152   0.000000
    14  H    1.093672   1.782907   1.780152   0.000000
 Symmetry turned off by external request.
 Stoichiometry    C4H10
 Framework group  C1[X(C4H10)]
 Deg. of freedom    36
 Full point group                 C1      NOp   1
 Rotational constants (GHZ):          23.4393423           3.6113454           3.3975024
 Leave Link  202 at Wed Nov 15 17:58:17 2023, MaxMem=   134217728 cpu:               0.0 elap:               0.0
 (Enter /home/emanuele/chem_software/gaussian//gdv/l301.exe)
 Standard basis: Dummy (5D, 7F)
    14 basis functions,    14 primitive gaussians,    14 cartesian basis functions
     9 alpha electrons        9 beta electrons
       nuclear repulsion energy        36.5368012282 Hartrees.
 IExCor=       0 DFT=F Ex=HF Corr=None N6=None ScaHFX=  1.000000
 ScaDFX=  1.000000  1.000000  1.000000  1.000000  1.000000  0.000000
 ScaDFX=  0.000000  0.000000  0.000000  0.000000  0.000000  0.000000
 IRadAn=      5 IRanWt=     -1 IRanGd=            0 ICorTp=0 IEmpDi=  4
 NAtoms=   14 NActive=   14 NUniq=   14 SFac= 1.00D+00 NAtFMM=   60 NAOKFM=F Big=F
 Integral buffers will be    131072 words long.
 Raffenetti 1 integral format.
 Two-electron integral symmetry is turned off.
 Leave Link  301 at Wed Nov 15 17:58:18 2023, MaxMem=   134217728 cpu:               0.0 elap:               0.0
 (Enter /home/emanuele/chem_software/gaussian//gdv/l402.exe)
 AMBER calculation of energy, first and second derivatives.
 Energy per function type:
 Direct Coulomb + vdW (small)                           0.007320922
 Direct Coulomb (large)                                -0.061759655
 Direct vdW (large)                                   555.659628748
 Non-direct Coulomb + vdW (small)                      -0.002404211
 Non-direct Coulomb (large)                             0.061759655
 Non-direct vdW (large)                              -555.659628748
 Harmonic stretch I                                     0.000054528
 Harmonic bend I                                        0.000527640
 Amber torsion                                          0.000014740
 Energy per function class:
        Coulomb               0.004034628
    Vanderwaals               0.000882083
     Stretching               0.000054528
        Bending               0.000527640
        Torsion               0.000014740
 Energy=    5.513619375E-03 NIter=   0.
 Dipole moment=      -0.000003       0.000002       0.000086
 Leave Link  402 at Wed Nov 15 17:58:18 2023, MaxMem=   134217728 cpu:               0.0 elap:               0.0
 (Enter /home/emanuele/chem_software/gaussian//gdv/l716.exe)
 Dipole        =-2.86994734D-06 2.38093656D-06 8.57522740D-05
 Full mass-weighted force constant matrix:
 Low frequencies ---    0.0002    0.0009    0.0012    4.7832    6.3793    6.9593
 Low frequencies ---  148.9984  276.2151  291.6864
 Diagonal vibrational polarizability:
        0.8882678       0.8307940       0.9578447
 Harmonic frequencies (cm**-1), IR intensities (KM/Mole), Raman scattering
 activities (A**4/AMU), depolarization ratios for plane and unpolarized
 incident light, reduced masses (AMU), force constants (mDyne/A),
 and normal coordinates:
                      1                      2                      3
                      A                      A                      A
 Frequencies --    148.9984               276.2151               291.6864
 Red. masses --      2.0647                 1.0441                 2.4658
 Frc consts  --      0.0270                 0.0469                 0.1236
 IR Inten    --      0.0113                 0.1511                 0.3664
  Atom  AN      X      Y      Z        X      Y      Z        X      Y      Z
     1   6    -0.00   0.00  -0.15    -0.00  -0.00   0.02    -0.07  -0.15  -0.00
     2   1    -0.00  -0.00  -0.10     0.00  -0.00   0.44     0.14  -0.36  -0.00
     3   1    -0.12   0.18  -0.29     0.17   0.31  -0.16    -0.23  -0.19   0.00
     4   1     0.12  -0.18  -0.29    -0.17  -0.31  -0.16    -0.23  -0.19  -0.00
     5   6    -0.00   0.00   0.16     0.00   0.00  -0.03     0.07   0.18   0.00
     6   1    -0.11   0.12   0.26     0.02   0.03  -0.02     0.15   0.18  -0.01
     7   1     0.11  -0.12   0.26    -0.02  -0.03  -0.02     0.15   0.18   0.01
     8   6     0.00  -0.00   0.16     0.00   0.00  -0.03     0.07   0.18   0.00
     9   1     0.11  -0.12   0.26    -0.02  -0.03  -0.02     0.15   0.18   0.01
    10   1    -0.11   0.12   0.26     0.02   0.03  -0.02     0.15   0.18  -0.01
    11   6    -0.00   0.00  -0.15    -0.00  -0.00   0.02    -0.07  -0.15  -0.00
    12   1     0.12  -0.18  -0.29    -0.17  -0.31  -0.16    -0.23  -0.19  -0.00
    13   1     0.00  -0.00  -0.10     0.00  -0.00   0.44     0.14  -0.36  -0.00
    14   1    -0.12   0.18  -0.29     0.17   0.31  -0.16    -0.23  -0.19   0.00
                      4                      5                      6
                      A                      A                      A
 Frequencies --    322.4770               390.4986               779.7272
 Red. masses --      1.1487                 3.2965                 1.0758
 Frc consts  --      0.0704                 0.2962                 0.3854
 IR Inten    --      0.0000                 0.0000                 9.2302
  Atom  AN      X      Y      Z        X      Y      Z        X      Y      Z
     1   6    -0.00  -0.00  -0.00     0.27   0.03  -0.00    -0.00  -0.00  -0.00
     2   1     0.00  -0.00   0.40     0.18   0.12   0.00    -0.00   0.00   0.04
     3   1     0.17   0.28  -0.17     0.37   0.05   0.00     0.11  -0.10   0.08
     4   1    -0.17  -0.28  -0.17     0.37   0.05  -0.00    -0.11   0.10   0.08
     5   6     0.00   0.00  -0.08     0.14  -0.10  -0.00    -0.00  -0.00  -0.06
     6   1     0.00  -0.10  -0.15     0.17  -0.08   0.02    -0.02   0.40   0.23
     7   1    -0.00   0.10  -0.15     0.17  -0.08  -0.02     0.02  -0.40   0.23
     8   6     0.00   0.00   0.08    -0.14   0.10   0.00     0.00  -0.00  -0.06
     9   1     0.00  -0.10   0.15    -0.17   0.08   0.02     0.02  -0.40   0.23
    10   1    -0.00   0.10   0.15    -0.17   0.08  -0.02    -0.02   0.40   0.23
    11   6    -0.00  -0.00   0.00    -0.27  -0.03  -0.00    -0.00   0.00  -0.00
    12   1     0.17   0.28   0.17    -0.37  -0.05   0.00    -0.11   0.10   0.08
    13   1     0.00  -0.00  -0.40    -0.18  -0.12  -0.00     0.00  -0.00   0.04
    14   1    -0.17  -0.28   0.17    -0.37  -0.05  -0.00     0.11  -0.10   0.08
                      7                      8                      9
                      A                      A                      A
 Frequencies --    831.3872               836.2363               926.4396
 Red. masses --      1.1998                 1.5792                 1.6896
 Frc consts  --      0.4886                 0.6507                 0.8544
 IR Inten    --      0.0000                 0.0000                 3.2666
  Atom  AN      X      Y      Z        X      Y      Z        X      Y      Z
     1   6     0.00   0.00  -0.03     0.07   0.04   0.00     0.12  -0.01   0.00
     2   1     0.00  -0.00   0.14     0.46  -0.33  -0.00     0.41  -0.28  -0.00
     3   1     0.25  -0.16   0.12    -0.19  -0.07   0.04     0.06  -0.11   0.06
     4   1    -0.25   0.16   0.12    -0.19  -0.07  -0.04     0.06  -0.11  -0.06
     5   6     0.00  -0.00  -0.09     0.03   0.14   0.00    -0.12   0.04  -0.00
     6   1    -0.12   0.31   0.14     0.04   0.17   0.02    -0.30   0.06   0.02
     7   1     0.12  -0.31   0.14     0.04   0.17  -0.02    -0.30   0.06  -0.02
     8   6    -0.00   0.00   0.09    -0.03  -0.14  -0.00    -0.12   0.04  -0.00
     9   1    -0.12   0.31  -0.14    -0.04  -0.17   0.02    -0.30   0.06  -0.02
    10   1     0.12  -0.31  -0.14    -0.04  -0.17  -0.02    -0.30   0.06   0.02
    11   6     0.00  -0.00   0.03    -0.07  -0.04   0.00     0.12  -0.01  -0.00
    12   1     0.25  -0.16  -0.12     0.19   0.07   0.04     0.06  -0.11  -0.06
    13   1    -0.00   0.00  -0.14    -0.46   0.33  -0.00     0.41  -0.28   0.00
    14   1    -0.25   0.16  -0.12     0.19   0.07  -0.04     0.06  -0.11   0.06
                     10                     11                     12
                      A                      A                      A
 Frequencies --    941.9978               967.4258               969.5211
 Red. masses --      1.5366                 1.3709                 1.2341
 Frc consts  --      0.8033                 0.7559                 0.6835
 IR Inten    --      0.0000                10.3776                 7.2977
  Atom  AN      X      Y      Z        X      Y      Z        X      Y      Z
     1   6    -0.07   0.07   0.00     0.01  -0.10   0.00     0.00  -0.00  -0.09
     2   1    -0.09   0.09  -0.00    -0.32   0.22  -0.00    -0.00   0.00   0.20
     3   1    -0.22   0.09  -0.03     0.39   0.00  -0.02     0.37  -0.21   0.10
     4   1    -0.22   0.09   0.03     0.39   0.00   0.02    -0.37   0.21   0.10
     5   6     0.12  -0.03  -0.00    -0.04   0.07  -0.00    -0.00   0.00   0.05
     6   1     0.42   0.01  -0.00    -0.03   0.10   0.02    -0.13  -0.13  -0.02
     7   1     0.42   0.01   0.00    -0.03   0.10  -0.02     0.13   0.13  -0.02
     8   6    -0.12   0.03  -0.00    -0.04   0.07  -0.00    -0.00   0.00   0.05
     9   1    -0.42  -0.01  -0.00    -0.03   0.10  -0.02     0.13   0.13  -0.02
    10   1    -0.42  -0.01   0.00    -0.03   0.10   0.02    -0.13  -0.13  -0.02
    11   6     0.07  -0.07   0.00     0.01  -0.10   0.00     0.00  -0.00  -0.09
    12   1     0.22  -0.09  -0.03     0.39   0.00   0.02    -0.37   0.21   0.10
    13   1     0.09  -0.09  -0.00    -0.32   0.22  -0.00    -0.00   0.00   0.20
    14   1     0.22  -0.09   0.03     0.39   0.00  -0.02     0.37  -0.21   0.10
                     13                     14                     15
                      A                      A                      A
 Frequencies --   1025.7564              1047.0992              1163.1989
 Red. masses --      1.5141                 1.6301                 1.0459
 Frc consts  --      0.9386                 1.0530                 0.8338
 IR Inten    --      0.0000                 0.0000                 0.0000
  Atom  AN      X      Y      Z        X      Y      Z        X      Y      Z
     1   6     0.00   0.00  -0.10    -0.01  -0.08  -0.00    -0.00   0.00  -0.01
     2   1     0.00  -0.00   0.16    -0.29   0.18   0.00     0.00  -0.00  -0.07
     3   1     0.34  -0.19   0.07     0.29   0.02  -0.03     0.01   0.00  -0.02
     4   1    -0.34   0.19   0.07     0.29   0.02   0.03    -0.01  -0.00  -0.02
     5   6     0.00  -0.00   0.12     0.02   0.15   0.00    -0.00  -0.00  -0.04
     6   1     0.11  -0.23  -0.04     0.17   0.26   0.05     0.48   0.13  -0.00
     7   1    -0.11   0.23  -0.04     0.17   0.26  -0.05    -0.48  -0.13  -0.00
     8   6     0.00   0.00  -0.12    -0.02  -0.15  -0.00     0.00   0.00   0.04
     9   1     0.11  -0.23   0.04    -0.17  -0.26   0.05     0.48   0.13   0.00
    10   1    -0.11   0.23   0.04    -0.17  -0.26  -0.05    -0.48  -0.13   0.00
    11   6    -0.00  -0.00   0.10     0.01   0.08   0.00     0.00  -0.00   0.01
    12   1     0.34  -0.19  -0.07    -0.29  -0.02  -0.03     0.01   0.00   0.02
    13   1    -0.00   0.00  -0.16     0.29  -0.18  -0.00    -0.00   0.00   0.07
    14   1    -0.34   0.19  -0.07    -0.29  -0.02   0.03    -0.01  -0.00   0.02
                     16                     17                     18
                      A                      A                      A
 Frequencies --   1180.4026              1298.3517              1367.8818
 Red. masses --      1.0638                 1.2465                 1.2120
 Frc consts  --      0.8733                 1.2380                 1.3361
 IR Inten    --      0.2060                34.5515                 0.0000
  Atom  AN      X      Y      Z        X      Y      Z        X      Y      Z
     1   6     0.00  -0.00  -0.04    -0.02   0.03   0.00     0.07  -0.04   0.00
     2   1     0.00   0.00   0.01     0.19  -0.17  -0.00    -0.22   0.26  -0.00
     3   1     0.07  -0.05  -0.00     0.15  -0.02   0.06    -0.29   0.02  -0.10
     4   1    -0.07   0.05  -0.00     0.15  -0.02  -0.06    -0.29   0.02   0.10
     5   6    -0.00   0.00   0.04    -0.10  -0.02   0.00     0.06  -0.01  -0.00
     6   1     0.49   0.02   0.01     0.43   0.06   0.00    -0.22   0.16   0.15
     7   1    -0.49  -0.02   0.01     0.43   0.06  -0.00    -0.22   0.16  -0.15
     8   6    -0.00  -0.00   0.04    -0.10  -0.02  -0.00    -0.06   0.01  -0.00
     9   1    -0.49  -0.02   0.01     0.43   0.06  -0.00     0.22  -0.16   0.15
    10   1     0.49   0.02   0.01     0.43   0.06   0.00     0.22  -0.16  -0.15
    11   6     0.00  -0.00  -0.04    -0.02   0.03   0.00    -0.07   0.04  -0.00
    12   1    -0.07   0.05  -0.00     0.15  -0.02  -0.06     0.29  -0.02  -0.10
    13   1    -0.00   0.00   0.01     0.19  -0.17  -0.00     0.22  -0.26   0.00
    14   1     0.07  -0.05  -0.00     0.15  -0.02   0.06     0.29  -0.02   0.10
                     19                     20                     21
                      A                      A                      A
 Frequencies --   1383.5119              1384.5819              1389.8023
 Red. masses --      1.0520                 1.0513                 1.0458
 Frc consts  --      1.1864                 1.1875                 1.1901
 IR Inten    --      5.9485                 0.0000                12.3567
  Atom  AN      X      Y      Z        X      Y      Z        X      Y      Z
     1   6    -0.02  -0.03  -0.00    -0.01  -0.04   0.00    -0.00   0.00  -0.04
     2   1     0.15  -0.22   0.00     0.12  -0.19  -0.00     0.00  -0.00   0.51
     3   1     0.08   0.34  -0.26     0.02   0.37  -0.29    -0.30  -0.18   0.03
     4   1     0.08   0.34   0.26     0.02   0.37   0.29     0.30   0.18   0.03
     5   6     0.00   0.01   0.00     0.00   0.00  -0.00    -0.00  -0.00  -0.00
     6   1    -0.02  -0.12  -0.09    -0.03  -0.03  -0.02     0.01   0.00  -0.01
     7   1    -0.02  -0.12   0.09    -0.03  -0.03   0.02    -0.01  -0.00  -0.01
     8   6     0.00   0.01  -0.00    -0.00  -0.00   0.00     0.00  -0.00  -0.00
     9   1    -0.02  -0.12   0.09     0.03   0.03  -0.02    -0.01  -0.00  -0.01
    10   1    -0.02  -0.12  -0.09     0.03   0.03   0.02     0.01   0.00  -0.01
    11   6    -0.02  -0.03  -0.00     0.01   0.04   0.00     0.00   0.00  -0.04
    12   1     0.08   0.34   0.26    -0.02  -0.37  -0.29     0.30   0.18   0.03
    13   1     0.15  -0.22   0.00    -0.12   0.19  -0.00    -0.00   0.00   0.51
    14   1     0.08   0.34  -0.26    -0.02  -0.37   0.29    -0.30  -0.18   0.03
                     22                     23                     24
                      A                      A                      A
 Frequencies --   1390.7800              1399.4318              1440.8176
 Red. masses --      1.0473                 1.1313                 1.2936
 Frc consts  --      1.1936                 1.3053                 1.5822
 IR Inten    --      0.0000                24.1160                 0.0000
  Atom  AN      X      Y      Z        X      Y      Z        X      Y      Z
     1   6     0.00  -0.00  -0.04     0.04  -0.03   0.00     0.05  -0.03  -0.00
     2   1    -0.00   0.00   0.51    -0.03   0.05  -0.00    -0.14   0.16   0.00
     3   1    -0.30  -0.18   0.03    -0.15   0.14  -0.15    -0.12  -0.02  -0.04
     4   1     0.30   0.18   0.03    -0.15   0.14   0.15    -0.12  -0.02   0.04
     5   6     0.00   0.00  -0.01    -0.02  -0.05  -0.00     0.02   0.10  -0.00
     6   1     0.04   0.01  -0.01     0.03   0.32   0.27    -0.00  -0.32  -0.32
     7   1    -0.04  -0.01  -0.01     0.03   0.32  -0.27    -0.00  -0.32   0.32
     8   6    -0.00   0.00   0.01    -0.02  -0.05   0.00    -0.02  -0.10   0.00
     9   1     0.04   0.01   0.01     0.03   0.32  -0.27     0.00   0.32  -0.32
    10   1    -0.04  -0.01   0.01     0.03   0.32   0.27     0.00   0.32   0.32
    11   6    -0.00  -0.00   0.04     0.04  -0.03   0.00    -0.05   0.03   0.00
    12   1    -0.30  -0.18  -0.03    -0.15   0.14   0.15     0.12   0.02  -0.04
    13   1     0.00  -0.00  -0.51    -0.03   0.05  -0.00     0.14  -0.16  -0.00
    14   1     0.30   0.18  -0.03    -0.15   0.14  -0.15     0.12   0.02   0.04
                     25                     26                     27
                      A                      A                      A
 Frequencies --   1461.9389              1554.4349              2984.1575
 Red. masses --      1.5775                 2.5124                 1.0417
 Frc consts  --      1.9864                 3.5767                 5.4655
 IR Inten    --      9.7113                 0.0000                 8.2610
  Atom  AN      X      Y      Z        X      Y      Z        X      Y      Z
     1   6     0.12  -0.04   0.00    -0.11   0.03   0.00     0.04  -0.02   0.00
     2   1    -0.17   0.27  -0.00     0.05  -0.15   0.00    -0.29  -0.28   0.00
     3   1    -0.28   0.02  -0.12     0.20  -0.03   0.10    -0.05   0.23   0.33
     4   1    -0.28   0.02   0.12     0.20  -0.03  -0.10    -0.05   0.23  -0.33
     5   6    -0.09   0.05   0.00     0.23   0.04  -0.00    -0.00  -0.00   0.00
     6   1     0.17  -0.17  -0.20    -0.38  -0.08  -0.02    -0.00   0.03  -0.04
     7   1     0.17  -0.17   0.20    -0.38  -0.08   0.02    -0.00   0.03   0.04
     8   6    -0.09   0.05  -0.00    -0.23  -0.04   0.00    -0.00  -0.00   0.00
     9   1     0.17  -0.17   0.20     0.38   0.08  -0.02    -0.00   0.03   0.04
    10   1     0.17  -0.17  -0.20     0.38   0.08   0.02    -0.00   0.03  -0.04
    11   6     0.12  -0.04  -0.00     0.11  -0.03   0.00     0.04  -0.02   0.00
    12   1    -0.28   0.02   0.12    -0.20   0.03   0.10    -0.05   0.23  -0.33
    13   1    -0.17   0.27   0.00    -0.05   0.15  -0.00    -0.29  -0.28  -0.00
    14   1    -0.28   0.02  -0.12    -0.20   0.03  -0.10    -0.05   0.23   0.33
                     28                     29                     30
                      A                      A                      A
 Frequencies --   2984.4220              3025.1953              3033.5208
 Red. masses --      1.0420                 1.0673                 1.0758
 Frc consts  --      5.4681                 5.7552                 5.8329
 IR Inten    --      0.0000                 5.4856                 0.0000
  Atom  AN      X      Y      Z        X      Y      Z        X      Y      Z
     1   6     0.04  -0.02  -0.00     0.01  -0.00  -0.00     0.01  -0.00   0.00
     2   1    -0.29  -0.28   0.00    -0.03  -0.03   0.00    -0.04  -0.04   0.00
     3   1    -0.05   0.23   0.33    -0.00   0.02   0.03    -0.00   0.02   0.02
     4   1    -0.05   0.23  -0.33    -0.00   0.02  -0.03    -0.00   0.02  -0.02
     5   6    -0.00  -0.00  -0.00    -0.01   0.05   0.00    -0.01   0.05   0.00
     6   1    -0.00   0.03  -0.04     0.04  -0.30   0.40     0.04  -0.29   0.40
     7   1    -0.00   0.03   0.04     0.04  -0.30  -0.40     0.04  -0.29  -0.40
     8   6     0.00   0.00   0.00    -0.01   0.05  -0.00     0.01  -0.05   0.00
     9   1     0.00  -0.03  -0.04     0.04  -0.30  -0.40    -0.04   0.29   0.40
    10   1     0.00  -0.03   0.04     0.04  -0.30   0.40    -0.04   0.29  -0.40
    11   6    -0.04   0.02  -0.00     0.01  -0.00   0.00    -0.01   0.00  -0.00
    12   1     0.05  -0.23   0.33    -0.00   0.02  -0.03     0.00  -0.02   0.02
    13   1     0.29   0.28   0.00    -0.03  -0.03  -0.00     0.04   0.04   0.00
    14   1     0.05  -0.23  -0.33    -0.00   0.02   0.03     0.00  -0.02  -0.02
                     31                     32                     33
                      A                      A                      A
 Frequencies --   3098.7684              3100.3939              3101.9543
 Red. masses --      1.1108                 1.1150                 1.1178
 Frc consts  --      6.2844                 6.3146                 6.3370
 IR Inten    --     25.1994                 0.0000                25.8783
  Atom  AN      X      Y      Z        X      Y      Z        X      Y      Z
     1   6     0.00   0.00  -0.03    -0.00  -0.00  -0.06    -0.03  -0.06  -0.00
     2   1    -0.00  -0.00   0.00     0.00   0.00   0.01     0.40   0.41   0.00
     3   1    -0.03   0.12   0.17    -0.05   0.22   0.33    -0.03   0.17   0.23
     4   1     0.03  -0.12   0.17     0.05  -0.22   0.33    -0.03   0.17  -0.23
     5   6    -0.00   0.00  -0.06    -0.00   0.00  -0.04     0.00   0.00  -0.00
     6   1     0.04  -0.26   0.37     0.03  -0.17   0.24    -0.00  -0.00   0.00
     7   1    -0.04   0.26   0.37    -0.03   0.17   0.24    -0.00  -0.00  -0.00
     8   6    -0.00  -0.00  -0.06     0.00  -0.00   0.04     0.00   0.00  -0.00
     9   1    -0.04   0.26   0.37     0.03  -0.17  -0.24    -0.00  -0.00  -0.00
    10   1     0.04  -0.26   0.37    -0.03   0.17  -0.24    -0.00  -0.00   0.00
    11   6     0.00   0.00  -0.03     0.00   0.00   0.06    -0.03  -0.06  -0.00
    12   1     0.03  -0.12   0.17    -0.05   0.22  -0.33    -0.03   0.17  -0.23
    13   1    -0.00  -0.00   0.00    -0.00  -0.00  -0.01     0.40   0.41   0.00
    14   1    -0.03   0.12   0.17     0.05  -0.22  -0.33    -0.03   0.17   0.23
                     34                     35                     36
                      A                      A                      A
 Frequencies --   3102.0013              3103.3000              3105.9827
 Red. masses --      1.1180                 1.1200                 1.1237
 Frc consts  --      6.3384                 6.3548                 6.3872
 IR Inten    --      0.0000                 9.5290                 0.0000
  Atom  AN      X      Y      Z        X      Y      Z        X      Y      Z
     1   6    -0.03  -0.06   0.00    -0.00  -0.00  -0.06    -0.00  -0.00   0.04
     2   1     0.40   0.41  -0.00     0.00   0.00   0.01     0.00   0.00  -0.01
     3   1    -0.03   0.17   0.23    -0.05   0.25   0.37     0.03  -0.16  -0.24
     4   1    -0.03   0.17  -0.23     0.05  -0.25   0.37    -0.03   0.16  -0.24
     5   6     0.00   0.00   0.00     0.00  -0.00   0.03    -0.00  -0.00  -0.06
     6   1    -0.00  -0.01   0.01    -0.01   0.12  -0.17     0.03  -0.23   0.33
     7   1    -0.00  -0.01  -0.01     0.01  -0.12  -0.17    -0.03   0.23   0.33
     8   6    -0.00  -0.00  -0.00    -0.00   0.00   0.03    -0.00   0.00   0.06
     9   1     0.00   0.01   0.01     0.01  -0.12  -0.17     0.03  -0.23  -0.33
    10   1     0.00   0.01  -0.01    -0.01   0.12  -0.17    -0.03   0.23  -0.33
    11   6     0.03   0.06  -0.00     0.00   0.00  -0.06    -0.00  -0.00  -0.04
    12   1     0.03  -0.17   0.23     0.05  -0.25   0.37     0.03  -0.16   0.24
    13   1    -0.40  -0.41  -0.00    -0.00  -0.00   0.01     0.00   0.00   0.01
    14   1     0.03  -0.17  -0.23    -0.05   0.25   0.37    -0.03   0.16   0.24

 -------------------
 - Thermochemistry -
 -------------------
 Temperature   298.150 Kelvin.  Pressure      1.00000 Atm.
 Atom     1 has atomic number  6 and mass  12.00000
 Atom     2 has atomic number  1 and mass   1.00783
 Atom     3 has atomic number  1 and mass   1.00783
 Atom     4 has atomic number  1 and mass   1.00783
 Atom     5 has atomic number  6 and mass  12.00000
 Atom     6 has atomic number  1 and mass   1.00783
 Atom     7 has atomic number  1 and mass   1.00783
 Atom     8 has atomic number  6 and mass  12.00000
 Atom     9 has atomic number  1 and mass   1.00783
 Atom    10 has atomic number  1 and mass   1.00783
 Atom    11 has atomic number  6 and mass  12.00000
 Atom    12 has atomic number  1 and mass   1.00783
 Atom    13 has atomic number  1 and mass   1.00783
 Atom    14 has atomic number  1 and mass   1.00783
 Molecular mass:    58.07825 amu.
 Principal axes and moments of inertia in atomic units:
                                 1                 2                 3
     Eigenvalues --           76.996239        499.742062        531.196454
           X                   0.999986         -0.005299          0.000000
           Y                   0.005299          0.999986         -0.000000
           Z                  -0.000000          0.000000          1.000000
 This molecule is an asymmetric top.
 Rotational symmetry number  1.
 Rotational temperatures (Kelvin)      1.12491     0.17332     0.16305
 Rotational constants (GHZ):          23.43934     3.61135     3.39750
 Zero-point vibrational energy     339801.0 (Joules/Mol)
                                   81.21440 (Kcal/Mol)
 Warning -- explicit consideration of   5 degrees of freedom as
           vibrations may cause significant error
 Vibrational temperatures:    214.38   397.41   419.67   463.97   561.84
          (Kelvin)           1121.85  1196.18  1203.16  1332.94  1355.32
                             1391.91  1394.92  1475.83  1506.54  1673.58
                             1698.34  1868.04  1968.08  1990.57  1992.10
                             1999.62  2001.02  2013.47  2073.02  2103.40
                             2236.49  4293.54  4293.92  4352.58  4364.56
                             4458.44  4460.78  4463.02  4463.09  4464.96
                             4468.82
 
 Zero-point correction=                           0.129423 (Hartree/Particle)
 Thermal correction to Energy=                    0.135071
 Thermal correction to Enthalpy=                  0.136015
 Thermal correction to Gibbs Free Energy=         0.101755
 Sum of electronic and zero-point Energies=              0.134937
 Sum of electronic and thermal Energies=                 0.140585
 Sum of electronic and thermal Enthalpies=               0.141529
 Sum of electronic and thermal Free Energies=            0.107268
 
                     E (Thermal)             CV                S
                      KCal/Mol        Cal/Mol-Kelvin    Cal/Mol-Kelvin
 Total                   84.758             20.190             72.107
 Electronic               0.000              0.000              0.000
 Translational            0.889              2.981             38.098
 Rotational               0.889              2.981             24.528
 Vibrational             82.981             14.228              9.480
 Vibration     1          0.618              1.904              2.685
 Vibration     2          0.678              1.717              1.557
 Vibration     3          0.687              1.689              1.464
 Vibration     4          0.707              1.630              1.298
 Vibration     5          0.758              1.490              0.998
                       Q            Log10(Q)             Ln(Q)
 Total Bot       0.157056D-46        -46.803945       -107.770067
 Total V=0       0.532872D+13         12.726623         29.304133
 Vib (Bot)       0.176400D-58        -58.753500       -135.284934
 Vib (Bot)    1  0.136127D+01          0.133945          0.308419
 Vib (Bot)    2  0.697440D+00         -0.156493         -0.360339
 Vib (Bot)    3  0.655008D+00         -0.183754         -0.423108
 Vib (Bot)    4  0.582067D+00         -0.235027         -0.541170
 Vib (Bot)    5  0.459584D+00         -0.337635         -0.777434
 Vib (V=0)       0.598506D+01          0.777068          1.789266
 Vib (V=0)    1  0.195019D+01          0.290077          0.667928
 Vib (V=0)    2  0.135815D+01          0.132948          0.306124
 Vib (V=0)    3  0.132404D+01          0.121900          0.280685
 Vib (V=0)    4  0.126733D+01          0.102891          0.236916
 Vib (V=0)    5  0.117913D+01          0.071562          0.164777
 Electronic      0.100000D+01          0.000000          0.000000
 Translational   0.173970D+08          7.240474         16.671808
 Rotational      0.511777D+05          4.709081         10.843059
 
                                                                Title
                                                             IR Spectrum
 
 3333333322                                                          111111111 1    11    11                                         
 1111100099                                                          544333333 2    11    009999  88 7               3 322    1      
 0000093288                                                          564999886 9    86    427642  33 8               9 297    4      
 6322094544                                                          421910548 8    03    760726  61 0               0 226    9      
 
  X X X X X                                                           X X X X  X    X       XX X     X                  XX           
  X X X X X                                                           X X X X  X            XX X     X                               
  X X X X X                                                           X X X X  X            XX       X                               
  X X X   X                                                           X X X    X            XX       X                               
  X X X   X                                                           X X X    X             X       X                               
  X X X                                                               X X X    X             X                                       
    X X                                                                 X X    X                                                     
    X X                                                                 X      X                                                     
    X X                                                                 X      X                                                     
    X X                                                                 X      X                                                     
    X X                                                                 X      X                                                     
    X X                                                                 X      X                                                     
    X X                                                                 X      X                                                     
    X X                                                                 X      X                                                     
    X X                                                                        X                                                     
                                                                               X                                                     
                                                                               X                                                     
                                                                               X                                                     
                                                                               X                                                     
                                                                               X                                                     
 
 -------------------------------------------------------------------
 Center     Atomic                   Forces (Hartrees/Bohr)
 Number     Number              X              Y              Z
 -------------------------------------------------------------------
      1        6          -0.000029610   -0.000021821    0.000000016
      2        1           0.000000009    0.000000380   -0.000000001
      3        1          -0.000027947    0.000008357   -0.000004895
      4        1          -0.000027947    0.000008366    0.000004879
      5        6          -0.000042339   -0.000030910   -0.000000002
      6        1          -0.000016673    0.000010272    0.000014792
      7        1          -0.000016674    0.000010270   -0.000014790
      8        6           0.000042336    0.000030912    0.000000023
      9        1           0.000016676   -0.000010276    0.000014780
     10        1           0.000016672   -0.000010267   -0.000014801
     11        6           0.000029612    0.000021821    0.000000054
     12        1           0.000027943   -0.000008349   -0.000004913
     13        1          -0.000000008   -0.000000380   -0.000000002
     14        1           0.000027950   -0.000008377    0.000004860
 -------------------------------------------------------------------
 Cartesian Forces:  Max     0.000042339 RMS     0.000018329
 Z-matrix is all fixed cartesians, so copy forces.
 Leave Link  716 at Wed Nov 15 17:58:18 2023, MaxMem=   134217728 cpu:               0.0 elap:               0.0
 (Enter /home/emanuele/chem_software/gaussian//gdv/l103.exe)

 GradGradGradGradGradGradGradGradGradGradGradGradGradGradGradGradGradGrad
 Berny optimization.
 Search for a local minimum.
 Step number   1 out of a maximum of    2
 All quantities printed in internal units (Hartrees-Bohrs-Radians)
 Second derivative matrix not updated -- analytic derivatives used.
 ITU=  0
     Eigenvalues ---    0.00165   0.00326   0.00479   0.00767   0.01667
     Eigenvalues ---    0.02857   0.03579   0.04220   0.04549   0.04570
     Eigenvalues ---    0.04636   0.05559   0.05605   0.06262   0.07250
     Eigenvalues ---    0.08949   0.09371   0.09548   0.10224   0.11144
     Eigenvalues ---    0.12108   0.15503   0.16906   0.23243   0.33479
     Eigenvalues ---    0.50205   0.57616   0.76930   0.80463   0.81841
     Eigenvalues ---    0.84714   0.86327   0.89033   0.93270   0.93923
     Eigenvalues ---    0.94293
 Angle between quadratic step and forces=  46.53 degrees.
 Linear search not attempted -- first point.
 B after Tr=    -0.000000    0.000000    0.000000
         Rot=    1.000000   -0.000000    0.000000   -0.000002 Ang=  -0.00 deg.
 Variable       Old X    -DE/DX   Delta X   Delta X   Delta X     New X
                                 (Linear)    (Quad)   (Total)
    X1        3.70672  -0.00003   0.00000  -0.00101  -0.00101   3.70571
    Y1       -0.23762  -0.00002   0.00000   0.00001   0.00002  -0.23759
    Z1        0.00000   0.00000   0.00000  -0.00000  -0.00000  -0.00000
    X2        5.15144   0.00000   0.00000  -0.00061  -0.00061   5.15083
    Y2        1.24000   0.00000   0.00000  -0.00038  -0.00037   1.23963
    Z2       -0.00000  -0.00000   0.00000  -0.00000  -0.00000  -0.00000
    X3        3.94629  -0.00003   0.00000  -0.00177  -0.00176   3.94453
    Y3       -1.41071   0.00001   0.00000   0.00001   0.00003  -1.41068
    Z3       -1.68460  -0.00000   0.00000  -0.00010  -0.00010  -1.68470
    X4        3.94629  -0.00003   0.00000  -0.00177  -0.00176   3.94453
    Y4       -1.41071   0.00001   0.00000   0.00001   0.00003  -1.41068
    Z4        1.68460   0.00000   0.00000   0.00010   0.00010   1.68470
    X5        1.07432  -0.00004   0.00000  -0.00059  -0.00059   1.07373
    Y5        0.97373  -0.00003   0.00000   0.00035   0.00036   0.97408
    Z5        0.00000  -0.00000   0.00000   0.00000   0.00000   0.00000
    X6        0.89565  -0.00002   0.00000  -0.00099  -0.00100   0.89465
    Y6        2.17125   0.00001   0.00000   0.00042   0.00043   2.17167
    Z6       -1.67650   0.00001   0.00000   0.00011   0.00011  -1.67639
    X7        0.89565  -0.00002   0.00000  -0.00099  -0.00100   0.89465
    Y7        2.17125   0.00001   0.00000   0.00042   0.00043   2.17167
    Z7        1.67650  -0.00001   0.00000  -0.00011  -0.00011   1.67639
    X8       -1.07432   0.00004   0.00000   0.00059   0.00059  -1.07373
    Y8       -0.97373   0.00003   0.00000  -0.00035  -0.00036  -0.97408
    Z8        0.00000   0.00000   0.00000   0.00000   0.00000   0.00000
    X9       -0.89565   0.00002   0.00000   0.00099   0.00100  -0.89465
    Y9       -2.17125  -0.00001   0.00000  -0.00042  -0.00043  -2.17167
    Z9       -1.67650   0.00001   0.00000   0.00011   0.00011  -1.67639
   X10       -0.89565   0.00002   0.00000   0.00099   0.00100  -0.89465
   Y10       -2.17125  -0.00001   0.00000  -0.00042  -0.00043  -2.17167
   Z10        1.67650  -0.00001   0.00000  -0.00011  -0.00011   1.67639
   X11       -3.70672   0.00003   0.00000   0.00101   0.00101  -3.70571
   Y11        0.23762   0.00002   0.00000  -0.00001  -0.00002   0.23759
   Z11        0.00000   0.00000   0.00000  -0.00000  -0.00000   0.00000
   X12       -3.94629   0.00003   0.00000   0.00177   0.00176  -3.94452
   Y12        1.41071  -0.00001   0.00000  -0.00001  -0.00003   1.41068
   Z12       -1.68460  -0.00000   0.00000  -0.00010  -0.00010  -1.68470
   X13       -5.15144  -0.00000   0.00000   0.00061   0.00061  -5.15083
   Y13       -1.24000  -0.00000   0.00000   0.00038   0.00037  -1.23963
   Z13        0.00000  -0.00000   0.00000   0.00000   0.00000   0.00000
   X14       -3.94629   0.00003   0.00000   0.00177   0.00176  -3.94453
   Y14        1.41071  -0.00001   0.00000  -0.00001  -0.00003   1.41068
   Z14        1.68460   0.00000   0.00000   0.00010   0.00010   1.68470
         Item               Value     Threshold  Converged?
 Maximum Force            0.000042     0.000450     YES
 RMS     Force            0.000018     0.000300     YES
 Maximum Displacement     0.001765     0.001800     YES
 RMS     Displacement     0.000711     0.001200     YES
 Predicted change in Energy=-1.883619D-07
 Optimization completed.
    -- Stationary point found.
 GradGradGradGradGradGradGradGradGradGradGradGradGradGradGradGradGradGrad

 Leave Link  103 at Wed Nov 15 17:58:18 2023, MaxMem=   134217728 cpu:               0.0 elap:               0.0
 (Enter /home/emanuele/chem_software/gaussian//gdv/l9999.exe)
 Unable to Open any file for archive entry.
 1\1\GINC-EMANUELE-XPS-13-9343\Freq\AMBER\ZDO\C4H10\EMANUELE\15-Nov-202
 3\0\\#P Geom=AllCheck Guess=TCheck SCRF=Check GenChk AMBER/ZDO Freq\\T
 itle\\0,1\C,1.9615137855,-0.1257421526,0.0000000342\H,2.7260234395,0.6
 561771702,-0.0000000352\H,2.08828677,-0.7465138882,-0.8914534909\H,2.0
 882867867,-0.7465139624,0.8914535192\C,0.568506257,0.5152732583,0.0000
 00103\H,0.4739560246,1.1489737885,-0.8871643047\H,0.4739567799,1.14897
 41676,0.8871642124\C,-0.5685062378,-0.5152732347,0.0000000994\H,-0.473
 9564901,-1.1489735483,-0.8871645009\H,-0.473956217,-1.148974374,0.8871
 640014\C,-1.9615138029,0.1257421443,0.00000027\H,-2.088285984,0.746513
 4413,-0.891453514\H,-2.7260234362,-0.6561772004,0.0000001089\H,-2.0882
 876754,0.7465143905,0.8914534971\\Version=ES64L-GDVRevJ.14\HF=0.005513
 6\RMSD=0.000e+00\RMSF=1.833e-05\ZeroPoint=0.1294234\Thermal=0.1350709\
 ETot=0.1405846\HTot=0.1415288\GTot=0.1072685\Dipole=-0.0000029,0.00000
 24,0.0000858\DipoleDeriv=-0.267532,0.,0.,0.,-0.267532,0.,0.,0.,-0.2675
 32,0.083821,0.,0.,0.,0.083821,0.,0.,0.,0.083821,0.077363,0.,0.,0.,0.07
 7363,0.,0.,0.,0.077363,0.07736,0.,0.,0.,0.07736,0.,0.,0.,0.07736,-0.09
 2257,0.,0.,0.,-0.092257,0.,0.,0.,-0.092257,0.060623,0.,0.,0.,0.060623,
 0.,0.,0.,0.060623,0.060622,0.,0.,0.,0.060622,0.,0.,0.,0.060622,-0.0922
 58,0.,0.,0.,-0.092258,0.,0.,0.,-0.092258,0.060627,0.,0.,0.,0.060627,0.
 ,0.,0.,0.060627,0.060618,0.,0.,0.,0.060618,0.,0.,0.,0.060618,-0.267532
 ,0.,0.,0.,-0.267532,0.,0.,0.,-0.267532,0.07733,0.,0.,0.,0.07733,0.,0.,
 0.,0.07733,0.083821,0.,0.,0.,0.083821,0.,0.,0.,0.083821,0.077394,0.,0.
 ,0.,0.077394,0.,0.,0.,0.077394\PG=C01 [X(C4H10)]\NImag=0\\0.54536235,0
 .01997031,0.57996292,0.,-0.00000002,0.58633857,-0.19085731,-0.13866886
 ,0.,0.18374904,-0.13448386,-0.19336501,0.00000001,0.14233568,0.1894034
 9,0.,0.00000001,-0.05392672,-0.00000001,-0.00000001,0.04069876,-0.0592
 9046,0.02071953,0.02829340,0.00735394,-0.00719021,-0.01679512,0.048792
 08,0.01855168,-0.14302774,-0.12767087,0.00493532,-0.00482544,-0.012394
 46,-0.01980040,0.13383116,0.02486831,-0.12631082,-0.23584392,-0.002390
 96,0.00233772,0.00624257,-0.02652390,0.13314234,0.23235685,-0.05929046
 ,0.02071953,-0.02829341,0.00735394,-0.00719020,0.01679512,0.00110331,-
 0.00320402,0.00238805,0.04879208,0.01855168,-0.14302775,0.12767088,0.0
 0493532,-0.00482544,0.01239446,-0.00320402,0.01613816,-0.01169359,-0.0
 1980041,0.13383118,-0.02486832,0.12631083,-0.23584390,0.00239096,-0.00
 233772,0.00624257,-0.00238805,0.01169359,-0.00848254,0.02652391,-0.133
 14234,0.23235684,-0.23685490,0.07106113,0.00000002,-0.00636843,0.00622
 664,0.,0.00419157,-0.00084886,0.00118719,0.00419157,-0.00084886,-0.001
 18719,0.54236699,0.07385632,-0.11002287,0.,-0.01383941,0.01353128,0.,0
 .00910882,-0.00184468,0.00257992,0.00910882,-0.00184468,-0.00257992,-0
 .00445487,0.55934440,0.00000001,0.,-0.07234796,0.,0.,0.00107688,0.0170
 4041,-0.00450195,0.00555828,-0.01704041,0.00450195,0.00555828,0.000000
 13,0.00000007,0.58831296,0.00441868,0.00960236,-0.01673803,-0.00062343
 ,0.00015492,-0.00060134,-0.00036006,0.00011830,0.00016164,0.00011588,0
 .00027910,0.00013760,-0.06226159,0.01317865,-0.01965595,0.05308987,-0.
 00079762,-0.00173332,0.00496075,0.00015492,0.00005066,-0.00063968,0.00
 011830,-0.00091698,0.00034845,0.00027910,0.00054405,0.00037606,0.01324
 291,-0.14984847,0.13093639,-0.01315397,0.14005444,-0.00104066,-0.00226
 149,0.00532733,-0.00027890,0.00006103,-0.00049146,-0.00016871,-0.00036
 945,0.00030750,0.00014634,0.00039506,0.00022647,-0.01905204,0.12607770
 ,-0.23323015,0.01997317,-0.13406513,0.23110542,0.00441869,0.00960238,0
 .01673802,-0.00062343,0.00015492,0.00060134,0.00011588,0.00027910,-0.0
 0013760,-0.00036006,0.00011830,-0.00016164,-0.06226155,0.01317856,0.01
 965583,0.00119220,-0.00229752,-0.00176817,0.05308987,-0.00079762,-0.00
 173332,-0.00496076,0.00015492,0.00005066,0.00063968,0.00027910,0.00054
 405,-0.00037607,0.00011830,-0.00091698,-0.00034845,0.01324282,-0.14984
 856,-0.13093645,-0.00229751,0.01624799,0.01185078,-0.01315389,0.140054
 51,0.00104066,0.00226148,0.00532732,0.00027890,-0.00006103,-0.00049146
 ,-0.00014634,-0.00039506,0.00022647,0.00016871,0.00036945,0.00030750,0
 .01905192,-0.12607776,-0.23323006,0.00176817,-0.01185079,-0.00865345,-
 0.01997306,0.13406520,0.23110530,-0.00554123,-0.01204178,0.,0.00001074
 ,0.00001220,0.,-0.00121501,0.00011024,0.00042498,-0.00121501,0.0001102
 4,-0.00042498,-0.18769546,-0.09252383,0.00000001,0.00632616,0.00335601
 ,0.00172298,0.00632615,0.00335601,-0.00172299,0.54236700,0.00611369,0.
 01328582,0.,0.00001220,-0.00001923,0.,0.00011024,0.00004196,-0.0000369
 9,0.00011024,0.00004197,0.00003699,-0.09252384,-0.16541151,0.,-0.00697
 971,-0.00370272,-0.00190098,-0.00697971,-0.00370272,0.00190099,-0.0044
 5487,0.55934440,0.,0.,0.00137049,0.,0.,0.00063950,0.00066602,0.0004868
 2,-0.00042152,-0.00066602,-0.00048682,-0.00042152,0.,0.,-0.07339467,0.
 01463981,0.00955481,0.00526474,-0.01463981,-0.00955480,0.00526475,0.00
 000004,-0.00000011,0.58831295,-0.00112261,-0.00047732,-0.00079343,-0.0
 0001243,-0.00001428,-0.00000702,-0.00070095,-0.00012204,0.00000130,-0.
 00003200,-0.00000826,-0.00003652,0.00632615,-0.00697970,-0.01463981,-0
 .00033725,0.00006344,0.00026532,0.00030749,-0.00034369,0.00025543,-0.0
 6226156,0.01317858,0.01965587,0.05308987,-0.00047732,-0.00018704,0.000
 24493,-0.00001428,0.00000483,-0.00000396,-0.00012204,0.00005682,0.0000
 0020,-0.00000826,0.00001931,-0.00000574,0.00335601,-0.00370272,-0.0095
 5481,0.00006344,-0.00093230,-0.00029273,-0.00034369,0.00034272,-0.0003
 2185,0.01324284,-0.14984840,-0.13093637,-0.01315390,0.14005436,-0.0004
 1385,-0.00017387,-0.00047686,-0.00000702,-0.00000396,0.00001094,0.0000
 0130,0.00000020,0.00007599,-0.00003652,-0.00000574,-0.00000474,-0.0017
 2298,0.00190098,0.00526475,-0.00026532,0.00029273,0.00030549,0.0002554
 3,-0.00032185,0.00023281,0.01905197,-0.12607769,-0.23323023,-0.0199731
 1,0.13406513,0.23110550,-0.00112263,-0.00047733,0.00079344,-0.00001242
 ,-0.00001427,0.00000702,-0.00003200,-0.00000826,0.00003652,-0.00070093
 ,-0.00012203,-0.00000130,0.00632616,-0.00697971,0.01463981,0.00030749,
 -0.00034369,-0.00025543,-0.00033725,0.00006345,-0.00026532,-0.06226158
 ,0.01317863,-0.01965592,0.00119220,-0.00229751,0.00176817,0.05308988,-
 0.00047733,-0.00018704,-0.00024492,-0.00001427,0.00000483,0.00000396,-
 0.00000826,0.00001931,0.00000574,-0.00012203,0.00005681,-0.00000020,0.
 00335601,-0.00370272,0.00955480,-0.00034369,0.00034273,0.00032185,0.00
 006345,-0.00093228,0.00029273,0.01324290,-0.14984862,0.13093647,-0.002
 29751,0.01624799,-0.01185077,-0.01315397,0.14005459,0.00041386,0.00017
 388,-0.00047685,0.00000702,0.00000396,0.00001093,0.00003652,0.00000574
 ,-0.00000474,-0.00000130,-0.00000020,0.00007598,0.00172299,-0.00190099
 ,0.00526474,-0.00025543,0.00032185,0.00023281,0.00026532,-0.00029273,0
 .00030548,-0.01905201,0.12607777,-0.23322997,-0.00176817,0.01185080,-0
 .00865345,0.01997313,-0.13406520,0.23110522,-0.00035045,0.00003163,0.,
 0.00006919,0.00001155,0.,0.00008057,-0.00002655,-0.00002714,0.00008056
 ,-0.00002655,0.00002714,-0.00554123,0.00611369,0.,-0.00112262,-0.00047
 733,0.00041385,-0.00112262,-0.00047733,-0.00041385,-0.23685491,0.07385
 632,0.00000001,0.00441869,-0.00079762,0.00104066,0.00441869,-0.0007976
 2,-0.00104066,0.54536235,0.00003163,0.00014087,0.,0.00001155,-0.000031
 54,0.,-0.00002655,-0.00003699,0.00000584,-0.00002655,-0.00003699,-0.00
 000584,-0.01204178,0.01328582,0.,-0.00047733,-0.00018704,0.00017387,-0
 .00047733,-0.00018704,-0.00017387,0.07106112,-0.11002287,-0.00000004,0
 .00960236,-0.00173332,0.00226148,0.00960237,-0.00173332,-0.00226149,0.
 01997030,0.57996293,0.,0.,0.00065883,0.,0.,-0.00003285,-0.00002714,0.0
 0000584,-0.00003674,0.00002714,-0.00000584,-0.00003674,0.,0.,0.0013704
 9,0.00079344,-0.00024493,-0.00047686,-0.00079344,0.00024493,-0.0004768
 5,-0.00000002,-0.00000003,-0.07234796,0.01673803,-0.00496076,0.0053273
 2,-0.01673802,0.00496075,0.00532733,-0.00000022,0.00000015,0.58633857,
 0.00008054,-0.00002654,0.00002713,-0.00001446,0.00000042,-0.00000416,-
 0.00001490,0.00000883,0.,-0.00000950,0.00000622,-0.00000743,-0.0012150
 5,0.00011024,-0.00066604,-0.00070091,-0.00012203,-0.00000130,-0.000031
 99,-0.00000826,-0.00003651,0.00419157,0.00910883,-0.01704041,-0.000360
 05,0.00011828,0.00016871,0.00011588,0.00027909,0.00014635,-0.05929037,
 0.02071942,-0.02829329,0.04879201,-0.00002654,-0.00003698,-0.00000584,
 0.00000042,0.00000800,0.00000008,0.00000883,0.00000665,0.,0.00000622,0
 .00000569,0.00000266,0.00011024,0.00004198,-0.00048682,-0.00012203,0.0
 0005680,-0.00000020,-0.00000826,0.00001930,-0.00000573,-0.00084885,-0.
 00184467,0.00450197,0.00011828,-0.00091697,0.00036945,0.00027909,0.000
 54405,0.00039505,0.01855157,-0.14302763,0.12767084,-0.01980030,0.13383
 104,0.00002713,-0.00000584,-0.00003672,-0.00000416,0.00000008,0.000007
 24,0.,0.,0.00000981,-0.00000743,0.00000266,0.00000474,-0.00042500,0.00
 003699,-0.00042151,-0.00000130,-0.00000020,0.00007597,-0.00003651,-0.0
 0000573,-0.00000474,-0.00118718,-0.00257990,0.00555827,-0.00016164,-0.
 00034845,0.00030749,0.00013761,0.00037605,0.00022647,-0.02486820,0.126
 31081,-0.23584407,0.02652377,-0.13314231,0.23235700,0.00006919,0.00001
 155,0.,-0.00001046,-0.00000393,0.,-0.00001447,0.00000042,0.00000416,-0
 .00001447,0.00000042,-0.00000416,0.00001074,0.00001220,0.,-0.00001243,
 -0.00001428,0.00000702,-0.00001243,-0.00001428,-0.00000702,-0.00636843
 ,-0.01383941,0.,-0.00062343,0.00015492,0.00027890,-0.00062342,0.000154
 92,-0.00027890,-0.19085731,-0.13866886,-0.00000001,0.00735393,0.004935
 32,0.00239096,0.18374903,0.00001155,-0.00003154,0.,-0.00000393,0.00000
 490,0.,0.00000042,0.00000801,-0.00000008,0.00000042,0.00000801,0.00000
 008,0.00001220,-0.00001923,0.,-0.00001428,0.00000483,0.00000396,-0.000
 01428,0.00000483,-0.00000396,0.00622664,0.01353128,0.,0.00015492,0.000
 05066,-0.00006103,0.00015492,0.00005066,0.00006103,-0.13448386,-0.1933
 6502,-0.00000005,-0.00719019,-0.00482543,-0.00233772,0.14233568,0.1894
 0349,0.,0.,-0.00003285,0.,0.,0.00000585,0.00000416,-0.00000008,0.00000
 724,-0.00000416,0.00000008,0.00000724,0.,0.,0.00063950,0.00000702,0.00
 000396,0.00001094,-0.00000702,-0.00000396,0.00001094,0.,0.,0.00107688,
 0.00060135,0.00063968,-0.00049146,-0.00060134,-0.00063968,-0.00049146,
 -0.00000003,-0.00000007,-0.05392672,0.01679513,0.01239447,0.00624259,0
 .,0.00000005,0.04069876,0.00008059,-0.00002656,-0.00002715,-0.00001448
 ,0.00000042,0.00000417,-0.00000951,0.00000623,0.00000744,-0.00001492,0
 .00000884,0.,-0.00121498,0.00011024,0.00066600,-0.00003201,-0.00000827
 ,0.00003653,-0.00070097,-0.00012204,0.00000130,0.00419157,0.00910881,0
 .01704041,0.00011588,0.00027911,-0.00014633,-0.00036006,0.00011832,-0.
 00016871,-0.05929056,0.02071965,0.02829354,0.00110331,-0.00320401,-0.0
 0238804,0.00735396,-0.00719022,-0.01679511,0.04879216,-0.00002656,-0.0
 0003701,0.00000585,0.00000042,0.00000801,-0.00000008,0.00000623,0.0000
 0569,-0.00000266,0.00000884,0.00000665,0.,0.00011024,0.00004195,0.0004
 8682,-0.00000827,0.00001932,0.00000574,-0.00012204,0.00005683,0.000000
 20,-0.00084886,-0.00184468,-0.00450193,0.00027911,0.00054405,-0.000395
 07,0.00011832,-0.00091698,-0.00036945,0.01855180,-0.14302786,-0.127670
 91,-0.00320403,0.01613816,0.01169358,0.00493533,-0.00482544,-0.0123944
 5,-0.01980053,0.13383130,-0.00002715,0.00000585,-0.00003675,0.00000417
 ,-0.00000008,0.00000725,0.00000744,-0.00000266,0.00000474,0.,0.,0.0000
 0981,0.00042497,-0.00003699,-0.00042153,0.00003653,0.00000574,-0.00000
 474,0.00000130,0.00000020,0.00007600,0.00118720,0.00257993,0.00555829,
 -0.00013759,-0.00037608,0.00022647,0.00016164,0.00034845,0.00030752,0.
 02486844,-0.12631084,-0.23584376,0.00238806,-0.01169361,-0.00848254,-0
 .00239096,0.00233772,0.00624256,-0.02652405,0.13314236,0.23235668\\0.0
 0002961,0.00002182,-0.00000002,0.,-0.00000038,0.,0.00002795,-0.0000083
 6,0.00000489,0.00002795,-0.00000837,-0.00000488,0.00004234,0.00003091,
 0.,0.00001667,-0.00001027,-0.00001479,0.00001667,-0.00001027,0.0000147
 9,-0.00004234,-0.00003091,-0.00000002,-0.00001668,0.00001028,-0.000014
 78,-0.00001667,0.00001027,0.00001480,-0.00002961,-0.00002182,-0.000000
 05,-0.00002794,0.00000835,0.00000491,0.,0.00000038,0.,-0.00002795,0.00
 000838,-0.00000486\\\@
 The archive entry for this job was punched.


 THERE IS NO CURE FOR BIRTH AND DEATH SAVE TO ENJOY THE INTERVAL.

                               -- GEORGE SANTAYANA
 Job cpu time:       0 days  0 hours  0 minutes  0.4 seconds.
 Elapsed time:       0 days  0 hours  0 minutes  0.4 seconds.
 File lengths (MBytes):  RWF=      6 Int=      0 D2E=      0 Chk=      1 Scr=      1
 Normal termination of Gaussian DV at Wed Nov 15 17:58:18 2023.
