Title                                                                   
Freq      RAMBER                                                      ZDO                 
Number of atoms                            I                4
Info1-9                                    I   N=           9
          19          19           0           0           0         100
           6           8        1101
Full Title                                 C   N=           1
Title       
Route                                      C   N=           4
#p Amber=(SoftOnly,Print) nosymm Freq=intmodes  
Charge                                     I                0
Multiplicity                               I                1
Number of electrons                        I                6
Number of alpha electrons                  I                3
Number of beta electrons                   I                3
Number of basis functions                  I                0
Number of independent functions            I                0
Number of point charges in /Mol/           I                0
Number of translation vectors              I                0
Atomic numbers                             I   N=           4
           8           1           8           1
Nuclear charges                            R   N=           4
  2.00000000E+00  1.00000000E+00  2.00000000E+00  1.00000000E+00
Current cartesian coordinates              R   N=          12
  0.00000000E+00  1.37763302E+00 -1.95002729E-01  0.00000000E+00  1.85958688E+00
  1.56002750E+00  0.00000000E+00 -1.37763302E+00 -1.95002729E-01  0.00000000E+00
 -1.85958688E+00  1.56002750E+00
Number of symbols in /Mol/                 I                0
Redundant internal dimensions              I   N=           4
           6           3           2           1
Redundant internal coordinate indices      I   N=          24
           1           2           0           0           1           3
           0           0           3           4           0           0
           2           1           3           0           1           3
           4           0           2           1           3           4
Redundant internal coordinates             R   N=           6
  1.82000292E+00  2.75526604E+00  1.82000292E+00  1.83880258E+00  1.83880258E+00
  0.00000000E+00
ZRed-IntVec                                I   N=           6
           0           0           0           0           0           0
ZRed-FPVec                                 R   N=           6
  0.00000000E+00  0.00000000E+00  0.00000000E+00  0.00000000E+00  0.00000000E+00
  0.00000000E+00
ZRed-Constraint1                           R   N=           6
  1.82000292E+00  2.75526604E+00  1.82000292E+00  1.83880258E+00  1.83880258E+00
  0.00000000E+00
ZRed-Constraint2                           R   N=           6
  0.00000000E+00  0.00000000E+00  0.00000000E+00  0.00000000E+00  0.00000000E+00
  0.00000000E+00
Force Field                                I                2
Atom Types                                 C   N=           4
#200OW      #200HW      #200OW      #200HW      
Int Atom Types                             I   N=           4
    20001021    20001030    20001021    20001030
MM charges                                 R   N=           4
  7.90505033-323  4.94065646-324  7.90505033-323  4.94065646-324
Integer atomic weights                     I   N=           4
           0           0           0           0
Real atomic weights                        R   N=           4
  0.00000000E+00  0.00000000E+00  0.00000000E+00  0.00000000E+00
Atom fragment info                         I   N=           4
           0           0           0           0
Atom residue num                           I   N=           4
           0           0           0           0
Nuclear spins                              I   N=           4
           0           0           0           0
Nuclear ZEff                               R   N=           4
  0.00000000E+00  0.00000000E+00  0.00000000E+00  0.00000000E+00
Nuclear ZNuc                               R   N=           4
  0.00000000E+00  0.00000000E+00  0.00000000E+00  0.00000000E+00
Nuclear QMom                               R   N=           4
  0.00000000E+00  0.00000000E+00  0.00000000E+00  0.00000000E+00
Nuclear GFac                               R   N=           4
  0.00000000E+00  0.00000000E+00  0.00000000E+00  0.00000000E+00
MicOpt                                     I   N=           4
           0           0           0           0
Number of residues                         I                0
Number of secondary structures             I                0
Number of contracted shells                I                4
Number of primitive shells                 I                4
Pure/Cartesian d shells                    I                0
Pure/Cartesian f shells                    I                0
Highest angular momentum                   I                0
Largest degree of contraction              I                1
Shell types                                I   N=           4
           0           0           0           0
Number of primitives per shell             I   N=           4
           1           1           1           1
Shell to atom map                          I   N=           4
           1           2           3           4
Primitive exponents                        R   N=           4
  1.00000000E+00  1.00000000E+00  1.00000000E+00  1.00000000E+00
Contraction coefficients                   R   N=           4
  1.00000000E+00  1.00000000E+00  1.00000000E+00  1.00000000E+00
Coordinates of each shell                  R   N=          12
  0.00000000E+00  1.37763302E+00 -1.95002729E-01  0.00000000E+00  1.85958688E+00
  1.56002750E+00  0.00000000E+00 -1.37763302E+00 -1.95002729E-01  0.00000000E+00
 -1.85958688E+00  1.56002750E+00
Constraint Structure                       R   N=          12
  0.00000000E+00  1.37763302E+00 -1.95002729E-01  0.00000000E+00  1.85958688E+00
  1.56002750E+00  0.00000000E+00 -1.37763302E+00 -1.95002729E-01  0.00000000E+00
 -1.85958688E+00  1.56002750E+00
Num ILSW                                   I              100
ILSW                                       I   N=         100
           0           0           0           0           0           0
           0           0           0           0           0          -1
           5           0           0           0           2           0
           0           0           0           0           1           0
           1           1           0           0           0           0
           0           0      100000           0          -1           0
           0           0           0           0           0           0
           0           0           0         101           0           0
           0 -2000000000           1           0           0           0
           0           0           4          41           0           0
           0           0           0           0           0           0
           0           0           0           4           0           1
           0           0           0           0           0           0
           0           0           0           0           0           0
           0           0           0           0           0           0
           0           0           0           0           0           0
           0           0           0           0
Num RLSW                                   I               41
RLSW                                       R   N=          41
  1.00000000E+00  1.00000000E+00  1.00000000E+00  1.00000000E+00  1.00000000E+00
  0.00000000E+00  0.00000000E+00  1.00000000E+00  0.00000000E+00  0.00000000E+00
  0.00000000E+00  0.00000000E+00  1.00000000E+00  0.00000000E+00  0.00000000E+00
  0.00000000E+00  0.00000000E+00  1.00000000E+00  0.00000000E+00  0.00000000E+00
  0.00000000E+00  0.00000000E+00  1.00000000E+00  0.00000000E+00  0.00000000E+00
  0.00000000E+00  0.00000000E+00  1.00000000E+00  0.00000000E+00  0.00000000E+00
  0.00000000E+00  0.00000000E+00  1.00000000E+00  0.00000000E+00  0.00000000E+00
  0.00000000E+00  0.00000000E+00  0.00000000E+00  1.00000000E+00  1.00000000E+00
  0.00000000E+00
MxBond                                     I                2
NBond                                      I   N=           4
           2           1           2           1
IBond                                      I   N=           8
           2           3           1           0           1           4
           3           0
RBond                                      R   N=           8
  1.00000000E+00  1.00000000E+00  1.00000000E+00  0.00000000E+00  1.00000000E+00
  1.00000000E+00  1.00000000E+00  0.00000000E+00
Virial Ratio                               R      0.000000000000000E+00
SCF Energy                                 R      3.187202909764155E-03
Total Energy                               R      3.187202909764155E-03
RMS Force                                  R      1.005319118057636E-07
External E-field                           R   N=         105
  0.00000000E+00  0.00000000E+00  0.00000000E+00  0.00000000E+00  0.00000000E+00
  0.00000000E+00  0.00000000E+00  0.00000000E+00  0.00000000E+00  0.00000000E+00
  0.00000000E+00  0.00000000E+00  0.00000000E+00  0.00000000E+00  0.00000000E+00
  0.00000000E+00  0.00000000E+00  0.00000000E+00  0.00000000E+00  0.00000000E+00
  0.00000000E+00  0.00000000E+00  0.00000000E+00  0.00000000E+00  0.00000000E+00
  0.00000000E+00  0.00000000E+00  0.00000000E+00  0.00000000E+00  0.00000000E+00
  0.00000000E+00  0.00000000E+00  0.00000000E+00  0.00000000E+00  0.00000000E+00
  0.00000000E+00  0.00000000E+00  0.00000000E+00  0.00000000E+00  0.00000000E+00
  0.00000000E+00  0.00000000E+00  0.00000000E+00  0.00000000E+00  0.00000000E+00
  0.00000000E+00  0.00000000E+00  0.00000000E+00  0.00000000E+00  0.00000000E+00
  0.00000000E+00  0.00000000E+00  0.00000000E+00  0.00000000E+00  0.00000000E+00
  0.00000000E+00  0.00000000E+00  0.00000000E+00  0.00000000E+00  0.00000000E+00
  0.00000000E+00  0.00000000E+00  0.00000000E+00  0.00000000E+00  0.00000000E+00
  0.00000000E+00  0.00000000E+00  0.00000000E+00  0.00000000E+00  0.00000000E+00
  0.00000000E+00  0.00000000E+00  0.00000000E+00  0.00000000E+00  0.00000000E+00
  0.00000000E+00  0.00000000E+00  0.00000000E+00  0.00000000E+00  0.00000000E+00
  0.00000000E+00  0.00000000E+00  0.00000000E+00  0.00000000E+00  0.00000000E+00
  0.00000000E+00  0.00000000E+00  0.00000000E+00  0.00000000E+00  0.00000000E+00
  0.00000000E+00  0.00000000E+00  0.00000000E+00  0.00000000E+00  0.00000000E+00
  0.00000000E+00  0.00000000E+00  0.00000000E+00  0.00000000E+00  0.00000000E+00
  0.00000000E+00  0.00000000E+00  0.00000000E+00  0.00000000E+00  0.00000000E+00
IOpCl                                      I                0
IROHF                                      I                0
Grdnt Energy                               R      3.187202909764155E-03
Grdnt NVar                                 I                6
Grdnt IGetFC                               I                4
Internal Forces                            R   N=           6
 -1.75519712E-07 -4.04782831E-08 -1.75519712E-07  2.07492945E-08  2.07492945E-08
 -5.62223885E-24
Internal Force Constants                   R   N=          21
  8.92507706E-04  9.14795583E-19  8.92507706E-04 -1.24683250E-18  9.21571847E-19
  8.92507706E-04  8.13151629E-20  1.95156391E-18 -4.66206934E-18  3.18720287E-03
 -1.00288701E-18  1.30104261E-18  1.73472348E-18 -3.03576608E-18  3.18720287E-03
 -4.03721534E-21 -8.10418308E-20 -5.75124544E-19 -8.43318070E-19 -9.04286669E-19
 -1.43424129E-02
Optimization MaxStp                        I                2
Optimization Job offset                    I                0
Optimization Num results per geometry      I                2
Optimization Num geometry variables        I               12
Opt point       1 Results for each geome   R   N=           2
  3.18720291E-03  0.00000000E+00
Opt point       1 Geometries               R   N=          12
  0.00000000E+00  1.37763302E+00 -1.95002729E-01  0.00000000E+00  1.85958688E+00
  1.56002750E+00  0.00000000E+00 -1.37763302E+00 -1.95002729E-01  0.00000000E+00
 -1.85958688E+00  1.56002750E+00
Opt point       1 Gradient at each geome   R   N=          12
  0.00000000E+00  4.99271238E-09 -1.72272805E-07  0.00000000E+00  3.54855707E-08
  1.72272805E-07  0.00000000E+00 -4.99271238E-09 -1.72272805E-07  0.00000000E+00
 -3.54855707E-08  1.72272805E-07
Optimization Number of geometries          I   N=           1
           1
MMPar NCPar                                I   N=          16
          -1          18           4         303           4           3
          10           6          18           6           4          95
           6           5           0           5
MMPar IPrt                                 I   N=          18
           1           1           6           6           6           3
           6           3           0           0           0           0
           0           0           0           0           0           0
MMPar ICnvrt                               I   N=           6
           0           0           0           0           0           0
MMPar ICntr                                I   N=           4
           0           0           0           0
MMPar IList                                I   N=          97
           0           0           0           0           0           0
           0           0           0           0           0           0
           0           0           0           0           0           0
           0           0           0           0           0           0
           0           0           0           0           0           0
           0           0           0           0           0           0
           0           0           0           0           0           0
           0           0           0           0           0           0
           0           0           0           0           0           0
           0           0           0           0           0           0
           0           0           0           0           0           0
           0           0           0           0           0           0
           0           0           0           0           0           0
           0           0           0           0           0           0
           0           0           0           0           0           0
           0           0           0           0           0           5
           0
MMPar AtL                                  L   N=           4
TTTT
MMPar ChL                                  L   N=           4
FFFF
MMPar Q                                    R   N=           4
  0.00000000E+00  0.00000000E+00  0.00000000E+00  0.00000000E+00
MMPar IAType                               I   N=           8
          21          30          21          30           0           0
           0           0
MMPar IAtTpT                               I   N=           3
           0    20001021    20001030
MMPar IUserT                               I   N=           3
           0           0           0
MMPar SymbT                                H   N=           3
*       OW      HW      
MMPar StepD                                I   N=          95
           0           0           0           0           0           0
           0           0           0           0           0           0
           0           0           0           0           0           0
           0           0           0           0           0           0
           0           0           0           0           0           0
           0           0           0           0           0           0
           0           0           0           0           0           0
           0           0           0           0           0           0
           0           0           0           0           0           0
           0           0           0           0           0           0
           0           0           0           0           0           0
           0           0           0           0           0           0
           0           0           0           0           0           0
           0           0           0           0           0           0
           0           0           0           0           0           0
           0           0           0           0           0
MMPar ICorL                                I   N=         180
           3           1           0           0           0           0
           0           0           0           6    20001021    20001030
           0           0           0           0           0           0
           0          10    20001021    20001021           0           0
           0           0           0           0           0          10
    20001030    20001021    20001021           0           0           0
           0           0           0          20    20001030    20001021
    20001021    20001030           0           0           0           0
           0          30           3           1           0           0
           0           0           0           0           0           2
           1           2           0           0           0           0
           0           0           0          10           1           3
           0           0           0           0           0           0
           0          10           3           4           0           0
           0           0           0           0           0          10
           4           3           1           0           0           0
           0           0           0          20           2           1
           3           0           0           0           0           0
           0          20           2           1           3           4
           0           0           0           0           0          30
           2           1           3           1           0           0
           0           0           0           3           3           2
           3           1           0           0           0           0
           0           3           3           1           3           1
           0           0           0           0           0           3
           4           2           3           1           0           0
           0           0           0           3           4           1
           3           1           0           0           0           0
           0           3           4           3           3           1
           0           0           0           0           0           3
MMPar RCorL                                R   N=         108
  0.00000000E+00  0.00000000E+00  5.00000000E-01  0.00000000E+00  0.00000000E+00
 -1.20000000E+00  1.00000000E+00  9.63000000E-01  0.00000000E+00  0.00000000E+00
  0.00000000E+00  0.00000000E+00  1.00000000E+00  1.45800000E+00  0.00000000E+00
  0.00000000E+00  0.00000000E+00  0.00000000E+00  1.00000000E+00  1.05356000E+02
  0.00000000E+00  0.00000000E+00  0.00000000E+00  0.00000000E+00  0.00000000E+00
  0.00000000E+00  1.00000000E+00  0.00000000E+00  1.00000000E+00  0.00000000E+00
  0.00000000E+00  0.00000000E+00  0.00000000E+00  0.00000000E+00  0.00000000E+00
  0.00000000E+00  4.46253853E-04  1.81980626E+00  0.00000000E+00  0.00000000E+00
  0.00000000E+00  0.00000000E+00  4.46253853E-04  2.75522069E+00  0.00000000E+00
  0.00000000E+00  0.00000000E+00  0.00000000E+00  4.46253853E-04  1.81980626E+00
  0.00000000E+00  0.00000000E+00  0.00000000E+00  0.00000000E+00  1.59360144E-03
  1.83880909E+00  0.00000000E+00  0.00000000E+00  0.00000000E+00  0.00000000E+00
  1.59360144E-03  1.83880909E+00  0.00000000E+00  0.00000000E+00  0.00000000E+00
  0.00000000E+00  0.00000000E+00  0.00000000E+00  1.59360144E-03  0.00000000E+00
  1.00000000E+00  0.00000000E+00 -1.00000000E+00 -1.00000000E+00  0.00000000E+00
  0.00000000E+00  0.00000000E+00  0.00000000E+00 -1.00000000E+00 -1.00000000E+00
  0.00000000E+00  0.00000000E+00  0.00000000E+00  0.00000000E+00 -1.00000000E+00
 -1.00000000E+00  0.00000000E+00  0.00000000E+00  0.00000000E+00  0.00000000E+00
 -5.00000000E-01 -1.66666667E-01  0.00000000E+00  0.00000000E+00  0.00000000E+00
  0.00000000E+00 -1.00000000E+00 -1.00000000E+00  0.00000000E+00  0.00000000E+00
  0.00000000E+00  0.00000000E+00 -1.00000000E+00 -1.00000000E+00  0.00000000E+00
  0.00000000E+00  0.00000000E+00  0.00000000E+00
MMPar Table                                R   N=          20
  0.00000000E+00  0.00000000E+00  0.00000000E+00  0.00000000E+00  0.00000000E+00
  0.00000000E+00  0.00000000E+00  0.00000000E+00  0.00000000E+00  0.00000000E+00
  0.00000000E+00  0.00000000E+00  0.00000000E+00  0.00000000E+00  0.00000000E+00
  0.00000000E+00  0.00000000E+00  0.00000000E+00  0.00000000E+00  0.00000000E+00
ONIOM Charges                              I   N=          16
           0           0           0           0           0           0
           0           0           0           0           0           0
           0           0           0           0
ONIOM Multiplicities                       I   N=          16
           1           0           0           0           0           0
           0           0           0           0           0           0
           0           0           0           0
Atom Layers                                I   N=           4
           1           1           1           1
Atom Modifiers                             I   N=           4
           0           0           0           0
Force Field                                I                0
Atom Modified Types                        C   N=           4
                                                
Int Atom Modified Types                    I   N=           4
           0           0           0           0
Link Atoms                                 I   N=           4
           0           0           0           0
Atom Modified MM Charges                   R   N=           4
  0.00000000E+00  0.00000000E+00  0.00000000E+00  0.00000000E+00
Link Distances                             R   N=          16
  0.00000000E+00  0.00000000E+00  0.00000000E+00  0.00000000E+00  0.00000000E+00
  0.00000000E+00  0.00000000E+00  0.00000000E+00  0.00000000E+00  0.00000000E+00
  0.00000000E+00  0.00000000E+00  0.00000000E+00  0.00000000E+00  0.00000000E+00
  0.00000000E+00
Cartesian Gradient                         R   N=          12
  0.00000000E+00  4.99271238E-09 -1.72272805E-07  0.00000000E+00  3.54855707E-08
  1.72272805E-07  0.00000000E+00 -4.99271238E-09 -1.72272805E-07  0.00000000E+00
 -3.54855707E-08  1.72272805E-07
Cartesian Force Constants                  R   N=          78
 -8.48423303E-03  0.00000000E+00  1.84991386E-03  0.00000000E+00 -6.30711423E-04
  2.07370890E-03  6.28534140E-03  0.00000000E+00  0.00000000E+00 -4.65633123E-03
  0.00000000E+00 -9.57406159E-04  6.30711423E-04  0.00000000E+00  9.57406159E-04
  0.00000000E+00  1.78156855E-05 -1.06570745E-03  0.00000000E+00 -1.78156855E-05
  8.97398402E-04  8.48433119E-03  0.00000000E+00  0.00000000E+00 -6.28543956E-03
  0.00000000E+00  0.00000000E+00 -8.48423303E-03  0.00000000E+00 -8.92507706E-04
 -6.12895737E-04  0.00000000E+00  0.00000000E+00  2.16759189E-25  0.00000000E+00
  1.84991386E-03  0.00000000E+00  6.12895737E-04 -1.17631050E-03  0.00000000E+00
 -6.12895737E-04  1.68309048E-04  0.00000000E+00  6.30711423E-04  2.07370890E-03
 -6.28543956E-03  0.00000000E+00  0.00000000E+00  4.65642938E-03  0.00000000E+00
  0.00000000E+00  6.28534140E-03  0.00000000E+00  0.00000000E+00 -4.65633123E-03
  0.00000000E+00  0.00000000E+00  6.12895737E-04  0.00000000E+00  0.00000000E+00
  0.00000000E+00  0.00000000E+00 -9.57406159E-04 -6.30711423E-04  0.00000000E+00
  9.57406159E-04  0.00000000E+00 -2.16759189E-25  1.68309048E-04  0.00000000E+00
  0.00000000E+00  0.00000000E+00  0.00000000E+00 -1.78156855E-05 -1.06570745E-03
  0.00000000E+00  1.78156855E-05  8.97398402E-04
Dipole Moment                              R   N=           3
  0.00000000E+00  0.00000000E+00  0.00000000E+00
Number of Normal Modes                     I                6
Vib-NDFDPol                                I                0
Vib-NumROA                                 I                0
Vib-NDim                                   I                4
Vib-NDim0                                  I                4
Vib-AtMass                                 R   N=           4
  1.59949146E+01  1.00782504E+00  1.59949146E+01  1.00782504E+00
Vib-E2                                     R   N=          84
  0.00000000E+00  0.00000000E+00  4.94065646-324  0.00000000E+00  0.00000000E+00
  0.00000000E+00  0.00000000E+00  0.00000000E+00  0.00000000E+00  0.00000000E+00
  9.88131292-324  0.00000000E+00  0.00000000E+00  0.00000000E+00  0.00000000E+00
  0.00000000E+00  0.00000000E+00  0.00000000E+00  1.48219694-323  0.00000000E+00
  0.00000000E+00  0.00000000E+00  0.00000000E+00  0.00000000E+00  0.00000000E+00
  0.00000000E+00  1.97626258-323  0.00000000E+00  0.00000000E+00  0.00000000E+00
  0.00000000E+00  0.00000000E+00  0.00000000E+00  0.00000000E+00  2.47032823-323
  0.00000000E+00  0.00000000E+00  0.00000000E+00  0.00000000E+00  0.00000000E+00
  0.00000000E+00  0.00000000E+00  2.96439388-323  0.00000000E+00  0.00000000E+00
  0.00000000E+00  0.00000000E+00  0.00000000E+00 -5.21736105E+02  5.24788981E+01
  1.55831693E+02  1.57759707E+02  1.64325863E+02  1.76915468E+02  1.11546146E+00
  7.63405323E+00  1.03694885E+00  1.06806581E+00  1.08152636E+00  1.23857512E+00
  1.78898441E-01  1.23872471E-02  1.48360782E-02  1.56617540E-02  1.72067620E-02
  2.28404243E-02  0.00000000E+00  0.00000000E+00  0.00000000E+00  0.00000000E+00
  0.00000000E+00  0.00000000E+00  0.00000000E+00  0.00000000E+00  0.00000000E+00
  0.00000000E+00  0.00000000E+00  0.00000000E+00  0.00000000E+00  0.00000000E+00
  0.00000000E+00  0.00000000E+00  0.00000000E+00  0.00000000E+00
Vib-Modes                                  R   N=          72
  0.00000000E+00  0.00000000E+00  0.00000000E+00  0.00000000E+00  0.00000000E+00
  0.00000000E+00  0.00000000E+00  0.00000000E+00  0.00000000E+00  0.00000000E+00
  0.00000000E+00  0.00000000E+00  0.00000000E+00  0.00000000E+00  0.00000000E+00
  0.00000000E+00  0.00000000E+00  0.00000000E+00  1.00000000E+02  1.00000000E+02
  1.00000000E+02  1.00000000E+02  1.00000000E+02  1.00000000E+02  0.00000000E+00
  0.00000000E+00  0.00000000E+00  0.00000000E+00  0.00000000E+00  0.00000000E+00
  0.00000000E+00  0.00000000E+00  0.00000000E+00  0.00000000E+00  0.00000000E+00
  0.00000000E+00  0.00000000E+00  0.00000000E+00  0.00000000E+00  0.00000000E+00
  0.00000000E+00  0.00000000E+00  0.00000000E+00  0.00000000E+00  0.00000000E+00
  0.00000000E+00  0.00000000E+00  0.00000000E+00 -5.99247157E-02  0.00000000E+00
  0.00000000E+00  7.04563005E-01  0.00000000E+00  0.00000000E+00  5.99247157E-02
  0.00000000E+00  0.00000000E+00 -7.04563005E-01  0.00000000E+00  0.00000000E+00
  0.00000000E+00  4.70175006E-01 -7.66527266E-05  0.00000000E+00  5.28142006E-01
  1.21653439E-03  0.00000000E+00 -4.70175006E-01 -7.66527266E-05  0.00000000E+00
 -5.28142006E-01  1.21653439E-03
