 Entering Gaussian System, Link 0=/home/emanuele/chem_software/gaussian//g09/g09
 Input=GauHarm.gjf
 Output=GauHarm.log
 Initial command:
 /home/emanuele/chem_software/gaussian//gdv/l1.exe "/home/emanuele/chem_software/gaussian/scratch/Gau-7263.inp" -scrdir="/home/emanuele/chem_software/gaussian/scratch/"
 Entering Link 1 = /home/emanuele/chem_software/gaussian//gdv/l1.exe PID=      7265.
  
 Copyright (c) 1988-2020, Gaussian, Inc.  All Rights Reserved.
  
 This is the private, development version of
 the Gaussian(R) DV system of programs. It is based on
 the Gaussian(R) 16 system (copyright 2016, Gaussian, Inc.),
 the Gaussian(R) 09 system (copyright 2009, Gaussian, Inc.),
 the Gaussian(R) 03 system (copyright 2003, Gaussian, Inc.),
 the Gaussian(R) 98 system (copyright 1998, Gaussian, Inc.),
 the Gaussian(R) 94 system (copyright 1995, Gaussian, Inc.),
 the Gaussian 92(TM) system (copyright 1992, Gaussian, Inc.),
 the Gaussian 90(TM) system (copyright 1990, Gaussian, Inc.),
 the Gaussian 88(TM) system (copyright 1988, Gaussian, Inc.),
 the Gaussian 86(TM) system (copyright 1986, Carnegie Mellon
 University), and the Gaussian 82(TM) system (copyright 1983,
 Carnegie Mellon University). Gaussian is a federally registered
 trademark of Gaussian, Inc.
  
 This software contains proprietary and confidential information,
 including trade secrets, belonging to Gaussian, Inc.
  
 This software is provided under written license and may be
 used, copied, transmitted, or stored only in accord with that
 written license.
  
 The following legend is applicable only to US Government
 contracts under FAR:
  
                    RESTRICTED RIGHTS LEGEND
  
 Use, reproduction and disclosure by the US Government is
 subject to restrictions as set forth in subparagraphs (a)
 and (c) of the Commercial Computer Software - Restricted
 Rights clause in FAR 52.227-19.
  
 Gaussian, Inc.
 340 Quinnipiac St., Bldg. 40, Wallingford CT 06492
  
  
 ---------------------------------------------------------------
 Warning -- This program may not be used in any manner that
 competes with the business of Gaussian, Inc. or will provide
 assistance to any competitor of Gaussian, Inc.  The licensee
 of this program is prohibited from giving any competitor of
 Gaussian, Inc. access to this program.  By using this program,
 the user acknowledges that Gaussian, Inc. is engaged in the
 business of creating and licensing software in the field of
 computational chemistry and represents and warrants to the
 licensee that it is not a competitor of Gaussian, Inc. and that
 it will not use this program in any manner prohibited above.
 ---------------------------------------------------------------
  

 Cite this work as:
 Gaussian Development Version, Revision J.14,
 M. J. Frisch, G. W. Trucks, H. B. Schlegel, G. E. Scuseria, 
 M. A. Robb, J. R. Cheeseman, G. Scalmani, V. Barone, 
 G. A. Petersson, H. Nakatsuji, X. Li, A. V. Marenich, M. Caricato, 
 J. Bloino, B. G. Janesko, J. Zheng, R. Gomperts, B. Mennucci, 
 H. P. Hratchian, J. V. Ortiz, A. F. Izmaylov, J. L. Sonnenberg, 
 D. Williams-Young, F. Ding, F. Lipparini, F. Egidi, J. Goings, 
 B. Peng, A. Petrone, T. Henderson, D. Ranasinghe, V. G. Zakrzewski, 
 J. Gao, N. Rega, G. Zheng, W. Liang, M. Hada, M. Ehara, K. Toyota, 
 R. Fukuda, J. Hasegawa, M. Ishida, T. Nakajima, Y. Honda, O. Kitao, 
 H. Nakai, T. Vreven, K. Throssell, J. A. Montgomery, Jr., 
 J. E. Peralta, F. Ogliaro, M. J. Bearpark, J. J. Heyd, 
 E. N. Brothers, K. N. Kudin, V. N. Staroverov, T. A. Keith, 
 R. Kobayashi, J. Normand, K. Raghavachari, A. P. Rendell, 
 J. C. Burant, S. S. Iyengar, J. Tomasi, M. Cossi, J. M. Millam, 
 M. Klene, C. Adamo, R. Cammi, J. W. Ochterski, R. L. Martin, 
 K. Morokuma, O. Farkas, J. B. Foresman, and D. J. Fox, 
 Gaussian, Inc., Wallingford CT, 2020.
 
 ******************************************
 Gaussian DV:  ES64L-GDVRevJ.14 29-Dec-2020
                22-Nov-2023 
 ******************************************
 %mem=1GB
 %nprocshared=1
 Will use up to    1 processors via shared memory.
 %chk=GauHarm.chk
 ----------------------------------------------
 #p Amber=(SoftOnly,Print) nosymm Freq=intmodes
 ----------------------------------------------
 1/10=4,18=20,30=1,37=210000000,38=1,56=2,64=303/1,3;
 2/9=110,12=2,15=1,40=1/2;
 3/5=30,11=9,25=1,30=1,41=10030000,43=2,71=2,140=1/1;
 4/20=11,22=2,24=3,119=11/2;
 7/8=21,25=1,30=1,44=-1/16;
 1/10=4,18=20,30=1,64=303/3;
 99//99;
 Leave Link    1 at Wed Nov 22 16:44:45 2023, MaxMem=   134217728 cpu:               0.0 elap:               0.0
 (Enter /home/emanuele/chem_software/gaussian//gdv/l101.exe)
 -----
 Title
 -----
 Symbolic Z-matrix:
 Charge =  0 Multiplicity = 1
 O-OW-0.00             0.        0.72901  -0.10319 
 H-HW-0.00             0.        0.98405   0.82553 
 O-OW-0.00             0.       -0.72901  -0.10319 
 H-HW-0.00             0.       -0.98405   0.82553 
 
 ITRead=  0  0  0  0
 MicOpt= -1 -1 -1 -1
 NAtoms=      4 NQM=        4 NQMF=       0 NMMI=      0 NMMIF=      0
                NMic=       0 NMicF=      0.
                    Isotopes and Nuclear Properties:
 (Nuclear quadrupole moments (NQMom) in fm**2, nuclear magnetic moments (NMagM)
  in nuclear magnetons)

  Atom         1           2           3           4
 IAtWgt=          16           1          16           1
 AtmWgt=  15.9949146   1.0078250  15.9949146   1.0078250
 NucSpn=           0           1           0           1
 AtZEff=  -0.0000000  -0.0000000  -0.0000000  -0.0000000
 NQMom=    0.0000000   0.0000000   0.0000000   0.0000000
 NMagM=    0.0000000   2.7928460   0.0000000   2.7928460
 AtZNuc=   8.0000000   1.0000000   8.0000000   1.0000000
 Generating MM parameters.
 Read MM parameter file:
 Include all MM classes

 MM sanity checks:
 All charges sum to:                0.00000000
 Charges of atoms sum to:           0.00000000
 WARNING -- There are centers with partial charges, but
 there is no Vanderwaals repulsion. Centers can collapse
 onto each other.
 MMInit generated parameter data with length LenPar=         669.
 Leave Link  101 at Wed Nov 22 16:44:45 2023, MaxMem=   134217728 cpu:               0.2 elap:               0.3
 (Enter /home/emanuele/chem_software/gaussian//gdv/l103.exe)

 GradGradGradGradGradGradGradGradGradGradGradGradGradGradGradGradGradGrad
 Berny optimization.
 Initialization pass.
                           ----------------------------
                           !    Initial Parameters    !
                           ! (Angstroms and Degrees)  !
 --------------------------                            --------------------------
 ! Name  Definition              Value          Derivative Info.                !
 --------------------------------------------------------------------------------
 ! R1    R(1,2)                  0.9631         calculate D2E/DX2 analytically  !
 ! R2    R(1,3)                  1.458          calculate D2E/DX2 analytically  !
 ! R3    R(3,4)                  0.9631         calculate D2E/DX2 analytically  !
 ! A1    A(2,1,3)              105.3556         calculate D2E/DX2 analytically  !
 ! A2    A(1,3,4)              105.3556         calculate D2E/DX2 analytically  !
 ! D1    D(2,1,3,4)              0.0            calculate D2E/DX2 analytically  !
 --------------------------------------------------------------------------------
 Trust Radius=3.00D-01 FncErr=1.00D-07 GrdErr=1.00D-07 EigMax=2.50D+02 EigMin=1.00D-04
 Number of steps in this run=      2 maximum allowed number of steps=      2.
 GradGradGradGradGradGradGradGradGradGradGradGradGradGradGradGradGradGrad

 Leave Link  103 at Wed Nov 22 16:44:45 2023, MaxMem=   134217728 cpu:               0.0 elap:               0.0
 (Enter /home/emanuele/chem_software/gaussian//gdv/l202.exe)
                          Input orientation:                          
 ---------------------------------------------------------------------
 Center     Atomic      Atomic             Coordinates (Angstroms)
 Number     Number       Type             X           Y           Z
 ---------------------------------------------------------------------
      1          8    20001021        0.000000    0.729012   -0.103191
      2          1    20001030        0.000000    0.984051    0.825531
      3          8    20001021        0.000000   -0.729012   -0.103191
      4          1    20001030        0.000000   -0.984051    0.825531
 ---------------------------------------------------------------------
                    Distance matrix (angstroms):
                    1          2          3          4
     1  O    0.000000
     2  H    0.963104   0.000000
     3  O    1.458024   1.948617   0.000000
     4  H    1.948617   1.968102   0.963104   0.000000
 Symmetry turned off by external request.
 Stoichiometry    H2O2
 Framework group  C2V[SGV(H2O2)]
 Deg. of freedom     3
 Full point group                 C2V     NOp   4
 Rotational constants (GHZ):         309.0064700          26.6646669          24.5465090
 Leave Link  202 at Wed Nov 22 16:44:45 2023, MaxMem=   134217728 cpu:               0.0 elap:               0.0
 (Enter /home/emanuele/chem_software/gaussian//gdv/l301.exe)
 Standard basis: Dummy (5D, 7F)
     4 basis functions,     4 primitive gaussians,     4 cartesian basis functions
     3 alpha electrons        3 beta electrons
       nuclear repulsion energy         5.0047029879 Hartrees.
 IExCor=       0 DFT=F Ex=HF Corr=None N6=None ScaHFX=  1.000000
 ScaDFX=  1.000000  1.000000  1.000000  1.000000  1.000000  0.000000
 ScaDFX=  0.000000  0.000000  0.000000  0.000000  0.000000  0.000000
 IRadAn=      5 IRanWt=     -1 IRanGd=            0 ICorTp=0 IEmpDi=  4
 NAtoms=    4 NActive=    4 NUniq=    4 SFac= 1.00D+00 NAtFMM=   60 NAOKFM=F Big=F
 Integral buffers will be    131072 words long.
 Raffenetti 1 integral format.
 Two-electron integral symmetry is turned off.
 Leave Link  301 at Wed Nov 22 16:44:45 2023, MaxMem=   134217728 cpu:               0.0 elap:               0.1
 (Enter /home/emanuele/chem_software/gaussian//gdv/l402.exe)
 AMBER calculation of energy, first and second derivatives.
 ****************************
 MOLECULAR MECHANICS FUNCTION
 ****************************
 Molecular mechanics terms:
 NBDir 3 1      0      0
 HrmStr1 1-2    1.00 0.9630
 HrmStr1 1-3    1.00 1.4580
 HrmStr1 3-4    1.00 0.9630
 HrmBnd1 4-3-1   1.00 105.36
 HrmBnd1 2-1-3   1.00 105.36
 AmbTrs 2-1-3-4   0   0   0   0  0.0000  0.0000  1.0000  0.0000  1.0
 NBPair 2-1 3 1      0      0 -1.000 -1.000
 NBPair 3-2 3 1      0      0 -1.000 -1.000
 NBPair 3-1 3 1      0      0 -1.000 -1.000
 NBPair 4-2 3 1      0      0 -0.500 -0.167
 NBPair 4-1 3 1      0      0 -1.000 -1.000
 NBPair 4-3 3 1      0      0 -1.000 -1.000
 Energy per function type:
 Direct Coulomb + vdW (small)                           0.000000000
 Direct Coulomb (large)                                 0.000000000
 Direct vdW (large)                                     0.000000000
 Non-direct Coulomb + vdW (small)                       0.000000000
 Non-direct Coulomb (large)                             0.000000000
 Non-direct vdW (large)                                 0.000000000
 Amber torsion                                          0.003187203
 Energy per function class:
        Coulomb               0.000000000
    Vanderwaals               0.000000000
     Stretching               0.000000000
        Bending               0.000000000
        Torsion               0.003187203
 Energy=    3.187202910E-03 NIter=   0.
 Dipole moment=       0.000000       0.000000       0.000000
 Leave Link  402 at Wed Nov 22 16:44:46 2023, MaxMem=   134217728 cpu:               0.0 elap:               0.1
 (Enter /home/emanuele/chem_software/gaussian//gdv/l716.exe)
 Dipole        = 0.00000000D+00 0.00000000D+00 0.00000000D+00
 Full mass-weighted force constant matrix:
 Low frequencies --- -521.7361    0.0000    0.0000    0.0000    0.2385    0.5193
 Low frequencies ---    1.6540   52.4789  155.8317
 ******    1 imaginary frequencies (negative Signs) ****** 
 Diagonal vibrational polarizability:
        0.0000000       0.0000000       0.0000000
 Harmonic frequencies (cm**-1), IR intensities (KM/Mole), Raman scattering
 activities (A**4/AMU), depolarization ratios for plane and unpolarized
 incident light, reduced masses (AMU), force constants (mDyne/A),
 and normal coordinates:
                      1                      2                      3
                      A                      A                      A
 Frequencies --   -521.7361                52.4789               155.8317
 Red. masses --      1.1155                 7.6341                 1.0369
 Frc consts  --      0.1789                 0.0124                 0.0148
 IR Inten    --      0.0000                 0.0000                 0.0000
  Atom  AN      X      Y      Z        X      Y      Z        X      Y      Z
     1   8    -0.06  -0.00  -0.00     0.00   0.47  -0.00     0.00  -0.02  -0.02
     2   1     0.70  -0.00  -0.00     0.00   0.53   0.00     0.00   0.38   0.59
     3   8     0.06  -0.00  -0.00     0.00  -0.47  -0.00     0.00  -0.02   0.02
     4   1    -0.70  -0.00  -0.00     0.00  -0.53   0.00     0.00   0.38  -0.59
                      4                      5                      6
                      A                      A                      A
 Frequencies --    157.7597               164.3259               176.9155
 Red. masses --      1.0681                 1.0815                 1.2386
 Frc consts  --      0.0157                 0.0172                 0.0228
 IR Inten    --      0.0000                 0.0000                 0.0000
  Atom  AN      X      Y      Z        X      Y      Z        X      Y      Z
     1   8    -0.00  -0.01  -0.04    -0.00  -0.05   0.01     0.00  -0.04   0.08
     2   1    -0.00   0.17   0.69    -0.00   0.68  -0.17     0.00   0.60  -0.37
     3   8    -0.00   0.01  -0.04    -0.00   0.05   0.01     0.00  -0.04  -0.08
     4   1    -0.00  -0.17   0.69    -0.00  -0.68  -0.17     0.00   0.60   0.37

 -------------------
 - Thermochemistry -
 -------------------
 Temperature   298.150 Kelvin.  Pressure      1.00000 Atm.
 Atom     1 has atomic number  8 and mass  15.99491
 Atom     2 has atomic number  1 and mass   1.00783
 Atom     3 has atomic number  8 and mass  15.99491
 Atom     4 has atomic number  1 and mass   1.00783
 Molecular mass:    34.00548 amu.
 Principal axes and moments of inertia in atomic units:
                                 1                 2                 3
     Eigenvalues --            5.840464         67.682871         73.523335
           X                  -0.000000          0.000000          1.000000
           Y                   1.000000          0.000000          0.000000
           Z                   0.000000          1.000000          0.000000
 This molecule is an asymmetric top.
 Rotational symmetry number  2.
 Rotational temperatures (Kelvin)     14.82997     1.27970     1.17805
 Rotational constants (GHZ):         309.00647    26.66467    24.54651
    1 imaginary frequencies ignored.
 Zero-point vibrational energy       4230.7 (Joules/Mol)
                                    1.01115 (Kcal/Mol)
 Warning -- explicit consideration of   5 degrees of freedom as
           vibrations may cause significant error
 Vibrational temperatures:     75.51   224.21   226.98   236.43   254.54
          (Kelvin)
 
 Zero-point correction=                           0.001611 (Hartree/Particle)
 Thermal correction to Energy=                    0.007753
 Thermal correction to Enthalpy=                  0.008698
 Thermal correction to Gibbs Free Energy=        -0.023563
 Sum of electronic and zero-point Energies=              0.004799
 Sum of electronic and thermal Energies=                 0.010941
 Sum of electronic and thermal Enthalpies=               0.011885
 Sum of electronic and thermal Free Energies=           -0.020376
 
                     E (Thermal)             CV                S
                      KCal/Mol        Cal/Mol-Kelvin    Cal/Mol-Kelvin
 Total                    4.865             15.485             67.898
 Electronic               0.000              0.000              0.000
 Translational            0.889              2.981             36.503
 Rotational               0.889              2.981             16.637
 Vibrational              3.088              9.524             14.758
 Vibration     1          0.596              1.977              4.722
 Vibration     2          0.620              1.896              2.600
 Vibration     3          0.621              1.894              2.576
 Vibration     4          0.623              1.886              2.499
 Vibration     5          0.628              1.871              2.361
                       Q            Log10(Q)             Ln(Q)
 Total Bot       0.688897D+11         10.838154         24.955772
 Total V=0       0.379607D+12         11.579334         26.662403
 Vib (Bot)       0.915979D+01          0.961886          2.214824
 Vib (Bot)    1  0.393819D+01          0.595297          1.370721
 Vib (Bot)    2  0.129897D+01          0.113600          0.261575
 Vib (Bot)    3  0.128235D+01          0.108008          0.248697
 Vib (Bot)    4  0.122861D+01          0.089416          0.205887
 Vib (Bot)    5  0.113649D+01          0.055565          0.127944
 Vib (V=0)       0.504738D+02          1.703066          3.921454
 Vib (V=0)    1  0.446980D+01          0.650288          1.497345
 Vib (V=0)    2  0.189188D+01          0.276894          0.637572
 Vib (V=0)    3  0.187638D+01          0.273321          0.629346
 Vib (V=0)    4  0.182646D+01          0.261610          0.602379
 Vib (V=0)    5  0.174162D+01          0.240952          0.554813
 Electronic      0.100000D+01          0.000000          0.000000
 Translational   0.779430D+07          6.891777         15.868904
 Rotational      0.964920D+03          2.984491          6.872045
                           ----------------------------
                           ! Normal Mode     1        !
 --------------------------                            --------------------------
 ! Name  Definition              Value          Relative Weight (%)             !
 --------------------------------------------------------------------------------
 ! D1    D(2,1,3,4)              0.8951                100.0                    !
 --------------------------------------------------------------------------------
                           ----------------------------
                           ! Normal Mode     2        !
 --------------------------                            --------------------------
 ! Name  Definition              Value          Relative Weight (%)             !
 --------------------------------------------------------------------------------
 ! R2    R(1,3)                  0.9404                 90.9                    !
 --------------------------------------------------------------------------------
                           ----------------------------
                           ! Normal Mode     3        !
 --------------------------                            --------------------------
 ! Name  Definition              Value          Relative Weight (%)             !
 --------------------------------------------------------------------------------
 ! R1    R(1,2)                  0.6991                 43.1                    !
 ! R3    R(3,4)                 -0.6991                 43.1                    !
 ! A1    A(2,1,3)                0.1123                  6.9                    !
 ! A2    A(1,3,4)               -0.1123                  6.9                    !
 --------------------------------------------------------------------------------
                           ----------------------------
                           ! Normal Mode     4        !
 --------------------------                            --------------------------
 ! Name  Definition              Value          Relative Weight (%)             !
 --------------------------------------------------------------------------------
 ! R1    R(1,2)                  0.7503                 48.6                    !
 ! R3    R(3,4)                  0.7503                 48.6                    !
 --------------------------------------------------------------------------------
                           ----------------------------
                           ! Normal Mode     5        !
 --------------------------                            --------------------------
 ! Name  Definition              Value          Relative Weight (%)             !
 --------------------------------------------------------------------------------
 ! R2    R(1,3)                 -0.0968                 10.1                    !
 ! A1    A(2,1,3)                0.4147                 43.1                    !
 ! A2    A(1,3,4)                0.4147                 43.1                    !
 --------------------------------------------------------------------------------
                           ----------------------------
                           ! Normal Mode     6        !
 --------------------------                            --------------------------
 ! Name  Definition              Value          Relative Weight (%)             !
 --------------------------------------------------------------------------------
 ! R1    R(1,2)                 -0.2634                 18.2                    !
 ! R3    R(3,4)                  0.2634                 18.2                    !
 ! A1    A(2,1,3)                0.459                  31.8                    !
 ! A2    A(1,3,4)               -0.459                  31.8                    !
 --------------------------------------------------------------------------------
 Max01P=      5 Av01P=    3.67 Stan. Dev.=    1.51
 Max05P=      4 Av05P=    2.50 Stan. Dev.=    1.38
 Max10P=      4 Av10P=    2.17 Stan. Dev.=    1.17
 MaxNDP=      6 AvNDP=    2.83 Stan. Dev.=    1.94
 -------------------------------------------------------------------
 Center     Atomic                   Forces (Hartrees/Bohr)
 Number     Number              X              Y              Z
 -------------------------------------------------------------------
      1        8          -0.000000000   -0.000000005    0.000000172
      2        1          -0.000000000   -0.000000035   -0.000000172
      3        8          -0.000000000    0.000000005    0.000000172
      4        1          -0.000000000    0.000000035   -0.000000172
 -------------------------------------------------------------------
 Cartesian Forces:  Max     0.000000172 RMS     0.000000101
 Force constants in Cartesian coordinates: 
                1             2             3             4             5 
      1 -0.848423D-02
      2  0.000000D+00  0.184991D-02
      3  0.000000D+00 -0.630711D-03  0.207371D-02
      4  0.628534D-02  0.000000D+00  0.000000D+00 -0.465633D-02
      5  0.000000D+00 -0.957406D-03  0.630711D-03  0.000000D+00  0.957406D-03
      6  0.000000D+00  0.178157D-04 -0.106571D-02  0.000000D+00 -0.178157D-04
      7  0.848433D-02  0.000000D+00  0.000000D+00 -0.628544D-02  0.000000D+00
      8  0.000000D+00 -0.892508D-03 -0.612896D-03  0.000000D+00  0.000000D+00
      9  0.000000D+00  0.612896D-03 -0.117631D-02  0.000000D+00 -0.612896D-03
     10 -0.628544D-02  0.000000D+00  0.000000D+00  0.465643D-02  0.000000D+00
     11  0.000000D+00  0.000000D+00  0.612896D-03  0.000000D+00  0.000000D+00
     12  0.000000D+00  0.000000D+00  0.168309D-03  0.000000D+00  0.000000D+00
                6             7             8             9            10 
      6  0.897398D-03
      7  0.000000D+00 -0.848423D-02
      8  0.000000D+00  0.000000D+00  0.184991D-02
      9  0.168309D-03  0.000000D+00  0.630711D-03  0.207371D-02
     10  0.000000D+00  0.628534D-02  0.000000D+00  0.000000D+00 -0.465633D-02
     11  0.000000D+00  0.000000D+00 -0.957406D-03 -0.630711D-03  0.000000D+00
     12  0.000000D+00  0.000000D+00 -0.178157D-04 -0.106571D-02  0.000000D+00
               11            12 
     11  0.957406D-03
     12  0.178157D-04  0.897398D-03
 FormGI is forming the generalized inverse of G from B-inverse, IUseBI=4.
 Force constants in internal coordinates: 
                1             2             3             4             5 
      1  0.892508D-03
      2  0.000000D+00  0.892508D-03
      3  0.000000D+00  0.000000D+00  0.892508D-03
      4  0.000000D+00  0.000000D+00  0.000000D+00  0.318720D-02
      5  0.000000D+00  0.000000D+00  0.000000D+00  0.000000D+00  0.318720D-02
      6  0.000000D+00  0.000000D+00  0.000000D+00  0.000000D+00  0.000000D+00
                6 
      6 -0.143424D-01
 Leave Link  716 at Wed Nov 22 16:44:46 2023, MaxMem=   134217728 cpu:               0.0 elap:               0.1
 (Enter /home/emanuele/chem_software/gaussian//gdv/l103.exe)

 GradGradGradGradGradGradGradGradGradGradGradGradGradGradGradGradGradGrad
 Berny optimization.
 Internal  Forces:  Max     0.000000176 RMS     0.000000103
 Search for a local minimum.
 Step number   1 out of a maximum of    2
 All quantities printed in internal units (Hartrees-Bohrs-Radians)
 Second derivative matrix not updated -- analytic derivatives used.
 The second derivative matrix:
                          R1        R2        R3        A1        A2
           R1           0.00089
           R2           0.00000   0.00089
           R3          -0.00000   0.00000   0.00089
           A1           0.00000   0.00000  -0.00000   0.00319
           A2          -0.00000   0.00000   0.00000  -0.00000   0.00319
           D1          -0.00000  -0.00000  -0.00000  -0.00000  -0.00000
                          D1
           D1          -0.01434
 ITU=  0
     Eigenvalues ---   -0.01434   0.00089   0.00089   0.00089   0.00319
     Eigenvalues ---    0.00319
 Eigenvalue     1 is  -1.43D-02 should be greater than     0.000000 Eigenvector:
                          D1        A1        A2        R3        R2
   1                   -1.00000  -0.00000   0.00000  -0.00000   0.00000
                          R1
   1                    0.00000
 Angle between quadratic step and forces=   4.78 degrees.
 Linear search not attempted -- first point.
 Iteration  1 RMS(Cart)=  0.00008776 RMS(Int)=  0.00000000
 Iteration  2 RMS(Cart)=  0.00000000 RMS(Int)=  0.00000000
 ITry= 1 IFail=0 DXMaxC= 9.64D-05 DCOld= 1.00D+10 DXMaxT= 3.00D-01 DXLimC= 3.00D+00 Rises=F
 Variable       Old X    -DE/DX   Delta X   Delta X   Delta X     New X
                                 (Linear)    (Quad)   (Total)
    R1        1.82000  -0.00000   0.00000  -0.00020  -0.00020   1.81981
    R2        2.75527  -0.00000   0.00000  -0.00005  -0.00005   2.75522
    R3        1.82000  -0.00000   0.00000  -0.00020  -0.00020   1.81981
    A1        1.83880   0.00000   0.00000   0.00001   0.00001   1.83881
    A2        1.83880   0.00000   0.00000   0.00001   0.00001   1.83881
    D1        0.00000  -0.00000   0.00000   0.00000   0.00000   0.00000
         Item               Value     Threshold  Converged?
 Maximum Force            0.000000     0.000450     YES
 RMS     Force            0.000000     0.000300     YES
 Maximum Displacement     0.000096     0.001800     YES
 RMS     Displacement     0.000088     0.001200     YES
 Predicted change in Energy=-3.557054D-11
 Optimization completed.
    -- Stationary point found.
                           ----------------------------
                           !   Optimized Parameters   !
                           ! (Angstroms and Degrees)  !
 --------------------------                            --------------------------
 ! Name  Definition              Value          Derivative Info.                !
 --------------------------------------------------------------------------------
 ! R1    R(1,2)                  0.9631         -DE/DX =    0.0                 !
 ! R2    R(1,3)                  1.458          -DE/DX =    0.0                 !
 ! R3    R(3,4)                  0.9631         -DE/DX =    0.0                 !
 ! A1    A(2,1,3)              105.3556         -DE/DX =    0.0                 !
 ! A2    A(1,3,4)              105.3556         -DE/DX =    0.0                 !
 ! D1    D(2,1,3,4)              0.0            -DE/DX =    0.0                 !
 --------------------------------------------------------------------------------
 GradGradGradGradGradGradGradGradGradGradGradGradGradGradGradGradGradGrad

 Leave Link  103 at Wed Nov 22 16:44:46 2023, MaxMem=   134217728 cpu:               0.0 elap:               0.0
 (Enter /home/emanuele/chem_software/gaussian//gdv/l9999.exe)
 Unable to Open any file for archive entry.
 1\1\GINC-EMANUELE-XPS-13-9343\Freq\AMBER\ZDO\H2O2\EMANUELE\22-Nov-2023
 \0\\#p Amber=(SoftOnly,Print) nosymm Freq=intmodes\\Title\\0,1\O,0.,0.
 729012,-0.103191\H,0.,0.984051,0.825531\O,0.,-0.729012,-0.103191\H,0.,
 -0.984051,0.825531\\Version=ES64L-GDVRevJ.14\HF=0.0031872\RMSD=0.000e+
 00\RMSF=1.005e-07\ZeroPoint=0.0016114\Thermal=0.0077534\ETot=0.0109406
 \HTot=0.0118848\GTot=-0.0203757\Dipole=0.,0.,0.\PG=C02V [SGV(H2O2)]\NI
 mag=1\\-0.00848423,0.,0.00184991,0.,-0.00063071,0.00207371,0.00628534,
 0.,0.,-0.00465633,0.,-0.00095741,0.00063071,0.,0.00095741,0.,0.0000178
 2,-0.00106571,0.,-0.00001782,0.00089740,0.00848433,0.,0.,-0.00628544,0
 .,0.,-0.00848423,0.,-0.00089251,-0.00061290,0.,0.,0.,0.,0.00184991,0.,
 0.00061290,-0.00117631,0.,-0.00061290,0.00016831,0.,0.00063071,0.00207
 371,-0.00628544,0.,0.,0.00465643,0.,0.,0.00628534,0.,0.,-0.00465633,0.
 ,0.,0.00061290,0.,0.,0.,0.,-0.00095741,-0.00063071,0.,0.00095741,0.,0.
 ,0.00016831,0.,0.,0.,0.,-0.00001782,-0.00106571,0.,0.00001782,0.000897
 40\\0.,0.,-0.00000017,0.,0.00000004,0.00000017,0.,0.,-0.00000017,0.,-0
 .00000004,0.00000017\\\@
 The archive entry for this job was punched.


 AN AIRPLANE IS A COLLECTION OF SPARE PARTS
 FLYING IN CLOSE FORMATION.
 Job cpu time:       0 days  0 hours  0 minutes  0.5 seconds.
 Elapsed time:       0 days  0 hours  0 minutes  0.7 seconds.
 File lengths (MBytes):  RWF=      6 Int=      0 D2E=      0 Chk=      1 Scr=      1
 Normal termination of Gaussian DV at Wed Nov 22 16:44:46 2023.
