Title                                                                   
Freq      RAMBER                                                      ZDO                 
Number of atoms                            I                4
Info1-9                                    I   N=           9
          21          21           0           0           0         100
           6           8        1101
Full Title                                 C   N=           1
Title       
Route                                      C   N=           4
#p Amber=(SoftOnly,Print) nosymm Freq=intmodes  
Charge                                     I                0
Multiplicity                               I                1
Number of electrons                        I                6
Number of alpha electrons                  I                3
Number of beta electrons                   I                3
Number of basis functions                  I                0
Number of independent functions            I                0
Number of point charges in /Mol/           I                0
Number of translation vectors              I                0
Atomic numbers                             I   N=           4
           8           1           8           1
Nuclear charges                            R   N=           4
  2.00000000E+00  1.00000000E+00  2.00000000E+00  1.00000000E+00
Current cartesian coordinates              R   N=          12
  0.00000000E+00  1.37763302E+00 -1.95002729E-01  0.00000000E+00  1.85958688E+00
  1.56002750E+00  0.00000000E+00 -1.37763302E+00 -1.95002729E-01  0.00000000E+00
 -1.85958688E+00  1.56002750E+00
Number of symbols in /Mol/                 I                0
Redundant internal dimensions              I   N=           4
           6           3           2           1
Redundant internal coordinate indices      I   N=          24
           1           2           0           0           1           3
           0           0           3           4           0           0
           2           1           3           0           1           3
           4           0           2           1           3           4
Redundant internal coordinates             R   N=           6
  1.82000292E+00  2.75526604E+00  1.82000292E+00  1.83880258E+00  1.83880258E+00
  0.00000000E+00
ZRed-IntVec                                I   N=           6
           0           0           0           0           0           0
ZRed-FPVec                                 R   N=           6
  0.00000000E+00  0.00000000E+00  0.00000000E+00  0.00000000E+00  0.00000000E+00
  0.00000000E+00
ZRed-Constraint1                           R   N=           6
  1.82000292E+00  2.75526604E+00  1.82000292E+00  1.83880258E+00  1.83880258E+00
  0.00000000E+00
ZRed-Constraint2                           R   N=           6
  0.00000000E+00  0.00000000E+00  0.00000000E+00  0.00000000E+00  0.00000000E+00
  0.00000000E+00
Force Field                                I                2
Atom Types                                 C   N=           4
#200OW      #200HW      #200OW      #200HW      
Int Atom Types                             I   N=           4
    20001021    20001030    20001021    20001030
MM charges                                 R   N=           4
  7.90505033-323  4.94065646-324  7.90505033-323  4.94065646-324
Integer atomic weights                     I   N=           4
           0           0           0           0
Real atomic weights                        R   N=           4
  0.00000000E+00  0.00000000E+00  0.00000000E+00  0.00000000E+00
Atom fragment info                         I   N=           4
           0           0           0           0
Atom residue num                           I   N=           4
           0           0           0           0
Nuclear spins                              I   N=           4
           0           0           0           0
Nuclear ZEff                               R   N=           4
  0.00000000E+00  0.00000000E+00  0.00000000E+00  0.00000000E+00
Nuclear ZNuc                               R   N=           4
  0.00000000E+00  0.00000000E+00  0.00000000E+00  0.00000000E+00
Nuclear QMom                               R   N=           4
  0.00000000E+00  0.00000000E+00  0.00000000E+00  0.00000000E+00
Nuclear GFac                               R   N=           4
  0.00000000E+00  0.00000000E+00  0.00000000E+00  0.00000000E+00
MicOpt                                     I   N=           4
           0           0           0           0
Number of residues                         I                0
Number of secondary structures             I                0
Number of contracted shells                I                4
Number of primitive shells                 I                4
Pure/Cartesian d shells                    I                0
Pure/Cartesian f shells                    I                0
Highest angular momentum                   I                0
Largest degree of contraction              I                1
Shell types                                I   N=           4
           0           0           0           0
Number of primitives per shell             I   N=           4
           1           1           1           1
Shell to atom map                          I   N=           4
           1           2           3           4
Primitive exponents                        R   N=           4
  1.00000000E+00  1.00000000E+00  1.00000000E+00  1.00000000E+00
Contraction coefficients                   R   N=           4
  1.00000000E+00  1.00000000E+00  1.00000000E+00  1.00000000E+00
Coordinates of each shell                  R   N=          12
  0.00000000E+00  1.37763302E+00 -1.95002729E-01  0.00000000E+00  1.85958688E+00
  1.56002750E+00  0.00000000E+00 -1.37763302E+00 -1.95002729E-01  0.00000000E+00
 -1.85958688E+00  1.56002750E+00
Constraint Structure                       R   N=          12
  0.00000000E+00  1.37763302E+00 -1.95002729E-01  0.00000000E+00  1.85958688E+00
  1.56002750E+00  0.00000000E+00 -1.37763302E+00 -1.95002729E-01  0.00000000E+00
 -1.85958688E+00  1.56002750E+00
Num ILSW                                   I              100
ILSW                                       I   N=         100
           0           0           0           0           0           0
           0           0           0           0           0          -1
           5           0           0           0           2           0
           0           0           0           0           1           0
           1           1           0           0           0           0
           0           0      100000           0          -1           0
           0           0           0           0           0           0
           0           0           0         101           0           0
           0 -2000000000           1           0           0           0
           0           0           4          41           0           0
           0           0           0           0           0           0
           0           0           0           4           0           1
           0           0           0           0           0           0
           0           0           0           0           0           0
           0           0           0           0           0           0
           0           0           0           0           0           0
           0           0           0           0
Num RLSW                                   I               41
RLSW                                       R   N=          41
  1.00000000E+00  1.00000000E+00  1.00000000E+00  1.00000000E+00  1.00000000E+00
  0.00000000E+00  0.00000000E+00  1.00000000E+00  0.00000000E+00  0.00000000E+00
  0.00000000E+00  0.00000000E+00  1.00000000E+00  0.00000000E+00  0.00000000E+00
  0.00000000E+00  0.00000000E+00  1.00000000E+00  0.00000000E+00  0.00000000E+00
  0.00000000E+00  0.00000000E+00  1.00000000E+00  0.00000000E+00  0.00000000E+00
  0.00000000E+00  0.00000000E+00  1.00000000E+00  0.00000000E+00  0.00000000E+00
  0.00000000E+00  0.00000000E+00  1.00000000E+00  0.00000000E+00  0.00000000E+00
  0.00000000E+00  0.00000000E+00  0.00000000E+00  1.00000000E+00  1.00000000E+00
  0.00000000E+00
MxBond                                     I                2
NBond                                      I   N=           4
           2           1           2           1
IBond                                      I   N=           8
           2           3           1           0           1           4
           3           0
RBond                                      R   N=           8
  1.00000000E+00  1.00000000E+00  1.00000000E+00  0.00000000E+00  1.00000000E+00
  1.00000000E+00  1.00000000E+00  0.00000000E+00
Virial Ratio                               R      0.000000000000000E+00
SCF Energy                                 R      6.898713927633130E-03
Total Energy                               R      6.898713927633130E-03
RMS Force                                  R      7.572617858572653E-04
External E-field                           R   N=         105
  0.00000000E+00  0.00000000E+00  0.00000000E+00  0.00000000E+00  0.00000000E+00
  0.00000000E+00  0.00000000E+00  0.00000000E+00  0.00000000E+00  0.00000000E+00
  0.00000000E+00  0.00000000E+00  0.00000000E+00  0.00000000E+00  0.00000000E+00
  0.00000000E+00  0.00000000E+00  0.00000000E+00  0.00000000E+00  0.00000000E+00
  0.00000000E+00  0.00000000E+00  0.00000000E+00  0.00000000E+00  0.00000000E+00
  0.00000000E+00  0.00000000E+00  0.00000000E+00  0.00000000E+00  0.00000000E+00
  0.00000000E+00  0.00000000E+00  0.00000000E+00  0.00000000E+00  0.00000000E+00
  0.00000000E+00  0.00000000E+00  0.00000000E+00  0.00000000E+00  0.00000000E+00
  0.00000000E+00  0.00000000E+00  0.00000000E+00  0.00000000E+00  0.00000000E+00
  0.00000000E+00  0.00000000E+00  0.00000000E+00  0.00000000E+00  0.00000000E+00
  0.00000000E+00  0.00000000E+00  0.00000000E+00  0.00000000E+00  0.00000000E+00
  0.00000000E+00  0.00000000E+00  0.00000000E+00  0.00000000E+00  0.00000000E+00
  0.00000000E+00  0.00000000E+00  0.00000000E+00  0.00000000E+00  0.00000000E+00
  0.00000000E+00  0.00000000E+00  0.00000000E+00  0.00000000E+00  0.00000000E+00
  0.00000000E+00  0.00000000E+00  0.00000000E+00  0.00000000E+00  0.00000000E+00
  0.00000000E+00  0.00000000E+00  0.00000000E+00  0.00000000E+00  0.00000000E+00
  0.00000000E+00  0.00000000E+00  0.00000000E+00  0.00000000E+00  0.00000000E+00
  0.00000000E+00  0.00000000E+00  0.00000000E+00  0.00000000E+00  0.00000000E+00
  0.00000000E+00  0.00000000E+00  0.00000000E+00  0.00000000E+00  0.00000000E+00
  0.00000000E+00  0.00000000E+00  0.00000000E+00  0.00000000E+00  0.00000000E+00
  0.00000000E+00  0.00000000E+00  0.00000000E+00  0.00000000E+00  0.00000000E+00
IOpCl                                      I                0
IROHF                                      I                0
Grdnt Energy                               R      6.898713927633130E-03
Grdnt NVar                                 I                6
Grdnt IGetFC                               I                4
Internal Forces                            R   N=           6
  4.91196254E-04  1.85490498E-03  4.91196254E-04  3.25541430E-03  3.25541430E-03
  8.18797227E-20
Internal Force Constants                   R   N=          21
 -3.93819953E-04  2.64142675E-04  9.97482287E-04  5.33714874E-04  2.64142675E-04
 -3.93819953E-04 -1.09331874E-03  1.75061156E-03  2.31789190E-04  3.85050747E-03
  2.31789190E-04  1.75061156E-03 -1.09331874E-03  3.18822356E-03  3.85050747E-03
 -3.34712594E-20  3.42728270E-20 -1.21141961E-19  2.63649462E-20 -4.66020666E-20
 -1.53618810E-03
Optimization MaxStp                        I                2
Optimization Job offset                    I                0
Optimization Num results per geometry      I                2
Optimization Num geometry variables        I               12
Opt point       1 Results for each geome   R   N=           2
  6.89871393E-03  0.00000000E+00
Opt point       1 Geometries               R   N=          12
  0.00000000E+00  1.37763302E+00 -1.95002729E-01  0.00000000E+00  1.85958688E+00
  1.56002750E+00  0.00000000E+00 -1.37763302E+00 -1.95002729E-01  0.00000000E+00
 -1.85958688E+00  1.56002750E+00
Opt point       1 Gradient at each geome   R   N=          12
  0.00000000E+00  1.06381917E-15 -2.16840434E-19  0.00000000E+00 -1.85490498E-03
  2.16840434E-19  0.00000000E+00  1.68788594E-15  0.00000000E+00  0.00000000E+00
  1.85490498E-03  0.00000000E+00
Optimization Number of geometries          I   N=           1
           1
MMPar NCPar                                I   N=          16
          -1          20           4         303           4           3
          10           6          18           6           4          95
           6           7           0           7
MMPar IPrt                                 I   N=          18
           1           1           6           6           6           3
           6           3           0           0           0           0
           0           0           0           0           0           0
MMPar ICnvrt                               I   N=           6
           0           0           0           0           0           0
MMPar ICntr                                I   N=           4
           0           0           0           0
MMPar IList                                I   N=          97
           5           0           0           0           0           0
           0           0           0           0           0           0
           0           0           0           0           0           0
           0           0           0           0           0           0
           0           0           0           0           0           0
           0           0           0           0           0           0
           0           0           0           0           0           0
           0           0           0           0           0           0
           0           0           0           0           0           0
           0           0           0           0           0           0
           0           0           0           0           0           0
           0           0           0           0           0           0
           0           0           0           0           0           0
           0           0           0           0           0           0
           0           0           0           0           0           0
           0           0           0           0           0           7
           0
MMPar AtL                                  L   N=           4
TTTT
MMPar ChL                                  L   N=           4
FFFF
MMPar Q                                    R   N=           4
 -1.75468000E-01  1.75468000E-01 -1.75468000E-01  1.75468000E-01
MMPar IAType                               I   N=           8
          21          30          21          30           0           0
           0           0
MMPar IAtTpT                               I   N=           3
           0    20001021    20001030
MMPar IUserT                               I   N=           3
           0           0           0
MMPar SymbT                                H   N=           3
*       OW      HW      
MMPar StepD                                I   N=          95
           0           0           0           0           0           0
           0           0           0           0           0           0
           0           0           0           0           0           0
           0           0           0           0           0           0
           0           0           0           0           0           0
           0           0           0           0           0           0
           0           0           0           0           0           0
           0           0           0           0           0           0
           0           0           0           0           0           0
           0           0           0           0           0           0
           0           0           0           0           0           0
           0           0           0           0           0           0
           0           0           0           0           0           0
           0           0           0           0           0           0
           0           0           0           0           0           0
           0           0           0           0           0
MMPar ICorL                                I   N=         200
           3           1           0           0           0           0
           0           0           0           6    20001021    20001030
           0           0           0           0           0           0
           0          10    20001021    20001021           0           0
           0           0           0           0           0          10
    20001030    20001021    20001021           0           0           0
           0           0           0          20    20001030    20001021
    20001021    20001030           0           0           0           0
           0          30    20001021           0           0           0
           0           0           0           0           0           1
    20001030           0           0           0           0           0
           0           0           0           1           3           1
           0           0           0           0           0           0
           0           2           1           2           0           0
           0           0           0           0           0          10
           1           3           0           0           0           0
           0           0           0          10           3           4
           0           0           0           0           0           0
           0          10           4           3           1           0
           0           0           0           0           0          20
           2           1           3           0           0           0
           0           0           0          20           2           1
           3           4           0           0           0           0
           0          30           2           1           3           1
           0           0           0           0           0           3
           3           2           3           1           0           0
           0           0           0           3           3           1
           3           1           0           0           0           0
           0           3           4           2           3           1
           0           0           0           0           0           3
           4           1           3           1           0           0
           0           0           0           3           4           3
           3           1           0           0           0           0
           0           3
MMPar RCorL                                R   N=         120
  0.00000000E+00  0.00000000E+00  5.00000000E-01  0.00000000E+00  0.00000000E+00
 -1.20000000E+00  0.00000000E+00  9.63000000E-01  0.00000000E+00  0.00000000E+00
  0.00000000E+00  0.00000000E+00  0.00000000E+00  1.45800000E+00  0.00000000E+00
  0.00000000E+00  0.00000000E+00  0.00000000E+00  0.00000000E+00  1.00000000E+00
  0.00000000E+00  0.00000000E+00  0.00000000E+00  0.00000000E+00  0.00000000E+00
  0.00000000E+00  0.00000000E+00  0.00000000E+00  1.00000000E+00  0.00000000E+00
  1.76830000E+00  1.52000000E-01  0.00000000E+00  0.00000000E+00  0.00000000E+00
  0.00000000E+00  0.00000000E+00  0.00000000E+00  0.00000000E+00  0.00000000E+00
  0.00000000E+00  0.00000000E+00  0.00000000E+00  0.00000000E+00  0.00000000E+00
  0.00000000E+00  0.00000000E+00  0.00000000E+00  0.00000000E+00  1.81980626E+00
  0.00000000E+00  0.00000000E+00  0.00000000E+00  0.00000000E+00  0.00000000E+00
  2.75522069E+00  0.00000000E+00  0.00000000E+00  0.00000000E+00  0.00000000E+00
  0.00000000E+00  1.81980626E+00  0.00000000E+00  0.00000000E+00  0.00000000E+00
  0.00000000E+00  0.00000000E+00  1.74532925E-02  0.00000000E+00  0.00000000E+00
  0.00000000E+00  0.00000000E+00  0.00000000E+00  1.74532925E-02  0.00000000E+00
  0.00000000E+00  0.00000000E+00  0.00000000E+00  0.00000000E+00  0.00000000E+00
  0.00000000E+00  0.00000000E+00  1.00000000E+00  0.00000000E+00 -1.00000000E+00
 -1.00000000E+00  0.00000000E+00  0.00000000E+00  0.00000000E+00  0.00000000E+00
 -1.00000000E+00 -1.00000000E+00  0.00000000E+00  0.00000000E+00  0.00000000E+00
  0.00000000E+00 -1.00000000E+00 -1.00000000E+00  0.00000000E+00  0.00000000E+00
  0.00000000E+00  0.00000000E+00 -5.00000000E-01 -1.66666667E-01  0.00000000E+00
  0.00000000E+00  0.00000000E+00  0.00000000E+00 -1.00000000E+00 -1.00000000E+00
  0.00000000E+00  0.00000000E+00  0.00000000E+00  0.00000000E+00 -1.00000000E+00
 -1.00000000E+00  0.00000000E+00  0.00000000E+00  0.00000000E+00  0.00000000E+00
MMPar Table                                R   N=          28
  0.00000000E+00  0.00000000E+00  0.00000000E+00  0.00000000E+00  0.00000000E+00
  0.00000000E+00  0.00000000E+00  0.00000000E+00  0.00000000E+00  0.00000000E+00
  0.00000000E+00  0.00000000E+00  0.00000000E+00  0.00000000E+00  0.00000000E+00
  0.00000000E+00  0.00000000E+00  0.00000000E+00  0.00000000E+00  0.00000000E+00
  3.34160271E+00  0.00000000E+00  3.34160271E+00  0.00000000E+00  2.42227418E-04
  0.00000000E+00  2.42227418E-04  0.00000000E+00
ONIOM Charges                              I   N=          16
           0           0           0           0           0           0
           0           0           0           0           0           0
           0           0           0           0
ONIOM Multiplicities                       I   N=          16
           1           0           0           0           0           0
           0           0           0           0           0           0
           0           0           0           0
Atom Layers                                I   N=           4
           1           1           1           1
Atom Modifiers                             I   N=           4
           0           0           0           0
Force Field                                I                0
Atom Modified Types                        C   N=           4
                                                
Int Atom Modified Types                    I   N=           4
           0           0           0           0
Link Atoms                                 I   N=           4
           0           0           0           0
Atom Modified MM Charges                   R   N=           4
  0.00000000E+00  0.00000000E+00  0.00000000E+00  0.00000000E+00
Link Distances                             R   N=          16
  0.00000000E+00  0.00000000E+00  0.00000000E+00  0.00000000E+00  0.00000000E+00
  0.00000000E+00  0.00000000E+00  0.00000000E+00  0.00000000E+00  0.00000000E+00
  0.00000000E+00  0.00000000E+00  0.00000000E+00  0.00000000E+00  0.00000000E+00
  0.00000000E+00
Cartesian Gradient                         R   N=          12
  0.00000000E+00  1.06381917E-15 -2.16840434E-19  0.00000000E+00 -1.85490498E-03
  2.16840434E-19  0.00000000E+00  1.68788594E-15  0.00000000E+00  0.00000000E+00
  1.85490498E-03  0.00000000E+00
Cartesian Force Constants                  R   N=          78
 -2.94902991E-16  0.00000000E+00 -5.08733680E-14  0.00000000E+00 -3.25260652E-19
 -3.46023123E-16  0.00000000E+00  0.00000000E+00  0.00000000E+00 -4.98741144E-04
  0.00000000E+00  0.00000000E+00  0.00000000E+00  0.00000000E+00  9.97482287E-04
  0.00000000E+00  0.00000000E+00  0.00000000E+00  0.00000000E+00 -1.08420217E-19
 -4.98741144E-04  0.00000000E+00  0.00000000E+00  0.00000000E+00  0.00000000E+00
  0.00000000E+00  0.00000000E+00  1.17093835E-16  0.00000000E+00  0.00000000E+00
  0.00000000E+00  0.00000000E+00  0.00000000E+00  0.00000000E+00  0.00000000E+00
  1.09579229E-14  0.00000000E+00  0.00000000E+00  0.00000000E+00  0.00000000E+00
  0.00000000E+00  0.00000000E+00  0.00000000E+00  0.00000000E+00 -4.16333634E-16
  0.00000000E+00  0.00000000E+00  0.00000000E+00  4.98741144E-04  0.00000000E+00
  0.00000000E+00  0.00000000E+00  0.00000000E+00  0.00000000E+00 -4.98741144E-04
  0.00000000E+00  0.00000000E+00  0.00000000E+00  0.00000000E+00 -9.97482287E-04
  0.00000000E+00  0.00000000E+00  0.00000000E+00  0.00000000E+00  0.00000000E+00
  9.97482287E-04  0.00000000E+00  0.00000000E+00  0.00000000E+00  0.00000000E+00
  0.00000000E+00  4.98741144E-04  0.00000000E+00  0.00000000E+00  0.00000000E+00
  0.00000000E+00  0.00000000E+00 -4.98741144E-04
Dipole Moment                              R   N=           3
  0.00000000E+00  0.00000000E+00  6.15903287E-01
Dipole Derivatives                         R   N=          36
 -1.75468000E-01  0.00000000E+00  0.00000000E+00  0.00000000E+00 -1.75468000E-01
  0.00000000E+00  0.00000000E+00  0.00000000E+00 -1.75468000E-01  1.75468000E-01
  0.00000000E+00  0.00000000E+00  0.00000000E+00  1.75468000E-01  0.00000000E+00
  0.00000000E+00  0.00000000E+00  1.75468000E-01 -1.75468000E-01  0.00000000E+00
  0.00000000E+00  0.00000000E+00 -1.75468000E-01  0.00000000E+00  0.00000000E+00
  0.00000000E+00 -1.75468000E-01  1.75468000E-01  0.00000000E+00  0.00000000E+00
  0.00000000E+00  1.75468000E-01  0.00000000E+00  0.00000000E+00  0.00000000E+00
  1.75468000E-01
Number of Normal Modes                     I                6
Vib-NDFDPol                                I                0
Vib-NumROA                                 I                0
Vib-NDim                                   I                4
Vib-NDim0                                  I                4
Vib-AtMass                                 R   N=           4
  1.59949146E+01  1.00782504E+00  1.59949146E+01  1.00782504E+00
Vib-E2                                     R   N=          84
  0.00000000E+00  0.00000000E+00  4.94065646-324  0.00000000E+00  0.00000000E+00
  0.00000000E+00  0.00000000E+00  0.00000000E+00  0.00000000E+00  0.00000000E+00
  9.88131292-324  0.00000000E+00  0.00000000E+00  0.00000000E+00  0.00000000E+00
  0.00000000E+00  0.00000000E+00  0.00000000E+00  1.48219694-323  0.00000000E+00
  0.00000000E+00  0.00000000E+00  0.00000000E+00  0.00000000E+00  0.00000000E+00
  0.00000000E+00  1.97626258-323  0.00000000E+00  0.00000000E+00  0.00000000E+00
  0.00000000E+00  0.00000000E+00  0.00000000E+00  0.00000000E+00  2.47032823-323
  0.00000000E+00  0.00000000E+00  0.00000000E+00  0.00000000E+00  0.00000000E+00
  0.00000000E+00  0.00000000E+00  2.96439388-323  0.00000000E+00  0.00000000E+00
  0.00000000E+00  0.00000000E+00  0.00000000E+00 -1.53863573E+02 -1.53166723E+02
 -1.92247141E-04 -7.66983084E-06  4.70532487E-05  2.28706917E+02  1.09724669E+00
  1.11546146E+00  6.93308248E+00  1.06709192E+00  1.28425759E+00  1.00782504E+00
  1.53047453E-02  1.54181979E-02  1.50971979E-13  3.69848281E-17  1.67525749E-15
  3.10594631E-02  5.26782046E-01  0.00000000E+00  5.91593506E+00  6.33181749E+01
  5.18458121E+01  1.27515467E-29  0.00000000E+00  0.00000000E+00  0.00000000E+00
  0.00000000E+00  0.00000000E+00  0.00000000E+00  0.00000000E+00  0.00000000E+00
  0.00000000E+00  0.00000000E+00  0.00000000E+00  0.00000000E+00
Vib-Modes                                  R   N=          72
  0.00000000E+00  0.00000000E+00  0.00000000E+00  0.00000000E+00  0.00000000E+00
  0.00000000E+00  0.00000000E+00  0.00000000E+00  0.00000000E+00  0.00000000E+00
  0.00000000E+00  0.00000000E+00  0.00000000E+00  0.00000000E+00  0.00000000E+00
  0.00000000E+00  0.00000000E+00  0.00000000E+00  1.00000000E+02  1.00000000E+02
  1.00000000E+02  1.00000000E+02  1.00000000E+02  1.00000000E+02  0.00000000E+00
  0.00000000E+00  0.00000000E+00  0.00000000E+00  0.00000000E+00  0.00000000E+00
  0.00000000E+00  0.00000000E+00  0.00000000E+00  0.00000000E+00  0.00000000E+00
  0.00000000E+00  0.00000000E+00  0.00000000E+00  0.00000000E+00  0.00000000E+00
  0.00000000E+00  0.00000000E+00  0.00000000E+00  0.00000000E+00  0.00000000E+00
  0.00000000E+00  0.00000000E+00  0.00000000E+00  0.00000000E+00 -4.11273108E-03
 -5.44644371E-02  0.00000000E+00  6.52720266E-02  7.01966006E-01  0.00000000E+00
 -4.11273108E-03  5.44644371E-02  0.00000000E+00  6.52720266E-02 -7.01966006E-01
 -5.99247157E-02  0.00000000E+00  0.00000000E+00  7.04563005E-01  0.00000000E+00
  0.00000000E+00  5.99247157E-02  0.00000000E+00  0.00000000E+00 -7.04563005E-01
  0.00000000E+00  0.00000000E+00
