 Entering Gaussian System, Link 0=/home/emanuele/chem_software/gaussian//g09/g09
 Input=GauNonBon.gjf
 Output=GauNonBon.log
 Initial command:
 /home/emanuele/chem_software/gaussian//gdv/l1.exe "/home/emanuele/chem_software/gaussian/scratch/Gau-7266.inp" -scrdir="/home/emanuele/chem_software/gaussian/scratch/"
 Entering Link 1 = /home/emanuele/chem_software/gaussian//gdv/l1.exe PID=      7268.
  
 Copyright (c) 1988-2020, Gaussian, Inc.  All Rights Reserved.
  
 This is the private, development version of
 the Gaussian(R) DV system of programs. It is based on
 the Gaussian(R) 16 system (copyright 2016, Gaussian, Inc.),
 the Gaussian(R) 09 system (copyright 2009, Gaussian, Inc.),
 the Gaussian(R) 03 system (copyright 2003, Gaussian, Inc.),
 the Gaussian(R) 98 system (copyright 1998, Gaussian, Inc.),
 the Gaussian(R) 94 system (copyright 1995, Gaussian, Inc.),
 the Gaussian 92(TM) system (copyright 1992, Gaussian, Inc.),
 the Gaussian 90(TM) system (copyright 1990, Gaussian, Inc.),
 the Gaussian 88(TM) system (copyright 1988, Gaussian, Inc.),
 the Gaussian 86(TM) system (copyright 1986, Carnegie Mellon
 University), and the Gaussian 82(TM) system (copyright 1983,
 Carnegie Mellon University). Gaussian is a federally registered
 trademark of Gaussian, Inc.
  
 This software contains proprietary and confidential information,
 including trade secrets, belonging to Gaussian, Inc.
  
 This software is provided under written license and may be
 used, copied, transmitted, or stored only in accord with that
 written license.
  
 The following legend is applicable only to US Government
 contracts under FAR:
  
                    RESTRICTED RIGHTS LEGEND
  
 Use, reproduction and disclosure by the US Government is
 subject to restrictions as set forth in subparagraphs (a)
 and (c) of the Commercial Computer Software - Restricted
 Rights clause in FAR 52.227-19.
  
 Gaussian, Inc.
 340 Quinnipiac St., Bldg. 40, Wallingford CT 06492
  
  
 ---------------------------------------------------------------
 Warning -- This program may not be used in any manner that
 competes with the business of Gaussian, Inc. or will provide
 assistance to any competitor of Gaussian, Inc.  The licensee
 of this program is prohibited from giving any competitor of
 Gaussian, Inc. access to this program.  By using this program,
 the user acknowledges that Gaussian, Inc. is engaged in the
 business of creating and licensing software in the field of
 computational chemistry and represents and warrants to the
 licensee that it is not a competitor of Gaussian, Inc. and that
 it will not use this program in any manner prohibited above.
 ---------------------------------------------------------------
  

 Cite this work as:
 Gaussian Development Version, Revision J.14,
 M. J. Frisch, G. W. Trucks, H. B. Schlegel, G. E. Scuseria, 
 M. A. Robb, J. R. Cheeseman, G. Scalmani, V. Barone, 
 G. A. Petersson, H. Nakatsuji, X. Li, A. V. Marenich, M. Caricato, 
 J. Bloino, B. G. Janesko, J. Zheng, R. Gomperts, B. Mennucci, 
 H. P. Hratchian, J. V. Ortiz, A. F. Izmaylov, J. L. Sonnenberg, 
 D. Williams-Young, F. Ding, F. Lipparini, F. Egidi, J. Goings, 
 B. Peng, A. Petrone, T. Henderson, D. Ranasinghe, V. G. Zakrzewski, 
 J. Gao, N. Rega, G. Zheng, W. Liang, M. Hada, M. Ehara, K. Toyota, 
 R. Fukuda, J. Hasegawa, M. Ishida, T. Nakajima, Y. Honda, O. Kitao, 
 H. Nakai, T. Vreven, K. Throssell, J. A. Montgomery, Jr., 
 J. E. Peralta, F. Ogliaro, M. J. Bearpark, J. J. Heyd, 
 E. N. Brothers, K. N. Kudin, V. N. Staroverov, T. A. Keith, 
 R. Kobayashi, J. Normand, K. Raghavachari, A. P. Rendell, 
 J. C. Burant, S. S. Iyengar, J. Tomasi, M. Cossi, J. M. Millam, 
 M. Klene, C. Adamo, R. Cammi, J. W. Ochterski, R. L. Martin, 
 K. Morokuma, O. Farkas, J. B. Foresman, and D. J. Fox, 
 Gaussian, Inc., Wallingford CT, 2020.
 
 ******************************************
 Gaussian DV:  ES64L-GDVRevJ.14 29-Dec-2020
                22-Nov-2023 
 ******************************************
 %mem=1GB
 %nprocshared=1
 Will use up to    1 processors via shared memory.
 %chk=GauNonBon.chk
 ----------------------------------------------
 #p Amber=(SoftOnly,Print) nosymm Freq=intmodes
 ----------------------------------------------
 1/10=4,18=20,30=1,37=210000000,38=1,56=2,64=303/1,3;
 2/9=110,12=2,15=1,40=1/2;
 3/5=30,11=9,25=1,30=1,41=10030000,43=2,71=2,140=1/1;
 4/20=11,22=2,24=3,119=11/2;
 7/8=21,25=1,30=1,44=-1/16;
 1/10=4,18=20,30=1,64=303/3;
 99//99;
 Leave Link    1 at Wed Nov 22 16:44:46 2023, MaxMem=   134217728 cpu:               0.0 elap:               0.0
 (Enter /home/emanuele/chem_software/gaussian//gdv/l101.exe)
 -----
 Title
 -----
 Symbolic Z-matrix:
 Charge =  0 Multiplicity = 1
 O-OW--0.175468        0.        0.72901  -0.10319 
 H-HW-+0.175468        0.        0.98405   0.82553 
 O-OW--0.175468        0.       -0.72901  -0.10319 
 H-HW-+0.175468        0.       -0.98405   0.82553 
 
 ITRead=  0  0  0  0
 MicOpt= -1 -1 -1 -1
 NAtoms=      4 NQM=        4 NQMF=       0 NMMI=      0 NMMIF=      0
                NMic=       0 NMicF=      0.
                    Isotopes and Nuclear Properties:
 (Nuclear quadrupole moments (NQMom) in fm**2, nuclear magnetic moments (NMagM)
  in nuclear magnetons)

  Atom         1           2           3           4
 IAtWgt=          16           1          16           1
 AtmWgt=  15.9949146   1.0078250  15.9949146   1.0078250
 NucSpn=           0           1           0           1
 AtZEff=  -0.0000000  -0.0000000  -0.0000000  -0.0000000
 NQMom=    0.0000000   0.0000000   0.0000000   0.0000000
 NMagM=    0.0000000   2.7928460   0.0000000   2.7928460
 AtZNuc=   8.0000000   1.0000000   8.0000000   1.0000000
 Generating MM parameters.
 Read MM parameter file:
 Include all MM classes

 MM sanity checks:
 All charges sum to:                0.00000000
 Charges of atoms sum to:           0.00000000
 WARNING -- The following centers have non-zero partial charges, but zero Vanderwaals
 parameters.  These centers can collapse onto other centers with non-zero charge.
   Center  Layer   Charge
      2 H    R    0.175468
      4 H    R    0.175468
 MMInit generated parameter data with length LenPar=         709.
 MM Charge=              0.0000 electrons
 MM Dipole moment (Debye):
    X=              0.0000    Y=              0.0000    Z=              1.5655  Tot=              1.5655
 MM Quadrupole moment (Debye-Ang):
   XX=              0.0000   YY=              0.7364   ZZ=              1.1308
   XY=              0.0000   XZ=              0.0000   YZ=              0.0000
 MM Traceless Quadrupole moment (Debye-Ang):
   XX=             -0.6224   YY=              0.1140   ZZ=              0.5084
   XY=              0.0000   XZ=              0.0000   YZ=              0.0000
 MM Octapole moment (Debye-Ang**2):
  XXX=              0.0000  YYY=              0.0000  ZZZ=              0.9502  XYY=              0.0000
  XXY=              0.0000  XXZ=              0.0000  XZZ=              0.0000  YZZ=              0.0000
  YYZ=              1.4399  XYZ=              0.0000
 MM Hexadecapole moment (Debye-Ang**3):
 XXXX=              0.0000 YYYY=              1.1045 ZZZZ=              0.7827 XXXY=              0.0000
 XXXZ=              0.0000 YYYX=              0.0000 YYYZ=              0.0000 ZZZX=              0.0000
 ZZZY=              0.0000 XXYY=              0.0000 XXZZ=              0.0000 YYZZ=              1.1029
 XXYZ=              0.0000 YYXZ=              0.0000 ZZXY=              0.0000
 Leave Link  101 at Wed Nov 22 16:44:46 2023, MaxMem=   134217728 cpu:               0.2 elap:               0.2
 (Enter /home/emanuele/chem_software/gaussian//gdv/l103.exe)

 GradGradGradGradGradGradGradGradGradGradGradGradGradGradGradGradGradGrad
 Berny optimization.
 Initialization pass.
                           ----------------------------
                           !    Initial Parameters    !
                           ! (Angstroms and Degrees)  !
 --------------------------                            --------------------------
 ! Name  Definition              Value          Derivative Info.                !
 --------------------------------------------------------------------------------
 ! R1    R(1,2)                  0.9631         calculate D2E/DX2 analytically  !
 ! R2    R(1,3)                  1.458          calculate D2E/DX2 analytically  !
 ! R3    R(3,4)                  0.9631         calculate D2E/DX2 analytically  !
 ! A1    A(2,1,3)              105.3556         calculate D2E/DX2 analytically  !
 ! A2    A(1,3,4)              105.3556         calculate D2E/DX2 analytically  !
 ! D1    D(2,1,3,4)              0.0            calculate D2E/DX2 analytically  !
 --------------------------------------------------------------------------------
 Trust Radius=3.00D-01 FncErr=1.00D-07 GrdErr=1.00D-07 EigMax=2.50D+02 EigMin=1.00D-04
 Number of steps in this run=      2 maximum allowed number of steps=      2.
 GradGradGradGradGradGradGradGradGradGradGradGradGradGradGradGradGradGrad

 Leave Link  103 at Wed Nov 22 16:44:46 2023, MaxMem=   134217728 cpu:               0.0 elap:               0.0
 (Enter /home/emanuele/chem_software/gaussian//gdv/l202.exe)
                          Input orientation:                          
 ---------------------------------------------------------------------
 Center     Atomic      Atomic             Coordinates (Angstroms)
 Number     Number       Type             X           Y           Z
 ---------------------------------------------------------------------
      1          8    20001021        0.000000    0.729012   -0.103191
      2          1    20001030        0.000000    0.984051    0.825531
      3          8    20001021        0.000000   -0.729012   -0.103191
      4          1    20001030        0.000000   -0.984051    0.825531
 ---------------------------------------------------------------------
                    Distance matrix (angstroms):
                    1          2          3          4
     1  O    0.000000
     2  H    0.963104   0.000000
     3  O    1.458024   1.948617   0.000000
     4  H    1.948617   1.968102   0.963104   0.000000
 Symmetry turned off by external request.
 Stoichiometry    H2O2
 Framework group  C2V[SGV(H2O2)]
 Deg. of freedom     3
 Full point group                 C2V     NOp   4
 Rotational constants (GHZ):         309.0064700          26.6646669          24.5465090
 Leave Link  202 at Wed Nov 22 16:44:46 2023, MaxMem=   134217728 cpu:               0.0 elap:               0.0
 (Enter /home/emanuele/chem_software/gaussian//gdv/l301.exe)
 Standard basis: Dummy (5D, 7F)
     4 basis functions,     4 primitive gaussians,     4 cartesian basis functions
     3 alpha electrons        3 beta electrons
       nuclear repulsion energy         5.0047029879 Hartrees.
 IExCor=       0 DFT=F Ex=HF Corr=None N6=None ScaHFX=  1.000000
 ScaDFX=  1.000000  1.000000  1.000000  1.000000  1.000000  0.000000
 ScaDFX=  0.000000  0.000000  0.000000  0.000000  0.000000  0.000000
 IRadAn=      5 IRanWt=     -1 IRanGd=            0 ICorTp=0 IEmpDi=  4
 NAtoms=    4 NActive=    4 NUniq=    4 SFac= 1.00D+00 NAtFMM=   60 NAOKFM=F Big=F
 Integral buffers will be    131072 words long.
 Raffenetti 1 integral format.
 Two-electron integral symmetry is turned off.
 Leave Link  301 at Wed Nov 22 16:44:46 2023, MaxMem=   134217728 cpu:               0.0 elap:               0.0
 (Enter /home/emanuele/chem_software/gaussian//gdv/l402.exe)
 AMBER calculation of energy, first and second derivatives.
 ****************************
 MOLECULAR MECHANICS FUNCTION
 ****************************
 Atomic parameters:
 Center  VDW
      1 1.7683 0.1520000
      2 0.0000 0.0000000
      3 1.7683 0.1520000
      4 0.0000 0.0000000
 Molecular mechanics terms:
 NBDir 3 1      0      0
 HrmStr1 1-2    0.00 0.9630
 HrmStr1 1-3    0.00 1.4580
 HrmStr1 3-4    0.00 0.9630
 HrmBnd1 4-3-1   0.00   1.00
 HrmBnd1 2-1-3   0.00   1.00
 AmbTrs 2-1-3-4   0   0   0   0  0.0000  0.0000  0.0000  0.0000  1.0
 NBPair 2-1 3 1      0      0 -1.000 -1.000
 NBPair 3-2 3 1      0      0 -1.000 -1.000
 NBPair 3-1 3 1      0      0 -1.000 -1.000
 NBPair 4-2 3 1      0      0 -0.500 -0.167
 NBPair 4-1 3 1      0      0 -1.000 -1.000
 NBPair 4-3 3 1      0      0 -1.000 -1.000
 Energy per function type:
 Direct Coulomb + vdW (small)                          -0.008444013
 Direct Coulomb (large)                                -0.022659424
 Direct vdW (large)                                     9.949305779
 Non-direct Coulomb + vdW (small)                       0.015342727
 Non-direct Coulomb (large)                             0.022659424
 Non-direct vdW (large)                                -9.949305779
 Energy per function class:
        Coulomb               0.006898714
    Vanderwaals               0.000000000
 Energy=    6.898713928E-03 NIter=   0.
 Dipole moment=       0.000000       0.000000       0.615903
 Leave Link  402 at Wed Nov 22 16:44:46 2023, MaxMem=   134217728 cpu:               0.0 elap:               0.0
 (Enter /home/emanuele/chem_software/gaussian//gdv/l716.exe)
 Dipole        = 0.00000000D+00 0.00000000D+00 6.15903287D-01
 Full mass-weighted force constant matrix:
 Low frequencies --- -161.7202 -161.7202   -0.0003   -0.0000   -0.0000   -0.0000
 Low frequencies ---   -0.0000   -0.0000   -0.0000
 ******    4 imaginary frequencies (negative Signs) ****** 
 Diagonal vibrational polarizability:
        0.0000000********************************
 Harmonic frequencies (cm**-1), IR intensities (KM/Mole), Raman scattering
 activities (A**4/AMU), depolarization ratios for plane and unpolarized
 incident light, reduced masses (AMU), force constants (mDyne/A),
 and normal coordinates:
                      1                      2                      3
                      A                      A                      A
 Frequencies --   -153.8636              -153.1667                -0.0002
 Red. masses --      1.0972                 1.1155                 6.9331
 Frc consts  --      0.0153                 0.0154                 0.0000
 IR Inten    --      0.5268                 0.0000                 5.9159
  Atom  AN      X      Y      Z        X      Y      Z        X      Y      Z
     1   8     0.00  -0.00  -0.05    -0.06  -0.00  -0.00     0.00   0.48  -0.04
     2   1     0.00   0.07   0.70     0.70  -0.00  -0.00     0.00  -0.55   0.00
     3   8     0.00  -0.00   0.05     0.06  -0.00  -0.00     0.00  -0.41   0.04
     4   1     0.00   0.07  -0.70    -0.70  -0.00  -0.00     0.00  -0.55   0.00
                      4                      5                      6
                      A                      A                      A
 Frequencies --     -0.0000                 0.0000               228.7069
 Red. masses --      1.0671                 1.2843                 1.0078
 Frc consts  --      0.0000                 0.0000                 0.0311
 IR Inten    --     63.3182                51.8458                 0.0000
  Atom  AN      X      Y      Z        X      Y      Z        X      Y      Z
     1   8    -0.00  -0.00  -0.04     0.00   0.02   0.06     0.00  -0.00  -0.00
     2   1    -0.00  -0.00   0.71     0.00   0.70   0.00     0.00   0.71   0.00
     3   8    -0.00   0.00  -0.04     0.00  -0.11  -0.06     0.00   0.00   0.00
     4   1    -0.00  -0.00   0.71     0.00   0.70   0.00     0.00  -0.71   0.00

 -------------------
 - Thermochemistry -
 -------------------
 Temperature   298.150 Kelvin.  Pressure      1.00000 Atm.
 Atom     1 has atomic number  8 and mass  15.99491
 Atom     2 has atomic number  1 and mass   1.00783
 Atom     3 has atomic number  8 and mass  15.99491
 Atom     4 has atomic number  1 and mass   1.00783
 Molecular mass:    34.00548 amu.
 Principal axes and moments of inertia in atomic units:
                                 1                 2                 3
     Eigenvalues --            5.840464         67.682871         73.523335
           X                  -0.000000          0.000000          1.000000
           Y                   1.000000          0.000000          0.000000
           Z                   0.000000          1.000000          0.000000
 This molecule is an asymmetric top.
 Rotational symmetry number  2.
 Rotational temperatures (Kelvin)     14.82997     1.27970     1.17805
 Rotational constants (GHZ):         309.00647    26.66467    24.54651
    4 imaginary frequencies ignored.
 Zero-point vibrational energy       1368.0 (Joules/Mol)
                                    0.32695 (Kcal/Mol)
 Warning -- explicit consideration of   2 degrees of freedom as
           vibrations may cause significant error
 Vibrational temperatures:      0.00   329.06
          (Kelvin)
 
 Zero-point correction=                           0.000521 (Hartree/Particle)
 Thermal correction to Energy=                    0.004815
 Thermal correction to Enthalpy=                  0.005759
 Thermal correction to Gibbs Free Energy=        -0.035775
 Sum of electronic and zero-point Energies=              0.007420
 Sum of electronic and thermal Energies=                 0.011714
 Sum of electronic and thermal Enthalpies=               0.012658
 Sum of electronic and thermal Free Energies=           -0.028877
 
                     E (Thermal)             CV                S
                      KCal/Mol        Cal/Mol-Kelvin    Cal/Mol-Kelvin
 Total                    3.021              9.746             87.416
 Electronic               0.000              0.000              0.000
 Translational            0.889              2.981             36.503
 Rotational               0.889              2.981             16.637
 Vibrational              1.244              3.784             34.277
 Vibration     1          0.592              1.987             32.388
 Vibration     2          0.651              1.797              1.889
                       Q            Log10(Q)             Ln(Q)
 Total Bot       0.285404D+17         16.455460         37.890097
 Total V=0       0.495585D+17         16.695118         38.441930
 Vib (Bot)       0.379482D+07          6.579191         15.149148
 Vib (Bot)    1  0.440404D+07          6.643852         15.298034
 Vib (Bot)    2  0.861667D+00         -0.064660         -0.148886
 Vib (V=0)       0.658946D+07          6.818850         15.700981
 Vib (V=0)    1  0.440405D+07          6.643852         15.298034
 Vib (V=0)    2  0.149623D+01          0.174998          0.402947
 Electronic      0.100000D+01          0.000000          0.000000
 Translational   0.779430D+07          6.891777         15.868904
 Rotational      0.964920D+03          2.984491          6.872045
                           ----------------------------
                           ! Normal Mode     1        !
 --------------------------                            --------------------------
 ! Name  Definition              Value          Relative Weight (%)             !
 --------------------------------------------------------------------------------
 ! R1    R(1,2)                  0.7478                 43.4                    !
 ! R3    R(3,4)                 -0.7478                 43.4                    !
 ! A1    A(2,1,3)               -0.1128                  6.6                    !
 ! A2    A(1,3,4)                0.1128                  6.6                    !
 --------------------------------------------------------------------------------
                           ----------------------------
                           ! Normal Mode     2        !
 --------------------------                            --------------------------
 ! Name  Definition              Value          Relative Weight (%)             !
 --------------------------------------------------------------------------------
 ! D1    D(2,1,3,4)              0.8951                100.0                    !
 --------------------------------------------------------------------------------
                           ----------------------------
                           ! Normal Mode     3        !
 --------------------------                            --------------------------
 ! Name  Definition              Value          Relative Weight (%)             !
 --------------------------------------------------------------------------------
 ! R1    R(1,2)                 -0.229                  12.6                    !
 ! R2    R(1,3)                  0.8821                 48.7                    !
 ! A1    A(2,1,3)               -0.5818                 32.1                    !
 --------------------------------------------------------------------------------
                           ----------------------------
                           ! Normal Mode     4        !
 --------------------------                            --------------------------
 ! Name  Definition              Value          Relative Weight (%)             !
 --------------------------------------------------------------------------------
 ! R1    R(1,2)                  0.7231                 43.4                    !
 ! R3    R(3,4)                  0.7238                 43.5                    !
 ! A1    A(2,1,3)               -0.1101                  6.6                    !
 ! A2    A(1,3,4)               -0.108                   6.5                    !
 --------------------------------------------------------------------------------
                           ----------------------------
                           ! Normal Mode     5        !
 --------------------------                            --------------------------
 ! Name  Definition              Value          Relative Weight (%)             !
 --------------------------------------------------------------------------------
 ! R1    R(1,2)                  0.1281                  9.8                    !
 ! R2    R(1,3)                  0.1282                  9.9                    !
 ! R3    R(3,4)                 -0.1579                 12.1                    !
 ! A1    A(2,1,3)                0.4093                 31.5                    !
 ! A2    A(1,3,4)               -0.4779                 36.7                    !
 --------------------------------------------------------------------------------
                           ----------------------------
                           ! Normal Mode     6        !
 --------------------------                            --------------------------
 ! Name  Definition              Value          Relative Weight (%)             !
 --------------------------------------------------------------------------------
 ! R1    R(1,2)                  0.1872                 16.7                    !
 ! R3    R(3,4)                  0.1872                 16.7                    !
 ! A1    A(2,1,3)                0.3746                 33.3                    !
 ! A2    A(1,3,4)                0.3746                 33.3                    !
 --------------------------------------------------------------------------------
 Max01P=      5 Av01P=    3.67 Stan. Dev.=    1.37
 Max05P=      5 Av05P=    3.67 Stan. Dev.=    1.37
 Max10P=      4 Av10P=    2.50 Stan. Dev.=    1.05
 MaxNDP=      8 AvNDP=    4.67 Stan. Dev.=    2.50
 
                                                                Title
                                                             IR Spectrum
 
                                                                                                                                     
     2                                                                                                                               
     2                                                                                                                               
     9                                                                                                                               
 
                                                                                                                                    X
                                                                                                                                    X
                                                                                                                                    X
                                                                                                                                    X
                                                                                                                                    X
                                                                                                                                    X
                                                                                                                                    X
                                                                                                                                    X
                                                                                                                                    X
                                                                                                                                    X
                                                                                                                                    X
                                                                                                                                    X
                                                                                                                                    X
                                                                                                                                    X
                                                                                                                                    X
                                                                                                                                    X
                                                                                                                                    X
                                                                                                                                    X
                                                                                                                                    X
                                                                                                                                    X
 
 -------------------------------------------------------------------
 Center     Atomic                   Forces (Hartrees/Bohr)
 Number     Number              X              Y              Z
 -------------------------------------------------------------------
      1        8          -0.000000000   -0.000000000    0.000000000
      2        1          -0.000000000    0.001854905   -0.000000000
      3        8          -0.000000000   -0.000000000   -0.000000000
      4        1          -0.000000000   -0.001854905   -0.000000000
 -------------------------------------------------------------------
 Cartesian Forces:  Max     0.001854905 RMS     0.000757262
 Force constants in Cartesian coordinates: 
                1             2             3             4             5 
      1  0.000000D+00
      2  0.000000D+00  0.000000D+00
      3  0.000000D+00  0.000000D+00  0.000000D+00
      4  0.000000D+00  0.000000D+00  0.000000D+00 -0.498741D-03
      5  0.000000D+00  0.000000D+00  0.000000D+00  0.000000D+00  0.997482D-03
      6  0.000000D+00  0.000000D+00  0.000000D+00  0.000000D+00  0.000000D+00
      7  0.000000D+00  0.000000D+00  0.000000D+00  0.000000D+00  0.000000D+00
      8  0.000000D+00  0.000000D+00  0.000000D+00  0.000000D+00  0.000000D+00
      9  0.000000D+00  0.000000D+00  0.000000D+00  0.000000D+00  0.000000D+00
     10  0.000000D+00  0.000000D+00  0.000000D+00  0.498741D-03  0.000000D+00
     11  0.000000D+00  0.000000D+00  0.000000D+00  0.000000D+00 -0.997482D-03
     12  0.000000D+00  0.000000D+00  0.000000D+00  0.000000D+00  0.000000D+00
                6             7             8             9            10 
      6 -0.498741D-03
      7  0.000000D+00  0.000000D+00
      8  0.000000D+00  0.000000D+00  0.000000D+00
      9  0.000000D+00  0.000000D+00  0.000000D+00  0.000000D+00
     10  0.000000D+00  0.000000D+00  0.000000D+00  0.000000D+00 -0.498741D-03
     11  0.000000D+00  0.000000D+00  0.000000D+00  0.000000D+00  0.000000D+00
     12  0.498741D-03  0.000000D+00  0.000000D+00  0.000000D+00  0.000000D+00
               11            12 
     11  0.997482D-03
     12  0.000000D+00 -0.498741D-03
 FormGI is forming the generalized inverse of G from B-inverse, IUseBI=4.
 Force constants in internal coordinates: 
                1             2             3             4             5 
      1 -0.393820D-03
      2  0.264143D-03  0.997482D-03
      3  0.533715D-03  0.264143D-03 -0.393820D-03
      4 -0.109332D-02  0.175061D-02  0.231789D-03  0.385051D-02
      5  0.231789D-03  0.175061D-02 -0.109332D-02  0.318822D-02  0.385051D-02
      6  0.000000D+00  0.000000D+00  0.000000D+00  0.000000D+00  0.000000D+00
                6 
      6 -0.153619D-02
 Leave Link  716 at Wed Nov 22 16:44:46 2023, MaxMem=   134217728 cpu:               0.0 elap:               0.0
 (Enter /home/emanuele/chem_software/gaussian//gdv/l103.exe)

 GradGradGradGradGradGradGradGradGradGradGradGradGradGradGradGradGradGrad
 Berny optimization.
 Internal  Forces:  Max     0.003255414 RMS     0.002046080
 Search for a local minimum.
 Step number   1 out of a maximum of    2
 All quantities printed in internal units (Hartrees-Bohrs-Radians)
 Second derivative matrix not updated -- analytic derivatives used.
 The second derivative matrix:
                          R1        R2        R3        A1        A2
           R1          -0.00039
           R2           0.00026   0.00100
           R3           0.00053   0.00026  -0.00039
           A1          -0.00109   0.00175   0.00023   0.00385
           A2           0.00023   0.00175  -0.00109   0.00319   0.00385
           D1          -0.00000   0.00000  -0.00000   0.00000  -0.00000
                          D1
           D1          -0.00154
 ITU=  0
     Eigenvalues ---   -0.00168  -0.00154  -0.00054   0.00074   0.00141
     Eigenvalues ---    0.00798
 Eigenvalue     1 is  -1.68D-03 should be greater than     0.000000 Eigenvector:
                          R1        R3        A1        A2        R2
   1                   -0.61531   0.61531  -0.34842   0.34842   0.00000
                          D1
   1                   -0.00000
 Eigenvalue     2 is  -1.54D-03 should be greater than     0.000000 Eigenvector:
                          D1        R3        R1        A2        A1
   1                   -1.00000  -0.00000   0.00000  -0.00000   0.00000
                          R2
   1                    0.00000
 Eigenvalue     3 is  -5.43D-04 should be greater than     0.000000 Eigenvector:
                          R2        R3        R1        A2        A1
   1                    0.63796  -0.50461  -0.50461  -0.20463  -0.20463
                          D1
   1                    0.00000
 Quadratic step=1.860D+00 exceeds max=3.000D-01 adjusted using Lamda=-9.551D-03.
 Angle between NR and scaled steps=  49.06 degrees.
 Angle between quadratic step and forces=   8.75 degrees.
 Linear search not attempted -- first point.
 Iteration  1 RMS(Cart)=  0.22732144 RMS(Int)=  0.01726005
 Iteration  2 RMS(Cart)=  0.01587239 RMS(Int)=  0.00013935
 Iteration  3 RMS(Cart)=  0.00021798 RMS(Int)=  0.00000002
 Iteration  4 RMS(Cart)=  0.00000002 RMS(Int)=  0.00000000
 ITry= 1 IFail=0 DXMaxC= 4.01D-01 DCOld= 1.00D+10 DXMaxT= 3.00D-01 DXLimC= 3.00D+00 Rises=F
 Variable       Old X    -DE/DX   Delta X   Delta X   Delta X     New X
                                 (Linear)    (Quad)   (Total)
    R1        1.82000   0.00049   0.00000   0.06050   0.06050   1.88050
    R2        2.75527   0.00185   0.00000   0.11515   0.11515   2.87042
    R3        1.82000   0.00049   0.00000   0.06050   0.06050   1.88050
    A1        1.83880   0.00326   0.00000   0.18636   0.18636   2.02516
    A2        1.83880   0.00326   0.00000   0.18636   0.18636   2.02516
    D1        0.00000   0.00000   0.00000   0.00000   0.00000   0.00000
         Item               Value     Threshold  Converged?
 Maximum Force            0.003255     0.000450     NO 
 RMS     Force            0.002046     0.000300     NO 
 Maximum Displacement     0.400964     0.001800     NO 
 RMS     Displacement     0.235387     0.001200     NO 
 Predicted change in Energy=-1.175425D-03
                           ----------------------------
                           ! Non-Optimized Parameters !
                           ! (Angstroms and Degrees)  !
 --------------------------                            --------------------------
 ! Name  Definition              Value          Derivative Info.                !
 --------------------------------------------------------------------------------
 ! R1    R(1,2)                  0.9951         -DE/DX =    0.0005              !
 ! R2    R(1,3)                  1.519          -DE/DX =    0.0019              !
 ! R3    R(3,4)                  0.9951         -DE/DX =    0.0005              !
 ! A1    A(2,1,3)              116.0333         -DE/DX =    0.0033              !
 ! A2    A(1,3,4)              116.0333         -DE/DX =    0.0033              !
 ! D1    D(2,1,3,4)              0.0            -DE/DX =    0.0                 !
 --------------------------------------------------------------------------------
 GradGradGradGradGradGradGradGradGradGradGradGradGradGradGradGradGradGrad

 Leave Link  103 at Wed Nov 22 16:44:46 2023, MaxMem=   134217728 cpu:               0.0 elap:               0.0
 (Enter /home/emanuele/chem_software/gaussian//gdv/l9999.exe)
 Unable to Open any file for archive entry.
 1\1\GINC-EMANUELE-XPS-13-9343\Freq\AMBER\ZDO\H2O2\EMANUELE\22-Nov-2023
 \0\\#p Amber=(SoftOnly,Print) nosymm Freq=intmodes\\Title\\0,1\O,0.,0.
 729012,-0.103191\H,0.,0.984051,0.825531\O,0.,-0.729012,-0.103191\H,0.,
 -0.984051,0.825531\\Version=ES64L-GDVRevJ.14\HF=0.0068987\RMSD=0.000e+
 00\RMSF=7.573e-04\Thermal=0.0048149\ETot=0.0117136\HTot=0.0126578\GTot
 =-0.0288765\Dipole=0.,0.,0.6159033\DipoleDeriv=-0.175468,0.,0.,0.,-0.1
 75468,0.,0.,0.,-0.175468,0.175468,0.,0.,0.,0.175468,0.,0.,0.,0.175468,
 -0.175468,0.,0.,0.,-0.175468,0.,0.,0.,-0.175468,0.175468,0.,0.,0.,0.17
 5468,0.,0.,0.,0.175468\PG=C02V [SGV(H2O2)]\NImag=4\\0.,0.,0.,0.,0.,0.,
 0.,0.,0.,-0.00049874,0.,0.,0.,0.,0.00099748,0.,0.,0.,0.,0.,-0.00049874
 ,0.,0.,0.,0.,0.,0.,0.,0.,0.,0.,0.,0.,0.,0.,0.,0.,0.,0.,0.,0.,0.,0.,0.,
 0.,0.,0.,0.,0.00049874,0.,0.,0.,0.,0.,-0.00049874,0.,0.,0.,0.,-0.00099
 748,0.,0.,0.,0.,0.,0.00099748,0.,0.,0.,0.,0.,0.00049874,0.,0.,0.,0.,0.
 ,-0.00049874\\0.,0.,0.,0.,-0.00185490,0.,0.,0.,0.,0.,0.00185490,0.\\\@
 The archive entry for this job was punched.


 AN AIRPLANE IS A COLLECTION OF SPARE PARTS
 FLYING IN CLOSE FORMATION.
 Job cpu time:       0 days  0 hours  0 minutes  0.5 seconds.
 Elapsed time:       0 days  0 hours  0 minutes  0.4 seconds.
 File lengths (MBytes):  RWF=      6 Int=      0 D2E=      0 Chk=      1 Scr=      1
 Normal termination of Gaussian DV at Wed Nov 22 16:44:46 2023.
