Title Card Required                                                     
Freq      RUFF                                                        ZDO                 
Number of atoms                            I                4
Info1-9                                    I   N=           9
          19          17           0           0           0         100
           6           8        1001
Full Title                                 C   N=           2
Title Card Required     
Route                                      C   N=           4
#p uff=(print) freq=intmodes geom=connectivity  
Charge                                     I                0
Multiplicity                               I                1
Number of electrons                        I                6
Number of alpha electrons                  I                3
Number of beta electrons                   I                3
Number of basis functions                  I                0
Number of independent functions            I                0
Number of point charges in /Mol/           I                0
Number of translation vectors              I                0
Atomic numbers                             I   N=           4
           8           1           8           1
Nuclear charges                            R   N=           4
  2.00000000E+00  1.00000000E+00  2.00000000E+00  1.00000000E+00
Current cartesian coordinates              R   N=          12
  0.00000000E+00  1.24721925E+00 -1.90042760E-01 -6.90253292E-31  1.85193161E+00
  1.52034208E+00 -1.52740306E-16 -1.24721925E+00 -1.90042760E-01 -2.26796211E-16
 -1.85193161E+00  1.52034208E+00
Number of symbols in /Mol/                 I                0
Redundant internal dimensions              I   N=           4
           6           3           2           1
Redundant internal coordinate indices      I   N=          24
           1           2           0           0           1           3
           0           0           3           4           0           0
           2           1           3           0           1           3
           4           0           2           1           3           4
Redundant internal coordinates             R   N=           6
  1.81413708E+00  2.49443850E+00  1.81413708E+00  1.91063324E+00  1.91063324E+00
  0.00000000E+00
ZRed-IntVec                                I   N=           6
           0           0           0           0           0           0
ZRed-FPVec                                 R   N=           6
  0.00000000E+00  0.00000000E+00  0.00000000E+00  0.00000000E+00  0.00000000E+00
  0.00000000E+00
ZRed-Constraint1                           R   N=           6
  1.81413708E+00  2.49443850E+00  1.81413708E+00  1.91063323E+00  1.91063323E+00
  0.00000000E+00
ZRed-Constraint2                           R   N=           6
  0.00000000E+00  0.00000000E+00  0.00000000E+00  0.00000000E+00  0.00000000E+00
  0.00000000E+00
Force Field                                I                1
Atom Types                                 C   N=           4
#100O_3     #100H_      #100O_3     #100H_      
Int Atom Types                             I   N=           4
    10081003    10011000    10081003    10011000
MM charges                                 R   N=           4
  7.90505033-323  4.94065646-324  7.90505033-323  4.94065646-324
Integer atomic weights                     I   N=           4
           0           0           0           0
Real atomic weights                        R   N=           4
  0.00000000E+00  0.00000000E+00  0.00000000E+00  0.00000000E+00
Atom fragment info                         I   N=           4
           0           0           0           0
Atom residue num                           I   N=           4
           0           0           0           0
Nuclear spins                              I   N=           4
           0           0           0           0
Nuclear ZEff                               R   N=           4
  0.00000000E+00  0.00000000E+00  0.00000000E+00  0.00000000E+00
Nuclear ZNuc                               R   N=           4
  0.00000000E+00  0.00000000E+00  0.00000000E+00  0.00000000E+00
Nuclear QMom                               R   N=           4
  0.00000000E+00  0.00000000E+00  0.00000000E+00  0.00000000E+00
Nuclear GFac                               R   N=           4
  0.00000000E+00  0.00000000E+00  0.00000000E+00  0.00000000E+00
MicOpt                                     I   N=           4
           0           0           0           0
Number of residues                         I                0
Number of secondary structures             I                0
Number of contracted shells                I                4
Number of primitive shells                 I                4
Pure/Cartesian d shells                    I                0
Pure/Cartesian f shells                    I                0
Highest angular momentum                   I                0
Largest degree of contraction              I                1
Shell types                                I   N=           4
           0           0           0           0
Number of primitives per shell             I   N=           4
           1           1           1           1
Shell to atom map                          I   N=           4
           1           2           3           4
Primitive exponents                        R   N=           4
  1.00000000E+00  1.00000000E+00  1.00000000E+00  1.00000000E+00
Contraction coefficients                   R   N=           4
  1.00000000E+00  1.00000000E+00  1.00000000E+00  1.00000000E+00
Coordinates of each shell                  R   N=          12
  0.00000000E+00  1.24721925E+00 -1.90042760E-01 -5.91645679E-31  1.85193161E+00
  1.52034208E+00 -1.52740306E-16 -1.24721925E+00 -1.90042760E-01 -2.26796211E-16
 -1.85193161E+00  1.52034208E+00
Constraint Structure                       R   N=          12
  0.00000000E+00  1.24721925E+00 -1.90042760E-01 -5.91645679E-31  1.85193161E+00
  1.52034208E+00 -1.52740306E-16 -1.24721925E+00 -1.90042760E-01 -2.26796211E-16
 -1.85193161E+00  1.52034208E+00
Num ILSW                                   I              100
ILSW                                       I   N=         100
           0           0           0           0           0           0
           0           0           0           0           0          -1
           5           0           0           0           2           0
           0           0           0           0           1           0
           1           0           0           0           0           0
           0           0      100000           0          -1           0
           0           0           0           0           0           0
           0           0           0         101           0           0
           0 -2000000000           1           0           0           0
           0           0           4          41           0           0
           0           0           0           0           0           0
           0           0           0           4           0           1
           0           0           0           0           0           0
           0           0           0           0           0           0
           0           0           0           0           0           0
           0           0           0           0           0           0
           0           0           0           0
Num RLSW                                   I               41
RLSW                                       R   N=          41
  1.00000000E+00  1.00000000E+00  1.00000000E+00  1.00000000E+00  1.00000000E+00
  0.00000000E+00  0.00000000E+00  1.00000000E+00  0.00000000E+00  0.00000000E+00
  0.00000000E+00  0.00000000E+00  1.00000000E+00  0.00000000E+00  0.00000000E+00
  0.00000000E+00  0.00000000E+00  1.00000000E+00  0.00000000E+00  0.00000000E+00
  0.00000000E+00  0.00000000E+00  1.00000000E+00  0.00000000E+00  0.00000000E+00
  0.00000000E+00  0.00000000E+00  1.00000000E+00  0.00000000E+00  0.00000000E+00
  0.00000000E+00  0.00000000E+00  1.00000000E+00  0.00000000E+00  0.00000000E+00
  0.00000000E+00  0.00000000E+00  0.00000000E+00  1.00000000E+00  1.00000000E+00
  0.00000000E+00
MxBond                                     I                2
NBond                                      I   N=           4
           2           1           2           1
IBond                                      I   N=           8
           2           3           1           0           1           4
           3           0
RBond                                      R   N=           8
  1.00000000E+00  1.00000000E+00  1.00000000E+00  0.00000000E+00  1.00000000E+00
  1.00000000E+00  1.00000000E+00  0.00000000E+00
Virial Ratio                               R      0.000000000000000E+00
SCF Energy                                 R      1.344351572847364E-02
Total Energy                               R      1.344351572847364E-02
RMS Force                                  R      1.979637315811475E-02
External E-field                           R   N=         105
  0.00000000E+00  0.00000000E+00  0.00000000E+00  0.00000000E+00  0.00000000E+00
  0.00000000E+00  0.00000000E+00  0.00000000E+00  0.00000000E+00  0.00000000E+00
  0.00000000E+00  0.00000000E+00  0.00000000E+00  0.00000000E+00  0.00000000E+00
  0.00000000E+00  0.00000000E+00  0.00000000E+00  0.00000000E+00  0.00000000E+00
  0.00000000E+00  0.00000000E+00  0.00000000E+00  0.00000000E+00  0.00000000E+00
  0.00000000E+00  0.00000000E+00  0.00000000E+00  0.00000000E+00  0.00000000E+00
  0.00000000E+00  0.00000000E+00  0.00000000E+00  0.00000000E+00  0.00000000E+00
  0.00000000E+00  0.00000000E+00  0.00000000E+00  0.00000000E+00  0.00000000E+00
  0.00000000E+00  0.00000000E+00  0.00000000E+00  0.00000000E+00  0.00000000E+00
  0.00000000E+00  0.00000000E+00  0.00000000E+00  0.00000000E+00  0.00000000E+00
  0.00000000E+00  0.00000000E+00  0.00000000E+00  0.00000000E+00  0.00000000E+00
  0.00000000E+00  0.00000000E+00  0.00000000E+00  0.00000000E+00  0.00000000E+00
  0.00000000E+00  0.00000000E+00  0.00000000E+00  0.00000000E+00  0.00000000E+00
  0.00000000E+00  0.00000000E+00  0.00000000E+00  0.00000000E+00  0.00000000E+00
  0.00000000E+00  0.00000000E+00  0.00000000E+00  0.00000000E+00  0.00000000E+00
  0.00000000E+00  0.00000000E+00  0.00000000E+00  0.00000000E+00  0.00000000E+00
  0.00000000E+00  0.00000000E+00  0.00000000E+00  0.00000000E+00  0.00000000E+00
  0.00000000E+00  0.00000000E+00  0.00000000E+00  0.00000000E+00  0.00000000E+00
  0.00000000E+00  0.00000000E+00  0.00000000E+00  0.00000000E+00  0.00000000E+00
  0.00000000E+00  0.00000000E+00  0.00000000E+00  0.00000000E+00  0.00000000E+00
  0.00000000E+00  0.00000000E+00  0.00000000E+00  0.00000000E+00  0.00000000E+00
IOpCl                                      I                0
IROHF                                      I                0
Grdnt Energy                               R      1.344351572847364E-02
Grdnt NVar                                 I                6
Grdnt IGetFC                               I                4
Internal Forces                            R   N=           6
  3.56686084E-02  1.60811887E-02  3.56686084E-02  5.08959285E-03  5.08959285E-03
  5.63148914E-18
Internal Force Constants                   R   N=          21
  5.03414355E-01  2.61477924E-02  7.66337183E-01  1.38231317E-02  2.61477924E-02
  5.03414355E-01  2.79346732E-02  1.34168364E-01  4.14470580E-02  5.85747485E-01
  4.14470580E-02  1.34168364E-01  2.79346732E-02  2.31580569E-01  5.85747485E-01
  3.06102564E-18 -6.08798872E-17  8.92018635E-17  3.80830727E-17  3.43955791E-17
 -2.31826807E-02
Optimization MaxStp                        I                2
Optimization Job offset                    I                0
Optimization Num results per geometry      I                2
Optimization Num geometry variables        I               12
Opt point       1 Results for each geome   R   N=           2
  1.34435157E-02  0.00000000E+00
Opt point       1 Geometries               R   N=          12
  0.00000000E+00  1.24721925E+00 -1.90042760E-01 -5.91645679E-31  1.85193161E+00
  1.52034208E+00 -1.52740306E-16 -1.24721925E+00 -1.90042760E-01 -2.26796211E-16
 -1.85193161E+00  1.52034208E+00
Opt point       1 Gradient at each geome   R   N=          12
 -8.02479713E-19 -1.54658556E-03  3.26935141E-02 -1.82209099E-19 -1.45346031E-02
 -3.26935141E-02 -6.13077607E-19  1.54658556E-03  3.26935141E-02  1.59776642E-18
  1.45346031E-02 -3.26935141E-02
Optimization Number of geometries          I   N=           1
           1
MMPar NCPar                                I   N=          16
          -1          12           4           2           4           1
          10           6          18           6           4          95
           6          13           0           0
MMPar IPrt                                 I   N=          18
           1           1           6           6           6           3
           6           3           0           0           0           0
           0           0           0           0           0           0
MMPar ICnvrt                               I   N=           6
           0           0           0           0           0           0
MMPar ICntr                                I   N=           4
           0           0           0           0
MMPar IList                                I   N=          97
           5           0           0           0           7           0
           8           9           0           0           0           0
           0           0           0           0          10          11
          12           0           0           0           0           0
           0           0           0           0           0           0
           0           0           0           0           0           0
           0           0           0           0           0           0
           0           0           0           0           0           0
           0           0           0           0           0           0
           0           0           0           0           0           0
           0           0           0           0           0           0
           0           0           0           0           0           0
           0           0           0           0           0           0
           0           0           0           0           0           0
           0           0           0           0           0           0
           0           0           0           0           0          13
           0
MMPar AtL                                  L   N=           4
TTTT
MMPar ChL                                  L   N=           4
FFFF
MMPar Q                                    R   N=           4
  0.00000000E+00  0.00000000E+00  0.00000000E+00  0.00000000E+00
MMPar IAType                               I   N=           8
           3           0           3           0           8           1
           8           1
MMPar IAtTpT                               I   N=           1
           0
MMPar IUserT                               I   N=           1
           0
MMPar SymbT                                H   N=           1
*       
MMPar StepD                                I   N=          95
           0           0           0           0           0           0
           0           0           0           0           0           0
           0           0           0           0           0           0
           0           0           0           0           0           0
           0           0           0           0           0           0
           0           0           0           0           0           0
           0           0           0           0           0           0
           0           0           0           0           0           0
           0           0           0           0           0           0
           0           0           0           0           0           0
           0           0           0           0           0           0
           0           0           0           0           0           0
           0           0           0           0           0           0
           0           0           0           0           0           0
           0           0           0           0           0           0
           0           0           0           0           0
MMPar ICorL                                I   N=         120
           2           1           0           0           0           0
           0           0           0           2           1           2
           0           0           0           0           0           0
           0          12           1           3           0           0
           0           0           0           0           0          12
           3           4           0           0           0           0
           0           0           0          12           1           3
           4           0           0           0           0           0
           0          23           2           1           3           0
           0           0           0           0           0          23
           2           1           3           4           0           0
           0           0           0          38           2           1
           2           1           0           0           0           0
           0           3           3           2           2           1
           0           0           0           0           0           3
           3           1           2           1           0           0
           0           0           0           3           4           1
           2           1           0           0           0           0
           0           3           4           3           2           1
           0           0           0           0           0           3
MMPar RCorL                                R   N=          72
  0.00000000E+00  0.00000000E+00  0.00000000E+00  0.00000000E+00  0.00000000E+00
  0.00000000E+00  1.00000000E+00  1.33200000E-01  0.00000000E+00  0.00000000E+00
  0.00000000E+00  0.00000000E+00  1.00000000E+00  1.33200000E-01  0.00000000E+00
  0.00000000E+00  0.00000000E+00  0.00000000E+00  1.00000000E+00  1.33200000E-01
  0.00000000E+00  0.00000000E+00  0.00000000E+00  0.00000000E+00  1.82404360E+00
  1.00000000E+00  1.00000000E+00  1.33200000E-01  0.00000000E+00  0.00000000E+00
  1.82404360E+00  1.00000000E+00  1.00000000E+00  1.33200000E-01  0.00000000E+00
  0.00000000E+00  2.00000000E+00  1.57079633E+00  1.00000000E+00  0.00000000E+00
  0.00000000E+00  0.00000000E+00 -1.00000000E+00 -1.00000000E+00  0.00000000E+00
  0.00000000E+00  0.00000000E+00  0.00000000E+00 -1.00000000E+00 -1.00000000E+00
  0.00000000E+00  0.00000000E+00  0.00000000E+00  0.00000000E+00 -1.00000000E+00
 -1.00000000E+00  0.00000000E+00  0.00000000E+00  0.00000000E+00  0.00000000E+00
 -1.00000000E+00 -1.00000000E+00  0.00000000E+00  0.00000000E+00  0.00000000E+00
  0.00000000E+00 -1.00000000E+00 -1.00000000E+00  0.00000000E+00  0.00000000E+00
  0.00000000E+00  0.00000000E+00
MMPar Table                                R   N=          52
  0.00000000E+00  0.00000000E+00  0.00000000E+00  0.00000000E+00  0.00000000E+00
  0.00000000E+00  0.00000000E+00  0.00000000E+00  0.00000000E+00  0.00000000E+00
  0.00000000E+00  0.00000000E+00  0.00000000E+00  0.00000000E+00  0.00000000E+00
  0.00000000E+00  0.00000000E+00  0.00000000E+00  0.00000000E+00  0.00000000E+00
  6.61404144E+00  5.45374960E+00  6.61404144E+00  5.45374960E+00  9.56160862E-05
  7.01184632E-05  9.56160862E-05  7.01184632E-05  1.24343979E+00  6.68963048E-01
  1.24343979E+00  6.68963048E-01  2.30000000E+00  7.12000000E-01  2.30000000E+00
  7.12000000E-01  8.74100000E+00  4.52800000E+00  8.74100000E+00  4.52800000E+00
  3.18720287E-03  0.00000000E+00  3.18720287E-03  0.00000000E+00  2.86848259E-05
  0.00000000E+00  2.86848259E-05  0.00000000E+00  3.18720287E-03  3.18720287E-03
  3.18720287E-03  3.18720287E-03
ONIOM Charges                              I   N=          16
           0           0           0           0           0           0
           0           0           0           0           0           0
           0           0           0           0
ONIOM Multiplicities                       I   N=          16
           1           0           0           0           0           0
           0           0           0           0           0           0
           0           0           0           0
Atom Layers                                I   N=           4
           1           1           1           1
Atom Modifiers                             I   N=           4
           0           0           0           0
Force Field                                I                0
Atom Modified Types                        C   N=           4
                                                
Int Atom Modified Types                    I   N=           4
           0           0           0           0
Link Atoms                                 I   N=           4
           0           0           0           0
Atom Modified MM Charges                   R   N=           4
  0.00000000E+00  0.00000000E+00  0.00000000E+00  0.00000000E+00
Link Distances                             R   N=          16
  0.00000000E+00  0.00000000E+00  0.00000000E+00  0.00000000E+00  0.00000000E+00
  0.00000000E+00  0.00000000E+00  0.00000000E+00  0.00000000E+00  0.00000000E+00
  0.00000000E+00  0.00000000E+00  0.00000000E+00  0.00000000E+00  0.00000000E+00
  0.00000000E+00
Cartesian Gradient                         R   N=          12
 -8.02479713E-19 -1.54658556E-03  3.26935141E-02 -1.82209099E-19 -1.45346031E-02
 -3.26935141E-02 -6.13077607E-19  1.54658556E-03  3.26935141E-02  1.59776642E-18
  1.45346031E-02 -3.26935141E-02
Cartesian Force Constants                  R   N=          78
 -4.00691740E-02  5.13909807E-17  8.16763056E-01 -1.13405979E-17  4.96497126E-02
  6.24203152E-01  2.96885714E-02 -7.07565497E-18  8.11559329E-18 -2.70392872E-02
 -8.63400474E-18 -1.28869251E-01 -4.96497126E-02  1.17167047E-17  2.07312628E-01
  3.70791454E-18 -1.21632569E-01 -4.85615240E-01 -2.97521465E-18  1.21632569E-01
  4.54419856E-01  2.09544617E-02 -4.49627879E-17 -4.02801831E-19 -1.05738591E-02
  2.20581190E-18 -7.79872273E-19 -4.00691740E-02 -4.18460883E-17 -6.87893806E-01
 -7.19828568E-02  6.47462136E-19  8.47032947E-22  2.38339992E-34  5.35407042E-17
  8.16763056E-01  8.41255569E-18  7.19828568E-02 -1.64037694E-01 -5.18755103E-18
 -7.19828568E-02  2.54497830E-02 -1.74209341E-17 -4.96497126E-02  6.24203152E-01
 -1.05738591E-02  6.47462136E-19  3.62780648E-18  7.92457496E-03 -5.28851182E-18
  4.71723908E-20  2.96885714E-02 -1.23420780E-17  1.41959295E-17 -2.70392872E-02
 -9.10887627E-19  4.25825586E-26  7.19828568E-02 -5.28851182E-18 -7.84433774E-02
  2.01853245E-17 -1.07837282E-17 -1.28869251E-01  4.96497126E-02  1.69831276E-17
  2.07312628E-01 -7.79872273E-19 -4.23516471E-22  2.54497830E-02  4.71723908E-20
  2.01881833E-17  5.74560106E-03  1.86036082E-17  1.21632569E-01 -4.85615240E-01
 -1.78709083E-17 -1.21632569E-01  4.54419856E-01
Dipole Moment                              R   N=           3
  0.00000000E+00  0.00000000E+00  0.00000000E+00
Number of Normal Modes                     I                6
Vib-NDFDPol                                I                0
Vib-NumROA                                 I                0
Vib-NDim                                   I                4
Vib-NDim0                                  I                4
Vib-AtMass                                 R   N=           4
  1.59949146E+01  1.00782504E+00  1.59949146E+01  1.00782504E+00
Vib-E2                                     R   N=          84
  0.00000000E+00  0.00000000E+00  4.94065646-324  0.00000000E+00  0.00000000E+00
  0.00000000E+00  0.00000000E+00  0.00000000E+00  0.00000000E+00  0.00000000E+00
  9.88131292-324  0.00000000E+00  0.00000000E+00  0.00000000E+00  0.00000000E+00
  0.00000000E+00  0.00000000E+00  0.00000000E+00  1.48219694-323  0.00000000E+00
  0.00000000E+00  0.00000000E+00  0.00000000E+00  0.00000000E+00  0.00000000E+00
  0.00000000E+00  1.97626258-323  0.00000000E+00  0.00000000E+00  0.00000000E+00
  0.00000000E+00  0.00000000E+00  0.00000000E+00  0.00000000E+00  2.47032823-323
  0.00000000E+00  0.00000000E+00  0.00000000E+00  0.00000000E+00  0.00000000E+00
  0.00000000E+00  0.00000000E+00  2.96439388-323  0.00000000E+00  0.00000000E+00
  0.00000000E+00  0.00000000E+00  0.00000000E+00 -9.95313494E+02  1.52860056E+03
  1.73586106E+03  2.44374801E+03  3.70361626E+03  3.80724696E+03  1.13787285E+00
  1.21824697E+01  1.22449329E+00  1.03113870E+00  1.07361276E+00  1.06383400E+00
  6.64146245E-01  1.67715644E+01  2.17388486E+00  3.62810738E+00  8.67660510E+00
  9.08544419E+00  0.00000000E+00  0.00000000E+00  0.00000000E+00  0.00000000E+00
  0.00000000E+00  0.00000000E+00  0.00000000E+00  0.00000000E+00  0.00000000E+00
  0.00000000E+00  0.00000000E+00  0.00000000E+00  0.00000000E+00  0.00000000E+00
  0.00000000E+00  0.00000000E+00  0.00000000E+00  0.00000000E+00
Vib-Modes                                  R   N=          72
  0.00000000E+00  0.00000000E+00  0.00000000E+00  0.00000000E+00  0.00000000E+00
  0.00000000E+00  0.00000000E+00  0.00000000E+00  0.00000000E+00  0.00000000E+00
  0.00000000E+00  0.00000000E+00  0.00000000E+00  0.00000000E+00  0.00000000E+00
  0.00000000E+00  0.00000000E+00  0.00000000E+00 -1.00000000E+02 -1.00010054E+02
  9.99899450E+01 -1.00000000E+02 -1.00010054E+02  9.99899450E+01  0.00000000E+00
  0.00000000E+00  0.00000000E+00  0.00000000E+00  0.00000000E+00  0.00000000E+00
  0.00000000E+00  0.00000000E+00  0.00000000E+00  0.00000000E+00  0.00000000E+00
  0.00000000E+00  0.00000000E+00  0.00000000E+00  0.00000000E+00  0.00000000E+00
  0.00000000E+00  0.00000000E+00  0.00000000E+00  0.00000000E+00  0.00000000E+00
  0.00000000E+00  0.00000000E+00  0.00000000E+00 -6.58685158E-02  4.03328342E-18
 -1.42598100E-18  7.04032200E-01 -4.31095390E-17  1.52415236E-17  6.58685158E-02
 -4.03328341E-18  1.42598100E-18 -7.04032200E-01  4.31095390E-17 -1.52415236E-17
  3.74951034E-17  6.10560106E-01 -5.03856328E-03  1.95506115E-17  3.47557858E-01
  7.99656553E-02 -3.72769447E-17 -6.10560106E-01 -5.03856328E-03 -2.30129487E-17
 -3.47557858E-01  7.99656553E-02
