Title Card Required                                                     
Freq      AMBER                                                       ZDO                 
Number of atoms                            I                4
Info1-9                                    I   N=           9
          23          23           0           0           0         100
           6           8        1101
Full Title                                 C   N=           2
Title Card Required     
Route                                      C   N=           5
#p amber=(print,softonly) freq=intmodes geom=connectivity   
Charge                                     I                0
Multiplicity                               I                1
Number of electrons                        I                6
Number of alpha electrons                  I                3
Number of beta electrons                   I                3
Number of basis functions                  I                0
Number of independent functions            I                0
Number of point charges in /Mol/           I                0
Number of translation vectors              I                0
Atomic numbers                             I   N=           4
           8           1           8           1
Nuclear charges                            R   N=           4
  2.00000000E+00  1.00000000E+00  2.00000000E+00  1.00000000E+00
Current cartesian coordinates              R   N=          12
 -9.86076132E-32  1.24721925E+00 -1.90042760E-01 -9.86076132E-32  1.85193161E+00
  1.52034208E+00 -1.52740306E-16 -1.24721925E+00 -1.90042760E-01 -2.26796211E-16
 -1.85193161E+00  1.52034208E+00
Number of symbols in /Mol/                 I                0
Int Atom Types                             I   N=           4
    20001021    20001030    20001021    20001030
Force Field                                I                2
Atom Types                                 C   N=           4
AMB-OW      AMB-HW      AMB-OW      AMB-HW      
MM charges                                 R   N=           4
 -0.00000000E+00  0.00000000E+00 -0.00000000E+00  0.00000000E+00
Integer atomic weights                     I   N=           4
          16           1          16           1
Real atomic weights                        R   N=           4
  1.59949146E+01  1.00782504E+00  1.59949146E+01  1.00782504E+00
Atom fragment info                         I   N=           4
           0           0           0           0
Atom residue num                           I   N=           4
           0           0           0           0
Nuclear spins                              I   N=           4
           0           1           0           1
Nuclear ZEff                               R   N=           4
 -6.00000000E+00 -1.00000000E+00 -6.00000000E+00 -1.00000000E+00
Nuclear ZNuc                               R   N=           4
  8.00000000E+00  1.00000000E+00  8.00000000E+00  1.00000000E+00
Nuclear QMom                               R   N=           4
  0.00000000E+00  0.00000000E+00  0.00000000E+00  0.00000000E+00
Nuclear GFac                               R   N=           4
  0.00000000E+00  2.79284600E+00  0.00000000E+00  2.79284600E+00
MicOpt                                     I   N=           4
          -1          -1          -1          -1
Number of residues                         I                0
Number of secondary structures             I                0
Redundant internal dimensions              I   N=           4
           6           3           2           1
Redundant internal coordinate indices      I   N=          24
           1           2           0           0           1           3
           0           0           3           4           0           0
           2           1           3           0           1           3
           4           0           2           1           3           4
Redundant internal coordinates             R   N=           6
  1.81413708E+00  2.49443850E+00  1.81413708E+00  1.91063324E+00  1.91063324E+00
  0.00000000E+00
ZRed-IntVec                                I   N=           6
           0           0           0           0           0           0
ZRed-FPVec                                 R   N=           6
  0.00000000E+00  0.00000000E+00  0.00000000E+00  0.00000000E+00  0.00000000E+00
  0.00000000E+00
ZRed-Constraint1                           R   N=           6
  1.81413708E+00  2.49443850E+00  1.81413708E+00  1.91063323E+00  1.91063323E+00
  0.00000000E+00
ZRed-Constraint2                           R   N=           6
  0.00000000E+00  0.00000000E+00  0.00000000E+00  0.00000000E+00  0.00000000E+00
  0.00000000E+00
SymInf integers                            I   N=          26
           2           4           1           1           1          -1
          -1           1          -1           1           1           1
          -1           1           0           0           0           0
           0           0           0           0           0           0
           0           0
RotTr to input orientation                 R   N=          12
  3.06167855E-16 -6.12015566E-17 -1.00000000E+00 -9.99999995E-01 -1.00545218E-04
 -3.06161700E-16 -1.00545218E-04  9.99999995E-01 -6.12323400E-17  1.09017041E+01
  4.55721164E+00  0.00000000E+00
Number of contracted shells                I                4
Number of primitive shells                 I                4
Pure/Cartesian d shells                    I                0
Pure/Cartesian f shells                    I                0
Highest angular momentum                   I                0
Largest degree of contraction              I                1
Shell types                                I   N=           4
           0           0           0           0
Number of primitives per shell             I   N=           4
           1           1           1           1
Shell to atom map                          I   N=           4
           1           2           3           4
Primitive exponents                        R   N=           4
  1.00000000E+00  1.00000000E+00  1.00000000E+00  1.00000000E+00
Contraction coefficients                   R   N=           4
  1.00000000E+00  1.00000000E+00  1.00000000E+00  1.00000000E+00
Coordinates of each shell                  R   N=          12
 -9.86076132E-32  1.24721925E+00 -1.90042760E-01 -9.86076132E-32  1.85193161E+00
  1.52034208E+00 -1.52740306E-16 -1.24721925E+00 -1.90042760E-01 -2.26796211E-16
 -1.85193161E+00  1.52034208E+00
Num ILSW                                   I              100
ILSW                                       I   N=         100
           0           0           0           0           0           0
           0           0           0           0           0          -1
           5           0           0           0           2           0
           0           0           0           0           1           0
           1           0           0           0           0           0
           0           0      100000           0          -1           0
           0           0           0           0           0           0
           0           0           0         104           0           0
           0 -2000000000           1           0           0           0
           0           0           4          52           0           0
           0           0           0           0           0           0
           0           0           0           4           0           1
           0           0           0           0           0           0
           0           0           0           0           0           0
           0           0           0           0           0           0
           0           0           0           0           0           0
           0           0           0           0
Num RLSW                                   I               52
RLSW                                       R   N=          52
  1.00000000E+00  1.00000000E+00  1.00000000E+00  1.00000000E+00  1.00000000E+00
  0.00000000E+00  0.00000000E+00  1.00000000E+00  0.00000000E+00  0.00000000E+00
  0.00000000E+00  0.00000000E+00  1.00000000E+00  0.00000000E+00  0.00000000E+00
  0.00000000E+00  0.00000000E+00  1.00000000E+00  0.00000000E+00  0.00000000E+00
  0.00000000E+00  0.00000000E+00  1.00000000E+00  0.00000000E+00  0.00000000E+00
  0.00000000E+00  0.00000000E+00  1.00000000E+00  0.00000000E+00  0.00000000E+00
  0.00000000E+00  0.00000000E+00  1.00000000E+00  0.00000000E+00  0.00000000E+00
  0.00000000E+00  0.00000000E+00  0.00000000E+00  1.00000000E+00  1.00000000E+00
  0.00000000E+00  1.00000000E+00  0.00000000E+00  0.00000000E+00  0.00000000E+00
  0.00000000E+00  0.00000000E+00  0.00000000E+00  0.00000000E+00  0.00000000E+00
  0.00000000E+00  0.00000000E+00
MxBond                                     I                2
NBond                                      I   N=           4
           2           1           2           1
IBond                                      I   N=           8
           2           3           1           0           1           4
           3           0
RBond                                      R   N=           8
  1.00000000E+00  1.00000000E+00  1.00000000E+00  0.00000000E+00  1.00000000E+00
  1.00000000E+00  1.00000000E+00  0.00000000E+00
Virial Ratio                               R      0.000000000000000E+00
SCF Energy                                 R      3.412399310028181E-03
Total Energy                               R      3.412399310028181E-03
RMS Force                                  R      2.035867199097693E-04
NImag                                      I                1
Job Status                                 I                1
Nuclear derivative order                   I                2
Thermal Energy                             R      1.116849302835878E-02
Thermal Enthalpy                           R      1.211267784200315E-02
Thermal Free Energy                        R     -1.995061274288016E-02
External E-field                           R   N=          35
  0.00000000E+00  0.00000000E+00  0.00000000E+00  0.00000000E+00  0.00000000E+00
  0.00000000E+00  0.00000000E+00  0.00000000E+00  0.00000000E+00  0.00000000E+00
  0.00000000E+00  0.00000000E+00  0.00000000E+00  0.00000000E+00  0.00000000E+00
  0.00000000E+00  0.00000000E+00  0.00000000E+00  0.00000000E+00  0.00000000E+00
  0.00000000E+00  0.00000000E+00  0.00000000E+00  0.00000000E+00  0.00000000E+00
  0.00000000E+00  0.00000000E+00  0.00000000E+00  0.00000000E+00  0.00000000E+00
  0.00000000E+00  0.00000000E+00  0.00000000E+00  0.00000000E+00  0.00000000E+00
IOpCl                                      I                0
IROHF                                      I                0
Grdnt Energy                               R      3.412399310028181E-03
Grdnt NVar                                 I                6
Grdnt IGetFC                               I                4
Internal Forces                            R   N=           6
  1.09648726E-06 -6.06077771E-04  1.09648726E-06 -2.48721410E-04 -2.48721410E-04
  3.20562967E-21
Internal Force Constants                   R   N=          21
  8.92507706E-04  4.16316694E-19  8.92507706E-04  2.27851863E-19  1.35525272E-18
  8.92507706E-04 -4.01493617E-19 -3.03576608E-18 -4.98732999E-18  3.18720287E-03
 -4.20128342E-19 -8.67361738E-19 -2.81892565E-18  7.80625564E-18  3.18720287E-03
  3.93393853E-20  1.56270252E-19  1.28648356E-20  2.92213041E-19  2.39893734E-19
 -6.37440575E-03
Optimization MaxStp                        I                2
Optimization MaxJob                        I                1
Optimization Job offset                    I                0
Optimization Num results per geometry      I                2
Optimization Num geometry variables        I               12
Optimization Reference Energy              R      0.000000000000000E+00
Opt point       1 Results for each geome   R   N=           2
  3.41239931E-03  0.00000000E+00
Opt point       1 Geometries               R   N=          12
 -9.86076132E-32  1.24721925E+00 -1.90042760E-01 -9.86076132E-32  1.85193161E+00
  1.52034208E+00 -1.52740306E-16 -1.24721925E+00 -1.90042760E-01 -2.26796211E-16
 -1.85193161E+00  1.52034208E+00
Opt point       1 Gradient at each geome   R   N=          12
  2.82072519E-20  4.77182476E-04  4.67343689E-05  8.90430829E-21  1.28895295E-04
 -4.67343689E-05 -3.02307473E-20 -4.77182476E-04  4.67343689E-05 -6.88081281E-21
 -1.28895295E-04 -4.67343689E-05
Optimization Number of geometries          I   N=           1
           1
MMPar NCPar                                I   N=          16
          -1          18           4         303           4           3
          10           6          18           6           4          95
           6           5           0           5
MMPar IPrt                                 I   N=          18
           1           1           6           6           6           3
           6           3           0           0           0           0
           0           0           0           0           0           0
MMPar ICnvrt                               I   N=           6
           0           0           0           0           0           0
MMPar ICntr                                I   N=           4
           0           0           0           0
MMPar IList                                I   N=          97
           0           0           0           0           0           0
           0           0           0           0           0           0
           0           0           0           0           0           0
           0           0           0           0           0           0
           0           0           0           0           0           0
           0           0           0           0           0           0
           0           0           0           0           0           0
           0           0           0           0           0           0
           0           0           0           0           0           0
           0           0           0           0           0           0
           0           0           0           0           0           0
           0           0           0           0           0           0
           0           0           0           0           0           0
           0           0           0           0           0           0
           0           0           0           0           0           0
           0           0           0           0           0           5
           0
MMPar AtL                                  L   N=           4
TTTT
MMPar ChL                                  L   N=           4
FFFF
MMPar Q                                    R   N=           4
 -0.00000000E+00  0.00000000E+00 -0.00000000E+00  0.00000000E+00
MMPar IAType                               I   N=           8
          21          30          21          30           0           0
           0           0
MMPar IAtTpT                               I   N=           3
           0    20001021    20001030
MMPar IUserT                               I   N=           3
           0           0           0
MMPar SymbT                                H   N=           3
*       OW      HW      
MMPar StepD                                I   N=          95
           0           0           0           0           0           0
           0           0           0           0           0           0
           0           0           0           0           0           0
           0           0           0           0           0           0
           0           0           0           0           0           0
           0           0           0           0           0           0
           0           0           0           0           0           0
           0           0           0           0           0           0
           0           0           0           0           0           0
           0           0           0           0           0           0
           0           0           0           0           0           0
           0           0           0           0           0           0
           0           0           0           0           0           0
           0           0           0           0           0           0
           0           0           0           0           0           0
           0           0           0           0           0
MMPar ICorL                                I   N=         180
           3           1           0           0           0           0
           0           0           0           6    20001021    20001030
           0           0           0           0           0           0
           0          10    20001021    20001021           0           0
           0           0           0           0           0          10
    20001021    20001021    20001030           0           0           0
           0           0           0          20    20001030    20001021
    20001021    20001030           0           0           0           0
           0          30           3           1           0           0
           0           0           0           0           0           2
           1           2           0           0           0           0
           0           0           0          10           1           3
           0           0           0           0           0           0
           0          10           3           4           0           0
           0           0           0           0           0          10
           1           3           4           0           0           0
           0           0           0          20           3           1
           2           0           0           0           0           0
           0          20           2           1           3           4
           0           0           0           0           0          30
           2           1           3           1           0           0
           0           0           0           3           3           2
           3           1           0           0           0           0
           0           3           3           1           3           1
           0           0           0           0           0           3
           4           2           3           1           0           0
           0           0           0           3           4           1
           3           1           0           0           0           0
           0           3           4           3           3           1
           0           0           0           0           0           3
MMPar RCorL                                R   N=         108
  0.00000000E+00  0.00000000E+00  5.00000000E-01  0.00000000E+00  0.00000000E+00
 -1.20000000E+00  1.00000000E+00  9.60650118E-01  0.00000000E+00  0.00000000E+00
  0.00000000E+00  0.00000000E+00  1.00000000E+00  9.60650118E-01  0.00000000E+00
  0.00000000E+00  0.00000000E+00  0.00000000E+00  1.00000000E+00  1.05000000E+02
  0.00000000E+00  0.00000000E+00  0.00000000E+00  0.00000000E+00  0.00000000E+00
  1.00000000E+00  0.00000000E+00  0.00000000E+00  1.00000000E+00  0.00000000E+00
  0.00000000E+00  0.00000000E+00  0.00000000E+00  0.00000000E+00  0.00000000E+00
  0.00000000E+00  4.46253853E-04  1.81536562E+00  0.00000000E+00  0.00000000E+00
  0.00000000E+00  0.00000000E+00  4.46253853E-04  1.81536562E+00  0.00000000E+00
  0.00000000E+00  0.00000000E+00  0.00000000E+00  4.46253853E-04  1.81536562E+00
  0.00000000E+00  0.00000000E+00  0.00000000E+00  0.00000000E+00  1.59360144E-03
  1.83259571E+00  0.00000000E+00  0.00000000E+00  0.00000000E+00  0.00000000E+00
  1.59360144E-03  1.83259571E+00  0.00000000E+00  0.00000000E+00  0.00000000E+00
  0.00000000E+00  0.00000000E+00  1.59360144E-03  0.00000000E+00  0.00000000E+00
  1.00000000E+00  0.00000000E+00 -1.00000000E+00 -1.00000000E+00  0.00000000E+00
  0.00000000E+00  0.00000000E+00  0.00000000E+00 -1.00000000E+00 -1.00000000E+00
  0.00000000E+00  0.00000000E+00  0.00000000E+00  0.00000000E+00 -1.00000000E+00
 -1.00000000E+00  0.00000000E+00  0.00000000E+00  0.00000000E+00  0.00000000E+00
 -5.00000000E-01 -1.66666667E-01  0.00000000E+00  0.00000000E+00  0.00000000E+00
  0.00000000E+00 -1.00000000E+00 -1.00000000E+00  0.00000000E+00  0.00000000E+00
  0.00000000E+00  0.00000000E+00 -1.00000000E+00 -1.00000000E+00  0.00000000E+00
  0.00000000E+00  0.00000000E+00  0.00000000E+00
MMPar Table                                R   N=          20
  0.00000000E+00  0.00000000E+00  0.00000000E+00  0.00000000E+00  0.00000000E+00
  0.00000000E+00  0.00000000E+00  0.00000000E+00  0.00000000E+00  0.00000000E+00
  0.00000000E+00  0.00000000E+00  0.00000000E+00  0.00000000E+00  0.00000000E+00
  0.00000000E+00  0.00000000E+00  0.00000000E+00  0.00000000E+00  0.00000000E+00
ONIOM Charges                              I   N=          16
           0           0           0           0           0           0
           0           0           0           0           0           0
           0           0           0           0
ONIOM Multiplicities                       I   N=          16
           1           0           0           0           0           0
           0           0           0           0           0           0
           0           0           0           0
Atom Layers                                I   N=           4
           1           1           1           1
Atom Modifiers                             I   N=           4
           0           0           0           0
Int Atom Modified Types                    I   N=           4
           0           0           0           0
Force Field                                I                0
Atom Modified Types                        C   N=           4
                                                
Link Atoms                                 I   N=           4
           0           0           0           0
Atom Modified MM Charges                   R   N=           4
  0.00000000E+00  0.00000000E+00  0.00000000E+00  0.00000000E+00
Link Distances                             R   N=          16
  0.00000000E+00  0.00000000E+00  0.00000000E+00  0.00000000E+00  0.00000000E+00
  0.00000000E+00  0.00000000E+00  0.00000000E+00  0.00000000E+00  0.00000000E+00
  0.00000000E+00  0.00000000E+00  0.00000000E+00  0.00000000E+00  0.00000000E+00
  0.00000000E+00
Cartesian Gradient                         R   N=          12
  2.82072519E-20  4.77182476E-04  4.67343689E-05  8.90430829E-21  1.28895295E-04
 -4.67343689E-05 -3.02307473E-20 -4.77182476E-04  4.67343689E-05 -6.88081281E-21
 -1.28895295E-04 -4.67343689E-05
Cartesian Force Constants                  R   N=          78
 -4.73335878E-03  4.16486886E-19  1.80446587E-03 -2.06315946E-19 -7.46485227E-04
  2.68535066E-03  3.32106701E-03 -2.60983008E-19  1.43220377E-19 -2.20629779E-03
 -2.75358622E-19 -9.11958166E-04  7.46485227E-04  1.92723079E-19  9.11958166E-04
  1.02560000E-19  8.24508740E-05 -1.18314957E-03 -7.33439241E-20 -8.24508740E-05
  9.48377970E-04  4.70603489E-03 -3.57187477E-19  9.88236579E-20 -3.29374312E-03
  2.16059213E-19 -7.63884669E-20 -4.73335878E-03 -3.28436249E-19 -8.92507706E-04
 -6.64034353E-04  2.01683598E-19 -7.81784941E-20  2.84053822E-20  3.84165716E-19
  1.80446587E-03  1.80144412E-19  6.64034353E-04 -1.73697269E-03 -1.17048844E-19
 -6.64034353E-04  2.34771596E-04 -1.14897871E-19  7.46485227E-04  2.68535066E-03
 -3.29374312E-03  2.01683598E-19 -3.57280897E-20  2.17897389E-03 -1.33423670E-19
  4.71723908E-20  3.32106701E-03 -2.57413066E-19  5.18023030E-20 -2.20629779E-03
  1.87307984E-19  7.81891679E-20  6.64034353E-04 -1.33423670E-19  8.16984354E-36
 -2.88847587E-36 -2.43037452E-19 -9.11958166E-04 -7.46485227E-04  1.89153138E-19
  9.11958166E-04 -7.63884669E-20  2.54750984E-20  2.34771596E-04  4.71723908E-20
 -2.88847587E-36  1.02123043E-36  9.24626803E-20 -8.24508740E-05 -1.18314957E-03
 -6.32466042E-20  8.24508740E-05  9.48377970E-04
Nonadiabatic coupling                      R   N=          12
  0.00000000E+00 -0.00000000E+00  0.00000000E+00  0.00000000E+00 -0.00000000E+00
  0.00000000E+00  0.00000000E+00 -0.00000000E+00  0.00000000E+00  0.00000000E+00
 -0.00000000E+00  0.00000000E+00
Dipole Moment                              R   N=           3
  0.00000000E+00  0.00000000E+00  0.00000000E+00
Number of Normal Modes                     I                6
Vib-LE2Fix                                 I               14
Vib-NDFDPol                                I                0
Vib-NumROA                                 I                0
Vib-NDim                                   I                4
Vib-NDim0                                  I                4
Vib-LFlags                                 I                8
Vib-IFlags                                 I   N=          48
           0           0           1           0           0           0
           0           0           0           0           2           0
           0           0           0           0           0           0
           3           0           0           0           0           0
           0           0           4           0           0           0
           0           0           0           0           5           0
           0           0           0           0           0           0
           6           0           0           0           0           0
Vib-AtMass                                 R   N=           4
  1.59949146E+01  1.00782504E+00  1.59949146E+01  1.00782504E+00
Vib-E2                                     R   N=          84
 -3.62424351E+02  5.24663713E+01  1.51290391E+02  1.53915917E+02  1.68393862E+02
  1.84554608E+02  1.13787285E+00  7.58048065E+00  1.03691176E+00  1.07757326E+00
  1.07301414E+00  1.27600393E+00  8.80599992E-02  1.22944471E-02  1.39834616E-02
  1.50405624E-02  1.79270224E-02  2.56066048E-02  0.00000000E+00  0.00000000E+00
  0.00000000E+00  0.00000000E+00  0.00000000E+00  0.00000000E+00  0.00000000E+00
  0.00000000E+00  0.00000000E+00  0.00000000E+00  0.00000000E+00  0.00000000E+00
  0.00000000E+00  0.00000000E+00  0.00000000E+00  0.00000000E+00  0.00000000E+00
  0.00000000E+00  0.00000000E+00  0.00000000E+00  0.00000000E+00  0.00000000E+00
  0.00000000E+00  0.00000000E+00  0.00000000E+00  0.00000000E+00  0.00000000E+00
  0.00000000E+00  0.00000000E+00  0.00000000E+00  0.00000000E+00  0.00000000E+00
  0.00000000E+00  0.00000000E+00  0.00000000E+00  0.00000000E+00  1.00000000E+02
  1.00000000E+02  1.00000000E+02  1.00000000E+02  1.00000000E+02  1.00000000E+02
  0.00000000E+00  0.00000000E+00  0.00000000E+00  0.00000000E+00  0.00000000E+00
  0.00000000E+00  0.00000000E+00  0.00000000E+00  0.00000000E+00  0.00000000E+00
  0.00000000E+00  0.00000000E+00  0.00000000E+00  0.00000000E+00  0.00000000E+00
  0.00000000E+00  0.00000000E+00  0.00000000E+00  0.00000000E+00  0.00000000E+00
  0.00000000E+00  0.00000000E+00  0.00000000E+00  0.00000000E+00
Vib-Modes                                  R   N=          72
 -6.58685158E-02  4.03328335E-18 -1.42598100E-18  7.04032200E-01 -4.31095390E-17
  1.52415236E-17  6.58685158E-02 -4.03328335E-18  1.42598100E-18 -7.04032200E-01
  4.31095390E-17 -1.52415236E-17  2.86809523E-17  4.68270355E-01 -3.53953012E-04
  3.23194634E-17  5.29802975E-01  5.61749114E-03 -2.86656269E-17 -4.68270355E-01
 -3.53953012E-04 -3.25626884E-17 -5.29802975E-01  5.61749114E-03 -1.73246417E-18
 -3.05123005E-02 -6.27631795E-03  1.85173530E-17  4.84252349E-01  5.14324090E-01
 -2.00421494E-18 -3.05123005E-02  6.27631795E-03  4.07864560E-17  4.84252349E-01
 -5.14324090E-01 -1.75351912E-18 -3.87801428E-02 -2.86887429E-02  2.31383709E-17
  5.38855080E-01  4.55311168E-01  2.99567865E-18  3.87801428E-02 -2.86887429E-02
 -4.28523440E-17 -5.38855080E-01  4.55311168E-01  2.68242126E-18  3.17210158E-02
 -3.41850714E-02 -3.93661395E-17 -4.51080323E-01  5.42541888E-01 -1.20228279E-18
 -3.17210158E-02 -3.41850714E-02  1.58752679E-17  4.51080323E-01  5.42541888E-01
 -3.87289642E-18 -3.17469618E-02  8.91017811E-02  4.13952517E-17  5.03847320E-01
 -4.87022465E-01 -1.49850898E-20 -3.17469618E-02 -8.91017811E-02  2.03082491E-17
  5.03847320E-01  4.87022465E-01
ClPar MaxAn                                I              200
ClPar NIntPar                              I                4
ClPar NRealPar                             I               16
ClPar NBits                                I               30
ClPar LenBitVec                            I                1
ClPar Read BitMap                          I   N=         200
           0           0           0           0           0           0
           0           0           0           0           0           0
           0           0           0           0           0           0
           0           0           0           0           0           0
           0           0           0           0           0           0
           0           0           0           0           0           0
           0           0           0           0           0           0
           0           0           0           0           0           0
           0           0           0           0           0           0
           0           0           0           0           0           0
           0           0           0           0           0           0
           0           0           0           0           0           0
           0           0           0           0           0           0
           0           0           0           0           0           0
           0           0           0           0           0           0
           0           0           0           0           0           0