 Entering Gaussian System, Link 0=g09
 Input=mmH2O2.com
 Output=mmH2O2.log
 Initial command:
 /home/emanuele/chem_software/gaussian//gdv/l1.exe "/home/emanuele/chem_software/gaussian/scratch/Gau-7793.inp" -scrdir="/home/emanuele/chem_software/gaussian/scratch/"
 Entering Link 1 = /home/emanuele/chem_software/gaussian//gdv/l1.exe PID=      7795.
  
 Copyright (c) 1988-2020, Gaussian, Inc.  All Rights Reserved.
  
 This is the private, development version of
 the Gaussian(R) DV system of programs. It is based on
 the Gaussian(R) 16 system (copyright 2016, Gaussian, Inc.),
 the Gaussian(R) 09 system (copyright 2009, Gaussian, Inc.),
 the Gaussian(R) 03 system (copyright 2003, Gaussian, Inc.),
 the Gaussian(R) 98 system (copyright 1998, Gaussian, Inc.),
 the Gaussian(R) 94 system (copyright 1995, Gaussian, Inc.),
 the Gaussian 92(TM) system (copyright 1992, Gaussian, Inc.),
 the Gaussian 90(TM) system (copyright 1990, Gaussian, Inc.),
 the Gaussian 88(TM) system (copyright 1988, Gaussian, Inc.),
 the Gaussian 86(TM) system (copyright 1986, Carnegie Mellon
 University), and the Gaussian 82(TM) system (copyright 1983,
 Carnegie Mellon University). Gaussian is a federally registered
 trademark of Gaussian, Inc.
  
 This software contains proprietary and confidential information,
 including trade secrets, belonging to Gaussian, Inc.
  
 This software is provided under written license and may be
 used, copied, transmitted, or stored only in accord with that
 written license.
  
 The following legend is applicable only to US Government
 contracts under FAR:
  
                    RESTRICTED RIGHTS LEGEND
  
 Use, reproduction and disclosure by the US Government is
 subject to restrictions as set forth in subparagraphs (a)
 and (c) of the Commercial Computer Software - Restricted
 Rights clause in FAR 52.227-19.
  
 Gaussian, Inc.
 340 Quinnipiac St., Bldg. 40, Wallingford CT 06492
  
  
 ---------------------------------------------------------------
 Warning -- This program may not be used in any manner that
 competes with the business of Gaussian, Inc. or will provide
 assistance to any competitor of Gaussian, Inc.  The licensee
 of this program is prohibited from giving any competitor of
 Gaussian, Inc. access to this program.  By using this program,
 the user acknowledges that Gaussian, Inc. is engaged in the
 business of creating and licensing software in the field of
 computational chemistry and represents and warrants to the
 licensee that it is not a competitor of Gaussian, Inc. and that
 it will not use this program in any manner prohibited above.
 ---------------------------------------------------------------
  

 Cite this work as:
 Gaussian Development Version, Revision J.14,
 M. J. Frisch, G. W. Trucks, H. B. Schlegel, G. E. Scuseria, 
 M. A. Robb, J. R. Cheeseman, G. Scalmani, V. Barone, 
 G. A. Petersson, H. Nakatsuji, X. Li, A. V. Marenich, M. Caricato, 
 J. Bloino, B. G. Janesko, J. Zheng, R. Gomperts, B. Mennucci, 
 H. P. Hratchian, J. V. Ortiz, A. F. Izmaylov, J. L. Sonnenberg, 
 D. Williams-Young, F. Ding, F. Lipparini, F. Egidi, J. Goings, 
 B. Peng, A. Petrone, T. Henderson, D. Ranasinghe, V. G. Zakrzewski, 
 J. Gao, N. Rega, G. Zheng, W. Liang, M. Hada, M. Ehara, K. Toyota, 
 R. Fukuda, J. Hasegawa, M. Ishida, T. Nakajima, Y. Honda, O. Kitao, 
 H. Nakai, T. Vreven, K. Throssell, J. A. Montgomery, Jr., 
 J. E. Peralta, F. Ogliaro, M. J. Bearpark, J. J. Heyd, 
 E. N. Brothers, K. N. Kudin, V. N. Staroverov, T. A. Keith, 
 R. Kobayashi, J. Normand, K. Raghavachari, A. P. Rendell, 
 J. C. Burant, S. S. Iyengar, J. Tomasi, M. Cossi, J. M. Millam, 
 M. Klene, C. Adamo, R. Cammi, J. W. Ochterski, R. L. Martin, 
 K. Morokuma, O. Farkas, J. B. Foresman, and D. J. Fox, 
 Gaussian, Inc., Wallingford CT, 2020.
 
 ******************************************
 Gaussian DV:  ES64L-GDVRevJ.14 29-Dec-2020
                 9-Nov-2023 
 ******************************************
 %mem=1gb
 %chk=mmH2O2.chk
 ----------------------------------------------------------------------
 #p amber=softonly geom=connectivity nosymm iop(4/33=3,7/33=1) freq=int
 modes
 ----------------------------------------------------------------------
 1/10=4,18=20,30=1,37=210000000,38=1,56=2,57=2,64=303/1,3;
 2/9=110,12=2,15=1,40=1/2;
 3/5=30,11=9,25=1,30=1,41=10030000,43=2,71=2,140=1/1;
 4/20=11,22=2,24=3,33=3/2;
 7/8=21,25=1,30=1,33=1,44=-1/16;
 1/10=4,18=20,30=1,64=303/3;
 99//99;
 Leave Link    1 at Thu Nov  9 18:04:07 2023, MaxMem=   134217728 cpu:               0.0 elap:               0.0
 (Enter /home/emanuele/chem_software/gaussian//gdv/l101.exe)
 --
 MM
 --
 Symbolic Z-matrix:
 Charge =  0 Multiplicity = 1
 O-oh--0.000          -0.71863  -0.11847  -0.05462 
 H-ho--0.000          -1.02354   0.66546   0.43671 
 O-oh--0.000           0.71864   0.11847  -0.05457 
 H-ho--0.000           1.02351  -0.66543   0.43682 
 
 ITRead=  0  0  0  0
 MicOpt= -1 -1 -1 -1
 NAtoms=      4 NQM=        4 NQMF=       0 NMMI=      0 NMMIF=      0
                NMic=       0 NMicF=      0.
                    Isotopes and Nuclear Properties:
 (Nuclear quadrupole moments (NQMom) in fm**2, nuclear magnetic moments (NMagM)
  in nuclear magnetons)

  Atom         1           2           3           4
 IAtWgt=          16           1          16           1
 AtmWgt=  15.9949146   1.0078250  15.9949146   1.0078250
 NucSpn=           0           1           0           1
 AtZEff=  -0.0000000  -0.0000000  -0.0000000  -0.0000000
 NQMom=    0.0000000   0.0000000   0.0000000   0.0000000
 NMagM=    0.0000000   2.7928460   0.0000000   2.7928460
 AtZNuc=   8.0000000   1.0000000   8.0000000   1.0000000
 Generating MM parameters.
 Read MM parameter file:
 Include all MM classes

 MM sanity checks:
 All charges sum to:                0.00000000
 Charges of atoms sum to:           0.00000000
 WARNING -- There are centers with partial charges, but
 there is no Vanderwaals repulsion. Centers can collapse
 onto each other.
 MMInit generated parameter data with length LenPar=         669.
 Leave Link  101 at Thu Nov  9 18:04:08 2023, MaxMem=   134217728 cpu:               0.2 elap:               0.2
 (Enter /home/emanuele/chem_software/gaussian//gdv/l103.exe)

 GradGradGradGradGradGradGradGradGradGradGradGradGradGradGradGradGradGrad
 Berny optimization.
 Initialization pass.
                           ----------------------------
                           !    Initial Parameters    !
                           ! (Angstroms and Degrees)  !
 --------------------------                            --------------------------
 ! Name  Definition              Value          Derivative Info.                !
 --------------------------------------------------------------------------------
 ! R1    R(1,2)                  0.9741         calculate D2E/DX2 analytically  !
 ! R2    R(1,3)                  1.4567         calculate D2E/DX2 analytically  !
 ! R3    R(3,4)                  0.9741         calculate D2E/DX2 analytically  !
 ! A1    A(2,1,3)              100.2486         calculate D2E/DX2 analytically  !
 ! A2    A(1,3,4)              100.2487         calculate D2E/DX2 analytically  !
 ! D1    D(2,1,3,4)            118.3268         calculate D2E/DX2 analytically  !
 --------------------------------------------------------------------------------
 Trust Radius=3.00D-01 FncErr=1.00D-07 GrdErr=1.00D-07 EigMax=2.50D+02 EigMin=1.00D-04
 Number of steps in this run=      2 maximum allowed number of steps=      2.
 GradGradGradGradGradGradGradGradGradGradGradGradGradGradGradGradGradGrad

 Leave Link  103 at Thu Nov  9 18:04:08 2023, MaxMem=   134217728 cpu:               0.0 elap:               0.0
 (Enter /home/emanuele/chem_software/gaussian//gdv/l202.exe)
                          Input orientation:                          
 ---------------------------------------------------------------------
 Center     Atomic      Atomic             Coordinates (Angstroms)
 Number     Number       Type             X           Y           Z
 ---------------------------------------------------------------------
      1          8    20001022       -0.718633   -0.118472   -0.054618
      2          1    20001031       -1.023538    0.665457    0.436707
      3          8    20001022        0.718637    0.118469   -0.054573
      4          1    20001031        1.023507   -0.665431    0.436821
 ---------------------------------------------------------------------
                    Distance matrix (angstroms):
                    1          2          3          4
     1  O    0.000000
     2  H    0.974122   0.000000
     3  O    1.456670   1.890959   0.000000
     4  H    1.890960   2.441651   0.974122   0.000000
 Symmetry turned off by external request.
 Stoichiometry    H2O2
 Framework group  C1[X(H2O2)]
 Deg. of freedom     6
 Full point group                 C1      NOp   1
 Rotational constants (GHZ):         298.2506017          26.3287104          25.3020285
 Leave Link  202 at Thu Nov  9 18:04:08 2023, MaxMem=   134217728 cpu:               0.0 elap:               0.0
 (Enter /home/emanuele/chem_software/gaussian//gdv/l301.exe)
 Standard basis: Dummy (5D, 7F)
     4 basis functions,     4 primitive gaussians,     4 cartesian basis functions
     3 alpha electrons        3 beta electrons
       nuclear repulsion energy         4.9621689179 Hartrees.
 IExCor=       0 DFT=F Ex=HF Corr=None N6=None ScaHFX=  1.000000
 ScaDFX=  1.000000  1.000000  1.000000  1.000000  1.000000  0.000000
 ScaDFX=  0.000000  0.000000  0.000000  0.000000  0.000000  0.000000
 IRadAn=      5 IRanWt=     -1 IRanGd=            0 ICorTp=0 IEmpDi=  4
 NAtoms=    4 NActive=    4 NUniq=    4 SFac= 1.00D+00 NAtFMM=   60 NAOKFM=F Big=F
 Integral buffers will be    131072 words long.
 Raffenetti 1 integral format.
 Two-electron integral symmetry is turned off.
 Leave Link  301 at Thu Nov  9 18:04:08 2023, MaxMem=   134217728 cpu:               0.0 elap:               0.0
 (Enter /home/emanuele/chem_software/gaussian//gdv/l402.exe)
 GetPCM: File not found, return IValue=0.
 AtDip 
                 1             2             3 
      1   0.000000D+00  0.000000D+00  0.000000D+00
      2   0.000000D+00  0.000000D+00  0.000000D+00
      3   0.000000D+00  0.000000D+00  0.000000D+00
      4   0.000000D+00  0.000000D+00  0.000000D+00
 AtQua 
                 1             2             3             4             5 
      1   0.000000D+00  0.000000D+00  0.000000D+00  0.000000D+00  0.000000D+00
      2   0.000000D+00  0.000000D+00  0.000000D+00  0.000000D+00  0.000000D+00
      3   0.000000D+00  0.000000D+00  0.000000D+00  0.000000D+00  0.000000D+00
      4   0.000000D+00  0.000000D+00  0.000000D+00  0.000000D+00  0.000000D+00
                 6 
      1   0.000000D+00
      2   0.000000D+00
      3   0.000000D+00
      4   0.000000D+00
 AtPol 
                 1 
      1   0.000000D+00
      2   0.000000D+00
      3   0.000000D+00
      4   0.000000D+00
 AMBER calculation of energy, first and second derivatives.
 No initial guess density matrices.
 EGHMM:  JobTyp=     2 NAtoms=     4.
 ****************************
 MOLECULAR MECHANICS FUNCTION
 ****************************
 Molecular mechanics terms:
 NBDir 3 1      0      0
 HrmStr1 2-1    1.00 0.9741
 HrmStr1 1-3    1.00 1.4567
 HrmStr1 4-3    1.00 0.9741
 HrmBnd1 4-3-1   1.00 100.25
 HrmBnd1 2-1-3   1.00 100.25
 AmbTrs 2-1-3-4   0   0   0   0  0.0000  1.0000  0.0000  0.0000  1.0
 NBPair 2-1 3 1      0      0 -1.000 -1.000
 NBPair 3-2 3 1      0      0 -1.000 -1.000
 NBPair 3-1 3 1      0      0 -1.000 -1.000
 NBPair 4-2 3 1      0      0 -0.500 -0.167
 NBPair 4-1 3 1      0      0 -1.000 -1.000
 NBPair 4-3 3 1      0      0 -1.000 -1.000
 Enter MMCalc
 NNonBon      3     1     0     0     0     0    0.000000    0.000000    0.000000    0.000000    0.000000    0.000000
 Non-bonded terms on-the-fly without fast algorithms, OKV=T OKC=T.
 Energy per function type:
 Direct Coulomb + vdW (small)                           0.000000000
 Direct Coulomb (large)                                 0.000000000
 Direct vdW (large)                                     0.000000000
 Non-direct Coulomb + vdW (small)                       0.000000000
 Non-direct Coulomb (large)                             0.000000000
 Non-direct vdW (large)                                 0.000000000
 Amber torsion                                          0.000717601
 Energy per function class:
        Coulomb               0.000000000
    Vanderwaals               0.000000000
     Stretching               0.000000000
        Bending               0.000000000
        Torsion               0.000717601
 Energy=    7.176006878E-04 NIter=   0.
 Dipole moment=       0.000000       0.000000       0.000000
 Derivatives in ZDOGrd:
 I=    1 X=   1.516674827834D-04 Y=  -9.202286020901D-04 Z=   1.262049163362D-03
 I=    2 X=  -1.225054079191D-04 Y=   7.433358906160D-04 Z=  -1.262043289211D-03
 I=    3 X=  -1.517584887902D-04 Y=   9.203052550086D-04 Z=   1.261983568349D-03
 I=    4 X=   1.225964139259D-04 Y=  -7.434125435345D-04 Z=  -1.261989442501D-03
 Force constants in ZDOGrd:
                1                     2                     3
   1    1.736367052863D-03
   2    3.771991804182D-04    7.557844405179D-04
   3    7.067005197009D-04    5.085843561645D-04    2.515751968860D-03
   4   -8.781497706258D-04   -3.619888973888D-04   -7.039652575223D-04
   5   -1.042070123544D-04   -3.506492259485D-04   -5.251206595027D-04
   6    4.323447596375D-05   -2.885993555803D-04   -1.850794906343D-03
   7   -8.260015661758D-04   -2.107545008126D-04    6.707358693955D-04
   8   -2.108455284095D-04   -7.822403821409D-04    7.002785716040D-04
   9   -6.707824084125D-04   -7.002451146029D-04    7.952964618517D-06
  10   -3.221571606127D-05    1.955442177832D-04   -6.734711315741D-04
  11   -6.214663965438D-05    3.771051675715D-04   -6.837422682659D-04
  12   -7.915258725214D-05    4.802601140186D-04   -6.729100271353D-04
                4                     5                     6
   4    9.178429516700D-04
   5    1.213527118074D-04    2.466856156775D-04
   6   -4.595848216475D-05    3.051443668907D-04    1.736390725210D-03
   7   -3.226962389940D-05   -6.219079703003D-05    7.920230045707D-05
   8    1.956196445550D-04    3.771176311202D-04   -4.803103200220D-04
   9    6.735050978469D-04    6.836738315723D-04   -6.728689903774D-04
  10   -7.423557144834D-06    4.504509757699D-05   -7.647829425607D-05
  11    4.501654102646D-05   -2.731540208493D-04    4.637653087117D-04
  12    7.641864184014D-05   -4.636975389603D-04    7.872731715101D-04
                7                     8                     9
   7    1.736468077351D-03
   8    3.771928247585D-04    7.557224732030D-04
   9   -7.067798087798D-04   -5.084507826336D-04    2.515713840429D-03
  10   -8.781968872757D-04   -3.619669409040D-04    7.040571193454D-04
  11   -1.042475269159D-04   -3.505997221823D-04    5.250220656641D-04
  12   -4.315836107275D-05    2.884825310516D-04   -1.850797814671D-03
               10                    11                    12
  10    9.178361604818D-04
  11    1.213776255438D-04    2.466485754601D-04
  12    4.589230648475D-05   -3.050451061099D-04    1.736434670296D-03
 Leave Link  402 at Thu Nov  9 18:04:08 2023, MaxMem=   134217728 cpu:               0.0 elap:               0.0
 (Enter /home/emanuele/chem_software/gaussian//gdv/l716.exe)
 GetPMM: IRwPM=    824 LRwPM=      0 LPMAll=      2
 FrcOut:
 IF    =        87 IFX   =        99 IFXYZ =       111
 IFFX  =       123 IFFFX =       201 IFLen =        12
 IFFLen=        78 IFFFLn=         0 IEDerv=       201
 LEDerv=       629 IFroze=      1000 ICStrt=      1053
 Dipole        = 0.00000000D+00 0.00000000D+00 0.00000000D+00
 VibFq2-Diag1:  N=     12 IV=           5 MDV=   134215831 NE2=    11184652
 Full mass-weighted force constant matrix:
 Low frequencies --- -116.0821  -44.8103   -0.0000   -0.0000   -0.0000   20.5588
 Low frequencies ---   52.8146  119.0523  164.0324
 OrtVCM:  Ph=1 IPass= 1 DotMx1= 0.00D+00
 OrtVCM:  IS=    1 I=    1 IndO=    1 Dot= 1.00D+00 DotN= 1.00D+00 ElMax1= 6.86D-01 ElMax1N= 6.86D-01
 OrtVCM:  Ph=2 NNew=    0 IAdd=    2 IPass= 1 DotMx2= 0.00D+00
 OrtVCM:  IS=    1 I=    2 IndO=    2 Dot= 1.00D+00 DotN= 1.00D+00 ElMax1= 6.86D-01 ElMax1N= 6.86D-01
 OrtVCM:  Ph=2 NNew=    0 IAdd=    3 IPass= 1 DotMx2= 0.00D+00
 OrtVCM:  IS=    1 I=    3 IndO=    3 Dot= 1.00D+00 DotN= 1.00D+00 ElMax1= 6.86D-01 ElMax1N= 6.86D-01
 OrtVCM:  Ph=2 NNew=    0 IAdd=    4 IPass= 1 DotMx2= 1.39D-17
 OrtVCM:  IS=    1 I=    4 IndO=    4 Dot= 1.00D+00 DotN= 1.00D+00 ElMax1= 5.73D-01 ElMax1N= 5.73D-01
 OrtVCM:  Ph=2 NNew=    0 IAdd=    5 IPass= 1 DotMx2= 1.39D-16
 OrtVCM:  IS=    1 I=    5 IndO=    5 Dot= 1.00D+00 DotN= 1.00D+00 ElMax1= 6.62D-01 ElMax1N= 6.62D-01
 OrtVCM:  Ph=2 NNew=    0 IAdd=    6 IPass= 1 DotMx2= 6.95D-17
 OrtVCM:  IS=    1 I=    6 IndO=    6 Dot= 1.00D+00 DotN= 1.00D+00 ElMax1= 6.43D-01 ElMax1N= 6.43D-01
 OrtVCM:  Ph=1 IPass= 1 DotMx1= 6.86D-01
 OrtVCM:  Ph=1 IPass= 2 DotMx1= 1.42D-16
 OrtVCM:  IS=    1 I=    1 IndO=    7 Dot= 5.18D-01 DotN= 5.18D-01 ElMax1= 5.18D-01 ElMax1N= 5.18D-01
 OrtVCM:  Ph=2 NNew=    0 IAdd=    2 IPass= 1 DotMx2= 9.55D-02
 OrtVCM:  Ph=2 NNew=    0 IAdd=    2 IPass= 2 DotMx2= 6.05D-17
 OrtVCM:  IS=    1 I=    2 IndO=    8 Dot= 9.90D-02 DotN= 9.90D-02 ElMax1= 2.37D-01 ElMax1N= 2.37D-01
 OrtVCM:  Ph=2 NNew=    0 IAdd=    3 IPass= 1 DotMx2= 5.19D-02
 OrtVCM:  Ph=2 NNew=    0 IAdd=    3 IPass= 2 DotMx2= 1.91D-17
 OrtVCM:  IS=    1 I=    3 IndO=    9 Dot= 5.08D-02 DotN= 5.08D-02 ElMax1= 1.47D-01 ElMax1N= 1.47D-01
 OrtVCM:  Ph=2 NNew=    0 IAdd=    4 IPass= 1 DotMx2= 2.71D-01
 OrtVCM:  Ph=2 NNew=    0 IAdd=    4 IPass= 2 DotMx2= 8.87D-17
 OrtVCM:  IS=    1 I=    4 IndO=   10 Dot= 7.99D-01 DotN= 7.99D-01 ElMax1= 7.99D-01 ElMax1N= 7.99D-01
 OrtVCM:  Ph=2 NNew=    0 IAdd=    5 IPass= 1 DotMx2= 7.54D-01
 OrtVCM:  Ph=2 NNew=    0 IAdd=    5 IPass= 2 DotMx2= 7.29D-17
 OrtVCM:  IS=    1 I=    5 IndO=   11 Dot= 1.14D-01 DotN= 1.14D-01 ElMax1= 2.54D-01 ElMax1N= 2.54D-01
 OrtVCM:  Ph=2 NNew=    0 IAdd=    6 IPass= 1 DotMx2= 6.52D-01
 OrtVCM:  Ph=2 NNew=    0 IAdd=    6 IPass= 2 DotMx2= 8.97D-17
 OrtVCM:  IS=    1 I=    6 IndO=    0 Dot= 3.75D-32 DotN= 3.75D-32 ElMax1= 1.11D-16 ElMax1N= 1.11D-16
 SchOr2:  IPass= 1 Test2A= 1.00D-01 IOff=     0 NDo=     6 NNew=     5
 OrtVCM:  Ph=1 IPass= 1 DotMx1= 6.86D-01
 OrtVCM:  Ph=1 IPass= 2 DotMx1= 1.51D-16
 OrtVCM:  IS=    1 I=    1 IndO=    0 Dot= 5.81D-03 DotN= 5.81D-03 ElMax1= 5.95D-02 ElMax1N= 5.95D-02
 SchOr2:  IPass= 1 Test2A= 1.00D-01 IOff=     6 NDo=     1 NNew=     0
 OrtVCM:  Ph=1 IPass= 1 DotMx1= 6.86D-01
 OrtVCM:  Ph=1 IPass= 2 DotMx1= 1.25D-16
 OrtVCM:  IS=    1 I=    1 IndO=   12 Dot= 3.84D-02 DotN= 3.84D-02 ElMax1= 1.53D-01 ElMax1N= 1.53D-01
 SchOr2:  IPass= 1 Test2A= 1.00D-01 IOff=     7 NDo=     1 NNew=     1
 VibFq2-Diag2:  N=      6 IV=           5 MDV=   134215831 NE2=    22369304
 Dipole derivative wrt mode   1:  0.00000D+00  0.00000D+00  0.00000D+00
 Dipole derivative wrt mode   2:  0.00000D+00  0.00000D+00  0.00000D+00
 Dipole derivative wrt mode   3:  0.00000D+00  0.00000D+00  0.00000D+00
 Dipole derivative wrt mode   4:  0.00000D+00  0.00000D+00  0.00000D+00
 Dipole derivative wrt mode   5:  0.00000D+00  0.00000D+00  0.00000D+00
 Dipole derivative wrt mode   6:  0.00000D+00  0.00000D+00  0.00000D+00
 Diagonal vibrational polarizability:
        0.0000000       0.0000000       0.0000000
 NorSel:  MapVib=      1      2      3      4      5      6
 Harmonic frequencies (cm**-1), IR intensities (KM/Mole), Raman scattering
 activities (A**4/AMU), depolarization ratios for plane and unpolarized
 incident light, reduced masses (AMU), force constants (mDyne/A),
 and normal coordinates:
                      1                      2                      3
                      A                      A                      A
 Frequencies --     52.7513               119.0161               155.2918
 Red. masses --      7.8939                 1.0836                 1.0581
 Frc consts  --      0.0129                 0.0090                 0.0150
 IR Inten    --      0.0000                 0.0000                 0.0000
  Atom  AN      X      Y      Z        X      Y      Z        X      Y      Z
     1   8     0.48   0.05   0.00     0.01  -0.05  -0.00     0.03  -0.03  -0.01
     2   1     0.52   0.03  -0.00    -0.18   0.68   0.06    -0.44   0.46   0.31
     3   8    -0.48  -0.05   0.00    -0.01   0.05  -0.00     0.03  -0.03   0.01
     4   1    -0.52  -0.03  -0.00     0.18  -0.68   0.06    -0.44   0.46  -0.31
                      4                      5                      6
                      A                      A                      A
 Frequencies --    162.7155               174.7052               265.9139
 Red. masses --      1.1658                 1.1111                 1.0673
 Frc consts  --      0.0182                 0.0200                 0.0445
 IR Inten    --      0.0000                 0.0000                 0.0000
  Atom  AN      X      Y      Z        X      Y      Z        X      Y      Z
     1   8    -0.04  -0.06  -0.00    -0.03  -0.03  -0.04    -0.00   0.00  -0.04
     2   1     0.69   0.13   0.01     0.55   0.40   0.18     0.01  -0.06   0.70
     3   8     0.04   0.06  -0.00    -0.03  -0.03   0.04     0.00  -0.00  -0.04
     4   1    -0.69  -0.13   0.01     0.55   0.40  -0.18    -0.01   0.06   0.70

 -------------------
 - Thermochemistry -
 -------------------
 Temperature   298.150 Kelvin.  Pressure      1.00000 Atm.
 Atom     1 has atomic number  8 and mass  15.99491
 Atom     2 has atomic number  1 and mass   1.00783
 Atom     3 has atomic number  8 and mass  15.99491
 Atom     4 has atomic number  1 and mass   1.00783
 Molecular mass:    34.00548 amu.
 Principal axes and moments of inertia in atomic units:
                                 1                 2                 3
     Eigenvalues --            6.051090         68.546510         71.327926
           X                   0.996999         -0.077411         -0.000036
           Y                   0.077411          0.996999          0.000030
           Z                   0.000033         -0.000033          1.000000
 This molecule is an asymmetric top.
 Rotational symmetry number  1.
 Rotational temperatures (Kelvin)     14.31377     1.26358     1.21431
 Rotational constants (GHZ):         298.25060    26.32871    25.30203
 Zero-point vibrational energy       5565.0 (Joules/Mol)
                                    1.33006 (Kcal/Mol)
 Warning -- explicit consideration of   6 degrees of freedom as
           vibrations may cause significant error
 Vibrational temperatures:     75.90   171.24   223.43   234.11   251.36
          (Kelvin)            382.59
 
 Zero-point correction=                           0.002120 (Hartree/Particle)
 Thermal correction to Energy=                    0.008802
 Thermal correction to Enthalpy=                  0.009746
 Thermal correction to Gibbs Free Energy=        -0.024223
 Sum of electronic and zero-point Energies=              0.002837
 Sum of electronic and thermal Energies=                 0.009519
 Sum of electronic and thermal Enthalpies=               0.010464
 Sum of electronic and thermal Free Energies=           -0.023505
 
                     E (Thermal)             CV                S
                      KCal/Mol        Cal/Mol-Kelvin    Cal/Mol-Kelvin
 Total                    5.523             17.266             71.494
 Electronic               0.000              0.000              0.000
 Translational            0.889              2.981             36.503
 Rotational               0.889              2.981             18.032
 Vibrational              3.746             11.304             16.959
 Vibration     1          0.596              1.977              4.711
 Vibration     2          0.609              1.933              3.116
 Vibration     3          0.620              1.897              2.606
 Vibration     4          0.623              1.888              2.518
 Vibration     5          0.627              1.874              2.384
 Vibration     6          0.672              1.736              1.623
                       Q            Log10(Q)             Ln(Q)
 Total Bot       0.138619D+12         11.141821         25.654991
 Total V=0       0.130848D+13         12.116766         27.899884
 Vib (Bot)       0.913396D+01          0.960659          2.211999
 Vib (Bot)    1  0.391774D+01          0.593036          1.365515
 Vib (Bot)    2  0.171745D+01          0.234883          0.540838
 Vib (Bot)    3  0.130370D+01          0.115178          0.265206
 Vib (Bot)    4  0.124140D+01          0.093912          0.216240
 Vib (Bot)    5  0.115173D+01          0.061349          0.141261
 Vib (Bot)    6  0.728286D+00         -0.137698         -0.317062
 Vib (V=0)       0.862191D+02          1.935604          4.456892
 Vib (V=0)    1  0.444952D+01          0.648313          1.492796
 Vib (V=0)    2  0.228875D+01          0.359598          0.828005
 Vib (V=0)    3  0.189629D+01          0.277905          0.639901
 Vib (V=0)    4  0.183831D+01          0.264419          0.608847
 Vib (V=0)    5  0.175558D+01          0.244420          0.562797
 Vib (V=0)    6  0.138340D+01          0.140949          0.324546
 Electronic      0.100000D+01          0.000000          0.000000
 Translational   0.779430D+07          6.891777         15.868904
 Rotational      0.194708D+04          3.289385          7.574089
 Write normal modes, IRwNMS=   765 IRotNM= 0 NVibU=     6.
                           ----------------------------
                           ! Normal Mode     1        !
 --------------------------                            --------------------------
 ! Name  Definition              Value          Relative Weight (%)             !
 --------------------------------------------------------------------------------
 ! R1    R(1,2)                 -0.0303                  2.7                    !
 ! R2    R(1,3)                 -0.9564                 86.7                    !
 ! R3    R(3,4)                 -0.0303                  2.7                    !
 ! A1    A(2,1,3)               -0.0382                  3.5                    !
 ! A2    A(1,3,4)               -0.0382                  3.5                    !
 --------------------------------------------------------------------------------
                           ----------------------------
                           ! Normal Mode     2        !
 --------------------------                            --------------------------
 ! Name  Definition              Value          Relative Weight (%)             !
 --------------------------------------------------------------------------------
 ! R1    R(1,2)                  0.6773                 36.6                    !
 ! R3    R(3,4)                  0.6773                 36.6                    !
 ! D1    D(2,1,3,4)              0.3729                 20.1                    !
 --------------------------------------------------------------------------------
                           ----------------------------
                           ! Normal Mode     3        !
 --------------------------                            --------------------------
 ! Name  Definition              Value          Relative Weight (%)             !
 --------------------------------------------------------------------------------
 ! R1    R(1,2)                  0.6996                 41.8                    !
 ! R3    R(3,4)                 -0.6996                 41.8                    !
 ! A1    A(2,1,3)                0.1369                  8.2                    !
 ! A2    A(1,3,4)               -0.1369                  8.2                    !
 --------------------------------------------------------------------------------
                           ----------------------------
                           ! Normal Mode     4        !
 --------------------------                            --------------------------
 ! Name  Definition              Value          Relative Weight (%)             !
 --------------------------------------------------------------------------------
 ! R1    R(1,2)                 -0.0719                  6.1                    !
 ! R2    R(1,3)                  0.1023                  8.7                    !
 ! R3    R(3,4)                 -0.0719                  6.1                    !
 ! A1    A(2,1,3)               -0.4415                 37.7                    !
 ! A2    A(1,3,4)               -0.4415                 37.7                    !
 --------------------------------------------------------------------------------
                           ----------------------------
                           ! Normal Mode     5        !
 --------------------------                            --------------------------
 ! Name  Definition              Value          Relative Weight (%)             !
 --------------------------------------------------------------------------------
 ! R1    R(1,2)                  0.2684                 20.1                    !
 ! R3    R(3,4)                 -0.2684                 20.1                    !
 ! A1    A(2,1,3)               -0.3992                 29.9                    !
 ! A2    A(1,3,4)                0.3992                 29.9                    !
 --------------------------------------------------------------------------------
                           ----------------------------
                           ! Normal Mode     6        !
 --------------------------                            --------------------------
 ! Name  Definition              Value          Relative Weight (%)             !
 --------------------------------------------------------------------------------
 ! R1    R(1,2)                  0.3258                 22.4                    !
 ! R3    R(3,4)                  0.3258                 22.4                    !
 ! D1    D(2,1,3,4)             -0.7439                 51.1                    !
 --------------------------------------------------------------------------------
 Max01P=      6 Av01P=    4.83 Stan. Dev.=    0.75
 Max05P=      5 Av05P=    3.33 Stan. Dev.=    1.37
 Max10P=      4 Av10P=    2.50 Stan. Dev.=    1.05
 MaxNDP=      7 AvNDP=    5.00 Stan. Dev.=    1.90
 -------------------------------------------------------------------
 Center     Atomic                   Forces (Hartrees/Bohr)
 Number     Number              X              Y              Z
 -------------------------------------------------------------------
      1        8          -0.000151667    0.000920229   -0.001262049
      2        1           0.000122505   -0.000743336    0.001262043
      3        8           0.000151758   -0.000920305   -0.001261984
      4        1          -0.000122596    0.000743413    0.001261989
 -------------------------------------------------------------------
 Cartesian Forces:  Max     0.001262049 RMS     0.000877772
 Force constants in Cartesian coordinates: 
                1             2             3             4             5 
      1  0.173637D-02
      2  0.377199D-03  0.755784D-03
      3  0.706701D-03  0.508584D-03  0.251575D-02
      4 -0.878150D-03 -0.361989D-03 -0.703965D-03  0.917843D-03
      5 -0.104207D-03 -0.350649D-03 -0.525121D-03  0.121353D-03  0.246686D-03
      6  0.432345D-04 -0.288599D-03 -0.185079D-02 -0.459585D-04  0.305144D-03
      7 -0.826002D-03 -0.210755D-03  0.670736D-03 -0.322696D-04 -0.621908D-04
      8 -0.210846D-03 -0.782240D-03  0.700279D-03  0.195620D-03  0.377118D-03
      9 -0.670782D-03 -0.700245D-03  0.795296D-05  0.673505D-03  0.683674D-03
     10 -0.322157D-04  0.195544D-03 -0.673471D-03 -0.742356D-05  0.450451D-04
     11 -0.621466D-04  0.377105D-03 -0.683742D-03  0.450165D-04 -0.273154D-03
     12 -0.791526D-04  0.480260D-03 -0.672910D-03  0.764186D-04 -0.463698D-03
                6             7             8             9            10 
      6  0.173639D-02
      7  0.792023D-04  0.173647D-02
      8 -0.480310D-03  0.377193D-03  0.755722D-03
      9 -0.672869D-03 -0.706780D-03 -0.508451D-03  0.251571D-02
     10 -0.764783D-04 -0.878197D-03 -0.361967D-03  0.704057D-03  0.917836D-03
     11  0.463765D-03 -0.104248D-03 -0.350600D-03  0.525022D-03  0.121378D-03
     12  0.787273D-03 -0.431584D-04  0.288483D-03 -0.185080D-02  0.458923D-04
               11            12 
     11  0.246649D-03
     12 -0.305045D-03  0.173643D-02
 Cartesian forces in FCRed:
 I=    1 X=  -1.516674827834D-04 Y=   9.202286020901D-04 Z=  -1.262049163362D-03
 I=    2 X=   1.225054079191D-04 Y=  -7.433358906160D-04 Z=   1.262043289211D-03
 I=    3 X=   1.517584887902D-04 Y=  -9.203052550086D-04 Z=  -1.261983568349D-03
 I=    4 X=  -1.225964139259D-04 Y=   7.434125435345D-04 Z=   1.261989442501D-03
 Cartesian force constants in FCRed: 
                1             2             3             4             5 
      1  0.173637D-02
      2  0.377199D-03  0.755784D-03
      3  0.706701D-03  0.508584D-03  0.251575D-02
      4 -0.878150D-03 -0.361989D-03 -0.703965D-03  0.917843D-03
      5 -0.104207D-03 -0.350649D-03 -0.525121D-03  0.121353D-03  0.246686D-03
      6  0.432345D-04 -0.288599D-03 -0.185079D-02 -0.459585D-04  0.305144D-03
      7 -0.826002D-03 -0.210755D-03  0.670736D-03 -0.322696D-04 -0.621908D-04
      8 -0.210846D-03 -0.782240D-03  0.700279D-03  0.195620D-03  0.377118D-03
      9 -0.670782D-03 -0.700245D-03  0.795296D-05  0.673505D-03  0.683674D-03
     10 -0.322157D-04  0.195544D-03 -0.673471D-03 -0.742356D-05  0.450451D-04
     11 -0.621466D-04  0.377105D-03 -0.683742D-03  0.450165D-04 -0.273154D-03
     12 -0.791526D-04  0.480260D-03 -0.672910D-03  0.764186D-04 -0.463698D-03
                6             7             8             9            10 
      6  0.173639D-02
      7  0.792023D-04  0.173647D-02
      8 -0.480310D-03  0.377193D-03  0.755722D-03
      9 -0.672869D-03 -0.706780D-03 -0.508451D-03  0.251571D-02
     10 -0.764783D-04 -0.878197D-03 -0.361967D-03  0.704057D-03  0.917836D-03
     11  0.463765D-03 -0.104248D-03 -0.350600D-03  0.525022D-03  0.121378D-03
     12  0.787273D-03 -0.431584D-04  0.288483D-03 -0.185080D-02  0.458923D-04
               11            12 
     11  0.246649D-03
     12 -0.305045D-03  0.173643D-02
 Internal coordinates in FCRed: 
                 1 
      1   0.184082D+01
      2   0.275271D+01
      3   0.184082D+01
      4   0.174967D+01
      5   0.174967D+01
      6   0.206519D+01
 FormGI is forming the generalized inverse of G from B-inverse, IUseBI=4.
 NTrRot=    -1 NTRed=     6 NAtoms=     4 NSkip=     0 NRank=     6 IsLin=F
 Internal forces in FCRed: 
                 1 
      1   0.000000D+00
      2   0.000000D+00
      3   0.000000D+00
      4   0.000000D+00
      5   0.000000D+00
      6  -0.266247D-02
 Internal force constants in FCRed: 
                1             2             3             4             5 
      1  0.892508D-03
      2  0.000000D+00  0.892508D-03
      3  0.000000D+00  0.000000D+00  0.892508D-03
      4  0.000000D+00  0.000000D+00  0.000000D+00  0.318720D-02
      5  0.000000D+00  0.000000D+00  0.000000D+00  0.000000D+00  0.318720D-02
      6  0.000000D+00  0.000000D+00  0.000000D+00  0.000000D+00  0.000000D+00
                6 
      6  0.350400D-02
 Force constants in internal coordinates: 
                1             2             3             4             5 
      1  0.892508D-03
      2  0.000000D+00  0.892508D-03
      3  0.000000D+00  0.000000D+00  0.892508D-03
      4  0.000000D+00  0.000000D+00  0.000000D+00  0.318720D-02
      5  0.000000D+00  0.000000D+00  0.000000D+00  0.000000D+00  0.318720D-02
      6  0.000000D+00  0.000000D+00  0.000000D+00  0.000000D+00  0.000000D+00
                6 
      6  0.350400D-02
 Final forces over variables, Energy= 7.17600688D-04:
 -2.71299221D-09 4.12309566D-10-2.68998229D-09-2.03030652D-09
 -3.24601310D-09-2.66247120D-03
 Leave Link  716 at Thu Nov  9 18:04:08 2023, MaxMem=   134217728 cpu:               0.0 elap:               0.0
 (Enter /home/emanuele/chem_software/gaussian//gdv/l103.exe)

 GradGradGradGradGradGradGradGradGradGradGradGradGradGradGradGradGradGrad
 Berny optimization.
 Internal  Forces:  Max     0.002662471 RMS     0.001086949
 Search for a local minimum.
 Step number   1 out of a maximum of    2
 All quantities printed in internal units (Hartrees-Bohrs-Radians)
 Second derivative matrix not updated -- analytic derivatives used.
 The second derivative matrix:
                          R1        R2        R3        A1        A2
           R1           0.00089
           R2           0.00000   0.00089
           R3           0.00000  -0.00000   0.00089
           A1           0.00000  -0.00000   0.00000   0.00319
           A2          -0.00000  -0.00000  -0.00000  -0.00000   0.00319
           D1           0.00000  -0.00000  -0.00000   0.00000   0.00000
                          D1
           D1           0.00350
 ITU=  0
     Eigenvalues ---    0.00089   0.00089   0.00089   0.00319   0.00319
     Eigenvalues ---    0.00350
 Quadratic step=7.598D-01 exceeds max=3.000D-01 adjusted using Lamda=-5.345D-03.
 Angle between NR and scaled steps=   0.00 degrees.
 Angle between quadratic step and forces=   0.00 degrees.
 Linear search not attempted -- first point.
 Iteration  1 RMS(Cart)=  0.07582725 RMS(Int)=  0.04189000
 Iteration  2 RMS(Cart)=  0.03910611 RMS(Int)=  0.00139989
 Iteration  3 RMS(Cart)=  0.00097682 RMS(Int)=  0.00000035
 Iteration  4 RMS(Cart)=  0.00000058 RMS(Int)=  0.00000000
 ITry= 1 IFail=0 DXMaxC= 1.11D-01 DCOld= 1.00D+10 DXMaxT= 3.00D-01 DXLimC= 3.00D+00 Rises=F
 Variable       Old X    -DE/DX   Delta X   Delta X   Delta X     New X
                                 (Linear)    (Quad)   (Total)
    R1        1.84082  -0.00000   0.00000  -0.00000  -0.00000   1.84082
    R2        2.75271   0.00000   0.00000   0.00000   0.00000   2.75271
    R3        1.84082  -0.00000   0.00000  -0.00000  -0.00000   1.84082
    A1        1.74967  -0.00000   0.00000  -0.00000  -0.00000   1.74967
    A2        1.74967  -0.00000   0.00000  -0.00000  -0.00000   1.74967
    D1        2.06519  -0.00266   0.00000  -0.30088  -0.30088   1.76431
         Item               Value     Threshold  Converged?
 Maximum Force            0.002662     0.000450     NO 
 RMS     Force            0.001087     0.000300     NO 
 Maximum Displacement     0.111316     0.001800     NO 
 RMS     Displacement     0.114194     0.001200     NO 
 Predicted change in Energy=-6.424786D-04
                           ----------------------------
                           ! Non-Optimized Parameters !
                           ! (Angstroms and Degrees)  !
 --------------------------                            --------------------------
 ! Name  Definition              Value          Derivative Info.                !
 --------------------------------------------------------------------------------
 ! R1    R(1,2)                  0.9741         -DE/DX =    0.0                 !
 ! R2    R(1,3)                  1.4567         -DE/DX =    0.0                 !
 ! R3    R(3,4)                  0.9741         -DE/DX =    0.0                 !
 ! A1    A(2,1,3)              100.2486         -DE/DX =    0.0                 !
 ! A2    A(1,3,4)              100.2486         -DE/DX =    0.0                 !
 ! D1    D(2,1,3,4)            101.0876         -DE/DX =   -0.0027              !
 --------------------------------------------------------------------------------
 GradGradGradGradGradGradGradGradGradGradGradGradGradGradGradGradGradGrad

 Leave Link  103 at Thu Nov  9 18:04:08 2023, MaxMem=   134217728 cpu:               0.0 elap:               0.0
 (Enter /home/emanuele/chem_software/gaussian//gdv/l9999.exe)

 Test job not archived.
 1\1\GINC-EMANUELE-XPS-13-9343\Freq\AMBER\ZDO\H2O2\EMANUELE\09-Nov-2023
 \0\\#p amber=softonly geom=connectivity nosymm iop(4/33=3,7/33=1) freq
 =intmodes\\MM\\0,1\O,-0.718633164,-0.1184722951,-0.0546176185\H,-1.023
 5382452,0.665457464,0.4367070528\O,0.7186370323,0.1184689581,-0.054573
 365\H,1.0235072725,-0.665430767,0.4368208142\\Version=ES64L-GDVRevJ.14
 \HF=0.0007176\RMSD=0.000e+00\RMSF=8.778e-04\ZeroPoint=0.0021196\Therma
 l=0.0088018\ETot=0.0095194\HTot=0.0104636\GTot=-0.0235055\Dipole=0.,0.
 ,0.\PG=C01 [X(H2O2)]\NImag=0\\0.00173637,0.00037720,0.00075578,0.00070
 670,0.00050858,0.00251575,-0.00087815,-0.00036199,-0.00070397,0.000917
 84,-0.00010421,-0.00035065,-0.00052512,0.00012135,0.00024669,0.0000432
 3,-0.00028860,-0.00185079,-0.00004596,0.00030514,0.00173639,-0.0008260
 0,-0.00021075,0.00067074,-0.00003227,-0.00006219,0.00007920,0.00173647
 ,-0.00021085,-0.00078224,0.00070028,0.00019562,0.00037712,-0.00048031,
 0.00037719,0.00075572,-0.00067078,-0.00070025,0.00000795,0.00067351,0.
 00068367,-0.00067287,-0.00070678,-0.00050845,0.00251571,-0.00003222,0.
 00019554,-0.00067347,-0.00000742,0.00004505,-0.00007648,-0.00087820,-0
 .00036197,0.00070406,0.00091784,-0.00006215,0.00037711,-0.00068374,0.0
 0004502,-0.00027315,0.00046377,-0.00010425,-0.00035060,0.00052502,0.00
 012138,0.00024665,-0.00007915,0.00048026,-0.00067291,0.00007642,-0.000
 46370,0.00078727,-0.00004316,0.00028848,-0.00185080,0.00004589,-0.0003
 0505,0.00173643\\0.00015167,-0.00092023,0.00126205,-0.00012251,0.00074
 334,-0.00126204,-0.00015176,0.00092031,0.00126198,0.00012260,-0.000743
 41,-0.00126199\\\@


 ACTORS ARE SO FORTUNATE.  THEY CAN CHOOSE WHETHER
 THEY WILL APPEAR IN A TRAGEDY OR IN COMEDY,
 WHETHER THEY WILL SUFFER OF MAKE MERRY,
 LAUGH OR SHED TEARS.  BUT IN REAL LIFE IT IS DIFFERENT.
 MOST MEN AND WOMEN ARE FORCED TO PERFORM
 PARTS FOR WHICH THEY HAVE NO QUALIFICATIONS.
 THE WORLD IS A STAGE, BUT THE PLAY IS BADLY CAST.

                                   -- OSCAR WILDE
 Job cpu time:       0 days  0 hours  0 minutes  0.5 seconds.
 Elapsed time:       0 days  0 hours  0 minutes  0.4 seconds.
 File lengths (MBytes):  RWF=      6 Int=      0 D2E=      0 Chk=      1 Scr=      1
 Normal termination of Gaussian DV at Thu Nov  9 18:04:08 2023.
