MM                                                                      
Freq      RAMBER                                                      ZDO                 
Number of atoms                            I                4
Info1-9                                    I   N=           9
          27          27           0           0           0         101
           6           8        1101
Full Title                                 C   N=           1
MM          
Route                                      C   N=           7
#p amber=softfirst geom=connectivity nosymm iop(4/33=3,7/33=
1) freq=intmodes        
Charge                                     I                0
Multiplicity                               I                1
Number of electrons                        I                6
Number of alpha electrons                  I                3
Number of beta electrons                   I                3
Number of basis functions                  I                0
Number of independent functions            I                0
Number of point charges in /Mol/           I                0
Number of translation vectors              I                0
Atomic numbers                             I   N=           4
           8           1           8           1
Nuclear charges                            R   N=           4
  2.00000000E+00  1.00000000E+00  2.00000000E+00  1.00000000E+00
Current cartesian coordinates              R   N=          12
 -1.35801986E+00 -2.23880191E-01 -1.03212341E-01 -1.93420696E+00  1.25753235E+00
  8.25256726E-01  1.35802717E+00  2.23873885E-01 -1.03128714E-01  1.93414843E+00
 -1.25748190E+00  8.25471704E-01
Number of symbols in /Mol/                 I                0
Redundant internal dimensions              I   N=           4
           6           3           2           1
Redundant internal coordinate indices      I   N=          24
           1           2           0           0           1           3
           0           0           3           4           0           0
           2           1           3           0           1           3
           4           0           2           1           3           4
Redundant internal coordinates             R   N=           6
  1.84082305E+00  2.75270689E+00  1.84082303E+00  1.74966878E+00  1.74966916E+00
  2.06519269E+00
ZRed-IntVec                                I   N=           6
           0           0           0           0           0           0
ZRed-FPVec                                 R   N=           6
  0.00000000E+00  0.00000000E+00  0.00000000E+00  0.00000000E+00  0.00000000E+00
  0.00000000E+00
ZRed-Constraint1                           R   N=           6
  1.84082305E+00  2.75270689E+00  1.84082303E+00  1.74966878E+00  1.74966916E+00
  2.06519269E+00
ZRed-Constraint2                           R   N=           6
  0.00000000E+00  0.00000000E+00  0.00000000E+00  0.00000000E+00  0.00000000E+00
  0.00000000E+00
Force Field                                I                2
Atom Types                                 C   N=           4
#200OH      #200HO      #200OH      #200HO      
Int Atom Types                             I   N=           4
    20001022    20001031    20001022    20001031
MM charges                                 R   N=           4
  7.90505033-323  4.94065646-324  7.90505033-323  4.94065646-324
Integer atomic weights                     I   N=           4
           0           0           0           0
Real atomic weights                        R   N=           4
  0.00000000E+00  0.00000000E+00  0.00000000E+00  0.00000000E+00
Atom fragment info                         I   N=           4
           0           0           0           0
Atom residue num                           I   N=           4
           0           0           0           0
Nuclear spins                              I   N=           4
           0           0           0           0
Nuclear ZEff                               R   N=           4
  0.00000000E+00  0.00000000E+00  0.00000000E+00  0.00000000E+00
Nuclear ZNuc                               R   N=           4
  0.00000000E+00  0.00000000E+00  0.00000000E+00  0.00000000E+00
Nuclear QMom                               R   N=           4
  0.00000000E+00  0.00000000E+00  0.00000000E+00  0.00000000E+00
Nuclear GFac                               R   N=           4
  0.00000000E+00  0.00000000E+00  0.00000000E+00  0.00000000E+00
MicOpt                                     I   N=           4
           0           0           0           0
Number of residues                         I                0
Number of secondary structures             I                0
Number of contracted shells                I                4
Number of primitive shells                 I                4
Pure/Cartesian d shells                    I                0
Pure/Cartesian f shells                    I                0
Highest angular momentum                   I                0
Largest degree of contraction              I                1
Shell types                                I   N=           4
           0           0           0           0
Number of primitives per shell             I   N=           4
           1           1           1           1
Shell to atom map                          I   N=           4
           1           2           3           4
Primitive exponents                        R   N=           4
  1.00000000E+00  1.00000000E+00  1.00000000E+00  1.00000000E+00
Contraction coefficients                   R   N=           4
  1.00000000E+00  1.00000000E+00  1.00000000E+00  1.00000000E+00
Coordinates of each shell                  R   N=          12
 -1.35801986E+00 -2.23880191E-01 -1.03212341E-01 -1.93420696E+00  1.25753235E+00
  8.25256726E-01  1.35802717E+00  2.23873885E-01 -1.03128714E-01  1.93414843E+00
 -1.25748190E+00  8.25471704E-01
Constraint Structure                       R   N=          12
 -1.35801986E+00 -2.23880191E-01 -1.03212341E-01 -1.93420696E+00  1.25753235E+00
  8.25256726E-01  1.35802717E+00  2.23873885E-01 -1.03128714E-01  1.93414843E+00
 -1.25748190E+00  8.25471704E-01
Num ILSW                                   I              100
ILSW                                       I   N=         100
           0           0           0           0           0           0
           0           0           0           0           0          -1
           5           0           0           0           2           0
           0           0           0           0           1           0
           1           1           0           0           0           0
           0           0      100000           0          -1           0
           0           0           0           0           0           0
           0           0           0         101           0           0
           0 -2000000000           1           0           0           0
           0           0           4          41           0           0
           0           0           0           0           0           0
           0           0           0           4           0           1
           0           0           0           0           0           0
           0           0           0           0           0           0
           0           0           0           0           0           0
           0           0           0           0           0           0
           0           0           0           0
Num RLSW                                   I               41
RLSW                                       R   N=          41
  1.00000000E+00  1.00000000E+00  1.00000000E+00  1.00000000E+00  1.00000000E+00
  0.00000000E+00  0.00000000E+00  1.00000000E+00  0.00000000E+00  0.00000000E+00
  0.00000000E+00  0.00000000E+00  1.00000000E+00  0.00000000E+00  0.00000000E+00
  0.00000000E+00  0.00000000E+00  1.00000000E+00  0.00000000E+00  0.00000000E+00
  0.00000000E+00  0.00000000E+00  1.00000000E+00  0.00000000E+00  0.00000000E+00
  0.00000000E+00  0.00000000E+00  1.00000000E+00  0.00000000E+00  0.00000000E+00
  0.00000000E+00  0.00000000E+00  1.00000000E+00  0.00000000E+00  0.00000000E+00
  0.00000000E+00  0.00000000E+00  0.00000000E+00  1.00000000E+00  1.00000000E+00
  0.00000000E+00
MxBond                                     I                2
NBond                                      I   N=           4
           2           1           2           1
IBond                                      I   N=           8
           2           3           1           0           1           4
           3           0
RBond                                      R   N=           8
  1.00000000E+00  1.00000000E+00  1.00000000E+00  0.00000000E+00  1.00000000E+00
  1.00000000E+00  1.00000000E+00  0.00000000E+00
Virial Ratio                               R      0.000000000000000E+00
SCF Energy                                 R      3.114473693560661E-02
Total Energy                               R      3.114473693560661E-02
RMS Force                                  R      2.627118188327249E-03
External E-field                           R   N=         105
  0.00000000E+00  0.00000000E+00  0.00000000E+00  0.00000000E+00  0.00000000E+00
  0.00000000E+00  0.00000000E+00  0.00000000E+00  0.00000000E+00  0.00000000E+00
  0.00000000E+00  0.00000000E+00  0.00000000E+00  0.00000000E+00  0.00000000E+00
  0.00000000E+00  0.00000000E+00  0.00000000E+00  0.00000000E+00  0.00000000E+00
  0.00000000E+00  0.00000000E+00  0.00000000E+00  0.00000000E+00  0.00000000E+00
  0.00000000E+00  0.00000000E+00  0.00000000E+00  0.00000000E+00  0.00000000E+00
  0.00000000E+00  0.00000000E+00  0.00000000E+00  0.00000000E+00  0.00000000E+00
  0.00000000E+00  0.00000000E+00  0.00000000E+00  0.00000000E+00  0.00000000E+00
  0.00000000E+00  0.00000000E+00  0.00000000E+00  0.00000000E+00  0.00000000E+00
  0.00000000E+00  0.00000000E+00  0.00000000E+00  0.00000000E+00  0.00000000E+00
  0.00000000E+00  0.00000000E+00  0.00000000E+00  0.00000000E+00  0.00000000E+00
  0.00000000E+00  0.00000000E+00  0.00000000E+00  0.00000000E+00  0.00000000E+00
  0.00000000E+00  0.00000000E+00  0.00000000E+00  0.00000000E+00  0.00000000E+00
  0.00000000E+00  0.00000000E+00  0.00000000E+00  0.00000000E+00  0.00000000E+00
  0.00000000E+00  0.00000000E+00  0.00000000E+00  0.00000000E+00  0.00000000E+00
  0.00000000E+00  0.00000000E+00  0.00000000E+00  0.00000000E+00  0.00000000E+00
  0.00000000E+00  0.00000000E+00  0.00000000E+00  0.00000000E+00  0.00000000E+00
  0.00000000E+00  0.00000000E+00  0.00000000E+00  0.00000000E+00  0.00000000E+00
  0.00000000E+00  0.00000000E+00  0.00000000E+00  0.00000000E+00  0.00000000E+00
  0.00000000E+00  0.00000000E+00  0.00000000E+00  0.00000000E+00  0.00000000E+00
  0.00000000E+00  0.00000000E+00  0.00000000E+00  0.00000000E+00  0.00000000E+00
IOpCl                                      I                0
IROHF                                      I                0
Grdnt Energy                               R      3.114473693560661E-02
Grdnt NVar                                 I                6
Grdnt IGetFC                               I                4
Internal Forces                            R   N=           6
  4.62303389E-03  4.87038782E-03  4.62303537E-03  7.57219988E-03  7.57219535E-03
  1.46571028E-03
Internal Force Constants                   R   N=          21
  1.57054118E-03  1.96570466E-03  1.80206538E-03  1.40530880E-03  1.96570482E-03
  1.57054251E-03 -6.61972691E-04  1.04723692E-03  3.20945584E-03  1.25076628E-02
  3.20945472E-03  1.04723555E-03 -6.61971370E-04  8.90829665E-04  1.25076605E-02
 -3.60891513E-04  1.98235972E-03 -3.60890951E-04  3.82845575E-03  3.82845602E-03
  7.40955829E-03
Optimization MaxStp                        I                2
Optimization Job offset                    I                0
Optimization Num results per geometry      I                2
Optimization Num geometry variables        I               12
Opt point       1 Results for each geome   R   N=           2
  3.11447369E-02  0.00000000E+00
Opt point       1 Geometries               R   N=          12
 -1.35801986E+00 -2.23880191E-01 -1.03212341E-01 -1.93420696E+00  1.25753235E+00
  8.25256726E-01  1.35802717E+00  2.23873885E-01 -1.03128714E-01  1.93414843E+00
 -1.25748190E+00  8.25471704E-01
Opt point       1 Gradient at each geome   R   N=          12
  1.51667483E-04 -9.20228602E-04  1.26204916E-03  5.40618908E-03 -2.85114912E-03
 -1.26173604E-03 -1.51758489E-04  9.20305255E-04  1.26198357E-03 -5.40609807E-03
  2.85107246E-03 -1.26229669E-03
Optimization Number of geometries          I   N=           1
           1
MMPar NCPar                                I   N=          16
          -1          20           4         203           4           3
          10           6          18           6           4          95
           6           7           0           7
MMPar IPrt                                 I   N=          18
           1           1           6           6           6           3
           6           3           0           0           0           0
           0           0           0           0           0           0
MMPar ICnvrt                               I   N=           6
           0           0           0           0           0           0
MMPar ICntr                                I   N=           4
           0           0           0           0
MMPar IList                                I   N=          97
           5           0           0           0           0           0
           0           0           0           0           0           0
           0           0           0           0           0           0
           0           0           0           0           0           0
           0           0           0           0           0           0
           0           0           0           0           0           0
           0           0           0           0           0           0
           0           0           0           0           0           0
           0           0           0           0           0           0
           0           0           0           0           0           0
           0           0           0           0           0           0
           0           0           0           0           0           0
           0           0           0           0           0           0
           0           0           0           0           0           0
           0           0           0           0           0           0
           0           0           0           0           0           7
           0
MMPar AtL                                  L   N=           4
TTTT
MMPar ChL                                  L   N=           4
FFFF
MMPar Q                                    R   N=           4
 -4.10452000E-01  4.10452000E-01 -4.10452000E-01  4.10452000E-01
MMPar IAType                               I   N=           8
          22          31          22          31           0           0
           0           0
MMPar IAtTpT                               I   N=           3
           0    20001031    20001022
MMPar IUserT                               I   N=           3
           0           0           0
MMPar SymbT                                H   N=           3
*       ho      oh      
MMPar StepD                                I   N=          95
           0           0           0           0           0           0
           0           0           0           0           0           0
           0           0           0           0           0           0
           0           0           0           0           0           0
           0           0           0           0           0           0
           0           0           0           0           0           0
           0           0           0           0           0           0
           0           0           0           0           0           0
           0           0           0           0           0           0
           0           0           0           0           0           0
           0           0           0           0           0           0
           0           0           0           0           0           0
           0           0           0           0           0           0
           0           0           0           0           0           0
           0           0           0           0           0           0
           0           0           0           0           0
MMPar ICorL                                I   N=         200
    20001031    20001022    20001022    20001031           0           0
           0           0           0          30    20001031    20001022
    20001022           0           0           0           0           0
           0          20    20001031    20001022           0           0
           0           0           0           0           0          10
    20001022    20001022           0           0           0           0
           0           0           0          10           3           1
           0           0           0           0           0           0
           0           6    20001031           0           0           0
           0           0           0           0           0           1
    20001022           0           0           0           0           0
           0           0           0           1           3           1
           0           0           0           0           0           0
           0           2           2           1           0           0
           0           0           0           0           0          10
           1           3           0           0           0           0
           0           0           0          10           4           3
           0           0           0           0           0           0
           0          10           4           3           1           0
           0           0           0           0           0          20
           2           1           3           0           0           0
           0           0           0          20           2           1
           3           4           0           0           0           0
           0          30           2           1           3           1
           0           0           0           0           0           3
           3           2           3           1           0           0
           0           0           0           3           3           1
           3           1           0           0           0           0
           0           3           4           2           3           1
           0           0           0           0           0           3
           4           1           3           1           0           0
           0           0           0           3           4           3
           3           1           0           0           0           0
           0           3
MMPar RCorL                                R   N=         120
  0.00000000E+00  1.00000000E+00  0.00000000E+00  0.00000000E+00  1.00000000E+00
  0.00000000E+00  1.00000000E+00  1.00248600E+02  0.00000000E+00  0.00000000E+00
  0.00000000E+00  0.00000000E+00  1.00000000E+00  9.74120000E-01  0.00000000E+00
  0.00000000E+00  0.00000000E+00  0.00000000E+00  1.00000000E+00  1.45667000E+00
  0.00000000E+00  0.00000000E+00  0.00000000E+00  0.00000000E+00  0.00000000E+00
  0.00000000E+00  5.00000000E-01  0.00000000E+00  0.00000000E+00 -1.20000000E+00
  0.00000000E+00  0.00000000E+00  0.00000000E+00  0.00000000E+00  0.00000000E+00
  0.00000000E+00  1.72100000E+00  2.10400000E-01  0.00000000E+00  0.00000000E+00
  0.00000000E+00  0.00000000E+00  0.00000000E+00  0.00000000E+00  0.00000000E+00
  0.00000000E+00  0.00000000E+00  0.00000000E+00  4.46253853E-04  1.84082001E+00
  0.00000000E+00  0.00000000E+00  0.00000000E+00  0.00000000E+00  4.46253853E-04
  2.75270735E+00  0.00000000E+00  0.00000000E+00  0.00000000E+00  0.00000000E+00
  4.46253853E-04  1.84082001E+00  0.00000000E+00  0.00000000E+00  0.00000000E+00
  0.00000000E+00  1.59360144E-03  1.74966814E+00  0.00000000E+00  0.00000000E+00
  0.00000000E+00  0.00000000E+00  1.59360144E-03  1.74966814E+00  0.00000000E+00
  0.00000000E+00  0.00000000E+00  0.00000000E+00  0.00000000E+00  1.59360144E-03
  0.00000000E+00  0.00000000E+00  1.00000000E+00  0.00000000E+00 -1.00000000E+00
 -1.00000000E+00  0.00000000E+00  0.00000000E+00  0.00000000E+00  0.00000000E+00
 -1.00000000E+00 -1.00000000E+00  0.00000000E+00  0.00000000E+00  0.00000000E+00
  0.00000000E+00 -1.00000000E+00 -1.00000000E+00  0.00000000E+00  0.00000000E+00
  0.00000000E+00  0.00000000E+00 -5.00000000E-01 -1.66666667E-01  0.00000000E+00
  0.00000000E+00  0.00000000E+00  0.00000000E+00 -1.00000000E+00 -1.00000000E+00
  0.00000000E+00  0.00000000E+00  0.00000000E+00  0.00000000E+00 -1.00000000E+00
 -1.00000000E+00  0.00000000E+00  0.00000000E+00  0.00000000E+00  0.00000000E+00
MMPar Table                                R   N=          28
  0.00000000E+00  0.00000000E+00  0.00000000E+00  0.00000000E+00  0.00000000E+00
  0.00000000E+00  0.00000000E+00  0.00000000E+00  0.00000000E+00  0.00000000E+00
  0.00000000E+00  0.00000000E+00  0.00000000E+00  0.00000000E+00  0.00000000E+00
  0.00000000E+00  0.00000000E+00  0.00000000E+00  0.00000000E+00  0.00000000E+00
  3.25221866E+00  0.00000000E+00  3.25221866E+00  0.00000000E+00  3.35293742E-04
  0.00000000E+00  3.35293742E-04  0.00000000E+00
ONIOM Charges                              I   N=          16
           0           0           0           0           0           0
           0           0           0           0           0           0
           0           0           0           0
ONIOM Multiplicities                       I   N=          16
           1           0           0           0           0           0
           0           0           0           0           0           0
           0           0           0           0
Atom Layers                                I   N=           4
           1           1           1           1
Atom Modifiers                             I   N=           4
           0           0           0           0
Force Field                                I                0
Atom Modified Types                        C   N=           4
                                                
Int Atom Modified Types                    I   N=           4
           0           0           0           0
Link Atoms                                 I   N=           4
           0           0           0           0
Atom Modified MM Charges                   R   N=           4
  0.00000000E+00  0.00000000E+00  0.00000000E+00  0.00000000E+00
Link Distances                             R   N=          16
  0.00000000E+00  0.00000000E+00  0.00000000E+00  0.00000000E+00  0.00000000E+00
  0.00000000E+00  0.00000000E+00  0.00000000E+00  0.00000000E+00  0.00000000E+00
  0.00000000E+00  0.00000000E+00  0.00000000E+00  0.00000000E+00  0.00000000E+00
  0.00000000E+00
Cartesian Gradient                         R   N=          12
  1.51667483E-04 -9.20228602E-04  1.26204916E-03  5.40618908E-03 -2.85114912E-03
 -1.26173604E-03 -1.51758489E-04  9.20305255E-04  1.26198357E-03 -5.40609807E-03
  2.85107246E-03 -1.26229669E-03
Cartesian Force Constants                  R   N=          78
  1.73636705E-03  3.77199180E-04  7.55784441E-04  7.06700520E-04  5.08584356E-04
  2.51575197E-03 -8.78149771E-04 -3.61988897E-04 -7.03965258E-04  2.50236942E-03
 -1.04207012E-04 -3.50649226E-04 -5.25120660E-04 -1.83803078E-03  9.13697216E-05
  4.32344760E-05 -2.88599356E-04 -1.85079491E-03 -4.57909983E-05  3.05035477E-04
  3.07180146E-04 -8.26001566E-04 -2.10754501E-04  6.70735869E-04 -3.22696239E-05
 -6.21907970E-05  7.92023005E-05  1.73646808E-03 -2.10845528E-04 -7.82240382E-04
  7.00278572E-04  1.95619645E-04  3.77117631E-04 -4.80310320E-04  3.77192825E-04
  7.55722473E-04 -6.70782408E-04 -7.00245115E-04  7.95296462E-06  6.73505098E-04
  6.83673832E-04 -6.72868990E-04 -7.06779809E-04 -5.08450783E-04  2.51571384E-03
 -3.22157161E-05  1.95544218E-04 -6.73471132E-04 -1.59195003E-03  2.00442859E-03
 -7.66457781E-05 -8.78196887E-04 -3.61966941E-04  7.04057119E-04  2.50236263E-03
 -6.21466397E-05  3.77105168E-04 -6.83742268E-04  2.00440003E-03 -1.17838127E-04
  4.63874198E-04 -1.04247527E-04 -3.50599722E-04  5.25022066E-04 -1.83800586E-03
  9.13326814E-05 -7.91525873E-05  4.80260114E-04 -6.72910027E-04  7.62511580E-05
 -4.63588649E-04  2.21648375E-03 -4.31583611E-05  2.88482531E-04 -1.85079781E-03
  4.60597904E-05 -3.05153996E-04  3.07224091E-04
Dipole Moment                              R   N=           3
 -2.70241577E-05  2.32956131E-05  7.62237884E-01
Dipole Derivatives                         R   N=          36
 -4.10452000E-01  0.00000000E+00  0.00000000E+00  0.00000000E+00 -4.10452000E-01
  0.00000000E+00  0.00000000E+00  0.00000000E+00 -4.10452000E-01  4.10452000E-01
  0.00000000E+00  0.00000000E+00  0.00000000E+00  4.10452000E-01  0.00000000E+00
  0.00000000E+00  0.00000000E+00  4.10452000E-01 -4.10452000E-01  0.00000000E+00
  0.00000000E+00  0.00000000E+00 -4.10452000E-01  0.00000000E+00  0.00000000E+00
  0.00000000E+00 -4.10452000E-01  4.10452000E-01  0.00000000E+00  0.00000000E+00
  0.00000000E+00  4.10452000E-01  0.00000000E+00  0.00000000E+00  0.00000000E+00
  4.10452000E-01
Number of Normal Modes                     I                6
Vib-NDFDPol                                I                0
Vib-NumROA                                 I                0
Vib-NDim                                   I                4
Vib-NDim0                                  I                4
Vib-AtMass                                 R   N=           4
  1.59949146E+01  1.00782504E+00  1.59949146E+01  1.00782504E+00
Vib-E2                                     R   N=          84
  0.00000000E+00  0.00000000E+00  4.94065646-324  0.00000000E+00  0.00000000E+00
  0.00000000E+00  0.00000000E+00  0.00000000E+00  0.00000000E+00  0.00000000E+00
  9.88131292-324  0.00000000E+00  0.00000000E+00  0.00000000E+00  0.00000000E+00
  0.00000000E+00  0.00000000E+00  0.00000000E+00  1.48219694-323  0.00000000E+00
  0.00000000E+00  0.00000000E+00  0.00000000E+00  0.00000000E+00  0.00000000E+00
  0.00000000E+00  1.97626258-323  0.00000000E+00  0.00000000E+00  0.00000000E+00
  0.00000000E+00  0.00000000E+00  0.00000000E+00  0.00000000E+00  2.47032823-323
  0.00000000E+00  0.00000000E+00  0.00000000E+00  0.00000000E+00  0.00000000E+00
  0.00000000E+00  0.00000000E+00  2.96439388-323  0.00000000E+00  0.00000000E+00
  0.00000000E+00  0.00000000E+00  0.00000000E+00 -2.10265872E+02  6.85616029E+01
  8.33132661E+01  1.71208803E+02  2.65251504E+02  4.11710131E+02  1.18034595E+00
  1.45726303E+01  1.06842479E+00  1.09987053E+00  1.06714536E+00  1.00870005E+00
  3.07465997E-02  4.03598994E-02  4.36940680E-03  1.89952036E-02  4.42373899E-02
  1.00738470E-01  3.17825509E-01  9.28839545E-03  2.57040250E+02  3.34019198E+02
  3.45831182E+02  3.05478646E-01  0.00000000E+00  0.00000000E+00  0.00000000E+00
  0.00000000E+00  0.00000000E+00  0.00000000E+00  0.00000000E+00  0.00000000E+00
  0.00000000E+00  0.00000000E+00  0.00000000E+00  0.00000000E+00
Vib-Modes                                  R   N=          72
  0.00000000E+00  0.00000000E+00  0.00000000E+00  0.00000000E+00  0.00000000E+00
  0.00000000E+00  0.00000000E+00  0.00000000E+00  0.00000000E+00  0.00000000E+00
  0.00000000E+00  0.00000000E+00  0.00000000E+00  0.00000000E+00  0.00000000E+00
  0.00000000E+00  0.00000000E+00  0.00000000E+00  1.00000000E+02  1.00000000E+02
  1.00000000E+02  1.00000000E+02  1.00000000E+02  1.00000000E+02  0.00000000E+00
  0.00000000E+00  0.00000000E+00  0.00000000E+00  0.00000000E+00  0.00000000E+00
  0.00000000E+00  0.00000000E+00  0.00000000E+00  0.00000000E+00  0.00000000E+00
  0.00000000E+00  0.00000000E+00  0.00000000E+00  0.00000000E+00  0.00000000E+00
  0.00000000E+00  0.00000000E+00  0.00000000E+00  0.00000000E+00  0.00000000E+00
  0.00000000E+00  0.00000000E+00  0.00000000E+00  2.76543723E-02 -7.06320719E-02
 -1.41330183E-03  3.68405029E-01  5.98345248E-01  2.24749094E-02 -2.76542719E-02
  7.06319787E-02 -1.41957224E-03 -3.68406623E-01 -5.98343769E-01  2.24848577E-02
  6.59958396E-01  1.30398714E-01  8.70542992E-04 -4.21785902E-02 -2.13283057E-01
 -1.34990520E-02 -6.59958518E-01 -1.30398479E-01  8.31096492E-04  4.21805143E-02
  2.13279332E-01 -1.35072014E-02
