 Entering Gaussian System, Link 0=g09
 Input=mmH2O2_nb.com
 Output=mmH2O2_nb.log
 Initial command:
 /home/emanuele/chem_software/gaussian//gdv/l1.exe "/home/emanuele/chem_software/gaussian/scratch/Gau-7908.inp" -scrdir="/home/emanuele/chem_software/gaussian/scratch/"
 Entering Link 1 = /home/emanuele/chem_software/gaussian//gdv/l1.exe PID=      7910.
  
 Copyright (c) 1988-2020, Gaussian, Inc.  All Rights Reserved.
  
 This is the private, development version of
 the Gaussian(R) DV system of programs. It is based on
 the Gaussian(R) 16 system (copyright 2016, Gaussian, Inc.),
 the Gaussian(R) 09 system (copyright 2009, Gaussian, Inc.),
 the Gaussian(R) 03 system (copyright 2003, Gaussian, Inc.),
 the Gaussian(R) 98 system (copyright 1998, Gaussian, Inc.),
 the Gaussian(R) 94 system (copyright 1995, Gaussian, Inc.),
 the Gaussian 92(TM) system (copyright 1992, Gaussian, Inc.),
 the Gaussian 90(TM) system (copyright 1990, Gaussian, Inc.),
 the Gaussian 88(TM) system (copyright 1988, Gaussian, Inc.),
 the Gaussian 86(TM) system (copyright 1986, Carnegie Mellon
 University), and the Gaussian 82(TM) system (copyright 1983,
 Carnegie Mellon University). Gaussian is a federally registered
 trademark of Gaussian, Inc.
  
 This software contains proprietary and confidential information,
 including trade secrets, belonging to Gaussian, Inc.
  
 This software is provided under written license and may be
 used, copied, transmitted, or stored only in accord with that
 written license.
  
 The following legend is applicable only to US Government
 contracts under FAR:
  
                    RESTRICTED RIGHTS LEGEND
  
 Use, reproduction and disclosure by the US Government is
 subject to restrictions as set forth in subparagraphs (a)
 and (c) of the Commercial Computer Software - Restricted
 Rights clause in FAR 52.227-19.
  
 Gaussian, Inc.
 340 Quinnipiac St., Bldg. 40, Wallingford CT 06492
  
  
 ---------------------------------------------------------------
 Warning -- This program may not be used in any manner that
 competes with the business of Gaussian, Inc. or will provide
 assistance to any competitor of Gaussian, Inc.  The licensee
 of this program is prohibited from giving any competitor of
 Gaussian, Inc. access to this program.  By using this program,
 the user acknowledges that Gaussian, Inc. is engaged in the
 business of creating and licensing software in the field of
 computational chemistry and represents and warrants to the
 licensee that it is not a competitor of Gaussian, Inc. and that
 it will not use this program in any manner prohibited above.
 ---------------------------------------------------------------
  

 Cite this work as:
 Gaussian Development Version, Revision J.14,
 M. J. Frisch, G. W. Trucks, H. B. Schlegel, G. E. Scuseria, 
 M. A. Robb, J. R. Cheeseman, G. Scalmani, V. Barone, 
 G. A. Petersson, H. Nakatsuji, X. Li, A. V. Marenich, M. Caricato, 
 J. Bloino, B. G. Janesko, J. Zheng, R. Gomperts, B. Mennucci, 
 H. P. Hratchian, J. V. Ortiz, A. F. Izmaylov, J. L. Sonnenberg, 
 D. Williams-Young, F. Ding, F. Lipparini, F. Egidi, J. Goings, 
 B. Peng, A. Petrone, T. Henderson, D. Ranasinghe, V. G. Zakrzewski, 
 J. Gao, N. Rega, G. Zheng, W. Liang, M. Hada, M. Ehara, K. Toyota, 
 R. Fukuda, J. Hasegawa, M. Ishida, T. Nakajima, Y. Honda, O. Kitao, 
 H. Nakai, T. Vreven, K. Throssell, J. A. Montgomery, Jr., 
 J. E. Peralta, F. Ogliaro, M. J. Bearpark, J. J. Heyd, 
 E. N. Brothers, K. N. Kudin, V. N. Staroverov, T. A. Keith, 
 R. Kobayashi, J. Normand, K. Raghavachari, A. P. Rendell, 
 J. C. Burant, S. S. Iyengar, J. Tomasi, M. Cossi, J. M. Millam, 
 M. Klene, C. Adamo, R. Cammi, J. W. Ochterski, R. L. Martin, 
 K. Morokuma, O. Farkas, J. B. Foresman, and D. J. Fox, 
 Gaussian, Inc., Wallingford CT, 2020.
 
 ******************************************
 Gaussian DV:  ES64L-GDVRevJ.14 29-Dec-2020
                 9-Nov-2023 
 ******************************************
 %mem=1gb
 %chk=mmH2O2_nb.chk
 ----------------------------------------------------------------------
 #p amber=softfirst geom=connectivity nosymm iop(4/33=3,7/33=1) freq=in
 tmodes
 ----------------------------------------------------------------------
 1/10=4,18=20,30=1,37=210000000,38=1,56=2,57=2,64=203/1,3;
 2/9=110,12=2,15=1,40=1/2;
 3/5=30,11=9,25=1,30=1,41=10030000,43=2,71=2,140=1/1;
 4/20=11,22=2,24=3,33=3/2;
 7/8=21,25=1,30=1,33=1,44=-1/16;
 1/10=4,18=20,30=1,64=203/3;
 99//99;
 Leave Link    1 at Thu Nov  9 18:05:51 2023, MaxMem=   134217728 cpu:               0.0 elap:               0.0
 (Enter /home/emanuele/chem_software/gaussian//gdv/l101.exe)
 --
 MM
 --
 Symbolic Z-matrix:
 Charge =  0 Multiplicity = 1
 O-oh--0.000          -0.71863  -0.11847  -0.05462 
 H-ho--0.000          -1.02354   0.66546   0.43671 
 O-oh--0.000           0.71864   0.11847  -0.05457 
 H-ho--0.000           1.02351  -0.66543   0.43682 
 
 ITRead=  0  0  0  0
 MicOpt= -1 -1 -1 -1
 NAtoms=      4 NQM=        4 NQMF=       0 NMMI=      0 NMMIF=      0
                NMic=       0 NMicF=      0.
                    Isotopes and Nuclear Properties:
 (Nuclear quadrupole moments (NQMom) in fm**2, nuclear magnetic moments (NMagM)
  in nuclear magnetons)

  Atom         1           2           3           4
 IAtWgt=          16           1          16           1
 AtmWgt=  15.9949146   1.0078250  15.9949146   1.0078250
 NucSpn=           0           1           0           1
 AtZEff=  -0.0000000  -0.0000000  -0.0000000  -0.0000000
 NQMom=    0.0000000   0.0000000   0.0000000   0.0000000
 NMagM=    0.0000000   2.7928460   0.0000000   2.7928460
 AtZNuc=   8.0000000   1.0000000   8.0000000   1.0000000
 Generating MM parameters.
 Read MM parameter file:
 Include all MM classes

 MM sanity checks:
 All charges sum to:                0.00000000
 Charges of atoms sum to:           0.00000000
 MMInit generated parameter data with length LenPar=         709.
 Leave Link  101 at Thu Nov  9 18:05:51 2023, MaxMem=   134217728 cpu:               0.2 elap:               0.2
 (Enter /home/emanuele/chem_software/gaussian//gdv/l103.exe)

 GradGradGradGradGradGradGradGradGradGradGradGradGradGradGradGradGradGrad
 Berny optimization.
 Initialization pass.
                           ----------------------------
                           !    Initial Parameters    !
                           ! (Angstroms and Degrees)  !
 --------------------------                            --------------------------
 ! Name  Definition              Value          Derivative Info.                !
 --------------------------------------------------------------------------------
 ! R1    R(1,2)                  0.9741         calculate D2E/DX2 analytically  !
 ! R2    R(1,3)                  1.4567         calculate D2E/DX2 analytically  !
 ! R3    R(3,4)                  0.9741         calculate D2E/DX2 analytically  !
 ! A1    A(2,1,3)              100.2486         calculate D2E/DX2 analytically  !
 ! A2    A(1,3,4)              100.2487         calculate D2E/DX2 analytically  !
 ! D1    D(2,1,3,4)            118.3268         calculate D2E/DX2 analytically  !
 --------------------------------------------------------------------------------
 Trust Radius=3.00D-01 FncErr=1.00D-07 GrdErr=1.00D-07 EigMax=2.50D+02 EigMin=1.00D-04
 Number of steps in this run=      2 maximum allowed number of steps=      2.
 GradGradGradGradGradGradGradGradGradGradGradGradGradGradGradGradGradGrad

 Leave Link  103 at Thu Nov  9 18:05:51 2023, MaxMem=   134217728 cpu:               0.0 elap:               0.0
 (Enter /home/emanuele/chem_software/gaussian//gdv/l202.exe)
                          Input orientation:                          
 ---------------------------------------------------------------------
 Center     Atomic      Atomic             Coordinates (Angstroms)
 Number     Number       Type             X           Y           Z
 ---------------------------------------------------------------------
      1          8    20001022       -0.718633   -0.118472   -0.054618
      2          1    20001031       -1.023538    0.665457    0.436707
      3          8    20001022        0.718637    0.118469   -0.054573
      4          1    20001031        1.023507   -0.665431    0.436821
 ---------------------------------------------------------------------
                    Distance matrix (angstroms):
                    1          2          3          4
     1  O    0.000000
     2  H    0.974122   0.000000
     3  O    1.456670   1.890959   0.000000
     4  H    1.890960   2.441651   0.974122   0.000000
 Symmetry turned off by external request.
 Stoichiometry    H2O2
 Framework group  C1[X(H2O2)]
 Deg. of freedom     6
 Full point group                 C1      NOp   1
 Rotational constants (GHZ):         298.2506017          26.3287104          25.3020285
 Leave Link  202 at Thu Nov  9 18:05:51 2023, MaxMem=   134217728 cpu:               0.0 elap:               0.0
 (Enter /home/emanuele/chem_software/gaussian//gdv/l301.exe)
 Standard basis: Dummy (5D, 7F)
     4 basis functions,     4 primitive gaussians,     4 cartesian basis functions
     3 alpha electrons        3 beta electrons
       nuclear repulsion energy         4.9621689179 Hartrees.
 IExCor=       0 DFT=F Ex=HF Corr=None N6=None ScaHFX=  1.000000
 ScaDFX=  1.000000  1.000000  1.000000  1.000000  1.000000  0.000000
 ScaDFX=  0.000000  0.000000  0.000000  0.000000  0.000000  0.000000
 IRadAn=      5 IRanWt=     -1 IRanGd=            0 ICorTp=0 IEmpDi=  4
 NAtoms=    4 NActive=    4 NUniq=    4 SFac= 1.00D+00 NAtFMM=   60 NAOKFM=F Big=F
 Integral buffers will be    131072 words long.
 Raffenetti 1 integral format.
 Two-electron integral symmetry is turned off.
 Leave Link  301 at Thu Nov  9 18:05:51 2023, MaxMem=   134217728 cpu:               0.0 elap:               0.0
 (Enter /home/emanuele/chem_software/gaussian//gdv/l402.exe)
 GetPCM: File not found, return IValue=0.
 AtDip 
                 1             2             3 
      1   0.000000D+00  0.000000D+00  0.000000D+00
      2   0.000000D+00  0.000000D+00  0.000000D+00
      3   0.000000D+00  0.000000D+00  0.000000D+00
      4   0.000000D+00  0.000000D+00  0.000000D+00
 AtQua 
                 1             2             3             4             5 
      1   0.000000D+00  0.000000D+00  0.000000D+00  0.000000D+00  0.000000D+00
      2   0.000000D+00  0.000000D+00  0.000000D+00  0.000000D+00  0.000000D+00
      3   0.000000D+00  0.000000D+00  0.000000D+00  0.000000D+00  0.000000D+00
      4   0.000000D+00  0.000000D+00  0.000000D+00  0.000000D+00  0.000000D+00
                 6 
      1   0.000000D+00
      2   0.000000D+00
      3   0.000000D+00
      4   0.000000D+00
 AtPol 
                 1 
      1   0.000000D+00
      2   0.000000D+00
      3   0.000000D+00
      4   0.000000D+00
 AMBER calculation of energy, first and second derivatives.
 No initial guess density matrices.
 EGHMM:  JobTyp=     2 NAtoms=     4.
 ****************************
 MOLECULAR MECHANICS FUNCTION
 ****************************
 Atomic parameters:
 Center  VDW
      1 1.7210 0.2104000
      2 0.0000 0.0000000
      3 1.7210 0.2104000
      4 0.0000 0.0000000
 Molecular mechanics terms:
 NBDir 3 1      0      0
 HrmStr1 2-1    0.00 0.9741
 HrmStr1 1-3    0.00 1.4567
 HrmStr1 4-3    0.00 0.9741
 HrmBnd1 4-3-1   0.00 100.25
 HrmBnd1 2-1-3   0.00 100.25
 AmbTrs 2-1-3-4   0   0   0   0  0.0000  0.0000  0.0000  0.0000  1.0
 NBPair 2-1 3 1      0      0 -1.000 -1.000
 NBPair 3-2 3 1      0      0 -1.000 -1.000
 NBPair 3-1 3 1      0      0 -1.000 -1.000
 NBPair 4-2 3 1      0      0 -0.500 -0.167
 NBPair 4-1 3 1      0      0 -1.000 -1.000
 NBPair 4-3 3 1      0      0 -1.000 -1.000
 Enter MMCalc
 NNonBon      3     1     0     0     0     0    0.000000    0.000000    0.000000    0.000000    0.000000    0.000000
 Non-bonded terms on-the-fly without fast algorithms, OKV=T OKC=T.
 Energy per function type:
 Direct Coulomb + vdW (small)                           0.000000000
 Direct Coulomb (large)                                 0.000000000
 Direct vdW (large)                                    10.041614316
 Non-direct Coulomb + vdW (small)                       0.000000000
 Non-direct Coulomb (large)                             0.000000000
 Non-direct vdW (large)                               -10.041614316
 Energy per function class:
        Coulomb               0.000000000
    Vanderwaals               0.000000000
 Energy=     0.00000000     NIter=   0.
 Dipole moment=       0.000000       0.000000       0.000000
 Derivatives in ZDOGrd:
 I=    1 X=   0.000000000000D+00 Y=   0.000000000000D+00 Z=   0.000000000000D+00
 I=    2 X=   0.000000000000D+00 Y=   0.000000000000D+00 Z=   0.000000000000D+00
 I=    3 X=   0.000000000000D+00 Y=   0.000000000000D+00 Z=   0.000000000000D+00
 I=    4 X=   0.000000000000D+00 Y=   0.000000000000D+00 Z=   0.000000000000D+00
 Force constants in ZDOGrd:
                1                     2                     3
   1    0.000000000000D+00
   2    0.000000000000D+00    0.000000000000D+00
   3    0.000000000000D+00    0.000000000000D+00    6.013938160670D-16
   4    0.000000000000D+00    0.000000000000D+00    0.000000000000D+00
   5    0.000000000000D+00    0.000000000000D+00    0.000000000000D+00
   6    0.000000000000D+00    0.000000000000D+00    0.000000000000D+00
   7    0.000000000000D+00    0.000000000000D+00    0.000000000000D+00
   8    0.000000000000D+00    0.000000000000D+00    0.000000000000D+00
   9    0.000000000000D+00    0.000000000000D+00    0.000000000000D+00
  10    0.000000000000D+00    0.000000000000D+00    0.000000000000D+00
  11    0.000000000000D+00    0.000000000000D+00    0.000000000000D+00
  12    0.000000000000D+00    0.000000000000D+00    0.000000000000D+00
                4                     5                     6
   4    0.000000000000D+00
   5    0.000000000000D+00    0.000000000000D+00
   6    0.000000000000D+00    0.000000000000D+00    0.000000000000D+00
   7    0.000000000000D+00    0.000000000000D+00    0.000000000000D+00
   8    0.000000000000D+00    0.000000000000D+00    0.000000000000D+00
   9    0.000000000000D+00    0.000000000000D+00    0.000000000000D+00
  10    0.000000000000D+00    0.000000000000D+00    0.000000000000D+00
  11    0.000000000000D+00    0.000000000000D+00    0.000000000000D+00
  12    0.000000000000D+00    0.000000000000D+00    0.000000000000D+00
                7                     8                     9
   7    0.000000000000D+00
   8    0.000000000000D+00    0.000000000000D+00
   9    0.000000000000D+00    0.000000000000D+00    6.013938160670D-16
  10    0.000000000000D+00    0.000000000000D+00    0.000000000000D+00
  11    0.000000000000D+00    0.000000000000D+00    0.000000000000D+00
  12    0.000000000000D+00    0.000000000000D+00    0.000000000000D+00
               10                    11                    12
  10    0.000000000000D+00
  11    0.000000000000D+00    0.000000000000D+00
  12    0.000000000000D+00    0.000000000000D+00    0.000000000000D+00
 Leave Link  402 at Thu Nov  9 18:05:51 2023, MaxMem=   134217728 cpu:               0.0 elap:               0.0
 (Enter /home/emanuele/chem_software/gaussian//gdv/l716.exe)
 GetPMM: IRwPM=    824 LRwPM=      0 LPMAll=      2
 FrcOut:
 IF    =        87 IFX   =        99 IFXYZ =       111
 IFFX  =       123 IFFFX =       201 IFLen =        12
 IFFLen=        78 IFFFLn=         0 IEDerv=       201
 LEDerv=       629 IFroze=      1000 ICStrt=      1053
 Dipole        = 0.00000000D+00 0.00000000D+00 0.00000000D+00
 VibFq2-Diag1:  N=     12 IV=           5 MDV=   134215831 NE2=    11184652
 Full mass-weighted force constant matrix:
 Low frequencies ---    0.0000    0.0000    0.0000    0.0000    0.0000    0.0000
 Low frequencies ---    0.0000    0.0000    0.0000
 OrtVCM:  Ph=1 IPass= 1 DotMx1= 0.00D+00
 OrtVCM:  IS=    1 I=    1 IndO=    1 Dot= 1.00D+00 DotN= 1.00D+00 ElMax1= 6.86D-01 ElMax1N= 6.86D-01
 OrtVCM:  Ph=2 NNew=    0 IAdd=    2 IPass= 1 DotMx2= 0.00D+00
 OrtVCM:  IS=    1 I=    2 IndO=    2 Dot= 1.00D+00 DotN= 1.00D+00 ElMax1= 6.86D-01 ElMax1N= 6.86D-01
 OrtVCM:  Ph=2 NNew=    0 IAdd=    3 IPass= 1 DotMx2= 0.00D+00
 OrtVCM:  IS=    1 I=    3 IndO=    3 Dot= 1.00D+00 DotN= 1.00D+00 ElMax1= 6.86D-01 ElMax1N= 6.86D-01
 OrtVCM:  Ph=2 NNew=    0 IAdd=    4 IPass= 1 DotMx2= 1.39D-17
 OrtVCM:  IS=    1 I=    4 IndO=    4 Dot= 1.00D+00 DotN= 1.00D+00 ElMax1= 5.73D-01 ElMax1N= 5.73D-01
 OrtVCM:  Ph=2 NNew=    0 IAdd=    5 IPass= 1 DotMx2= 1.39D-16
 OrtVCM:  IS=    1 I=    5 IndO=    5 Dot= 1.00D+00 DotN= 1.00D+00 ElMax1= 6.62D-01 ElMax1N= 6.62D-01
 OrtVCM:  Ph=2 NNew=    0 IAdd=    6 IPass= 1 DotMx2= 6.95D-17
 OrtVCM:  IS=    1 I=    6 IndO=    6 Dot= 1.00D+00 DotN= 1.00D+00 ElMax1= 6.43D-01 ElMax1N= 6.43D-01
 OrtVCM:  Ph=1 IPass= 1 DotMx1= 6.86D-01
 OrtVCM:  Ph=1 IPass= 2 DotMx1= 1.42D-16
 OrtVCM:  IS=    1 I=    1 IndO=    7 Dot= 5.18D-01 DotN= 5.18D-01 ElMax1= 5.18D-01 ElMax1N= 5.18D-01
 OrtVCM:  Ph=2 NNew=    0 IAdd=    2 IPass= 1 DotMx2= 9.55D-02
 OrtVCM:  Ph=2 NNew=    0 IAdd=    2 IPass= 2 DotMx2= 6.05D-17
 OrtVCM:  IS=    1 I=    2 IndO=    8 Dot= 9.90D-02 DotN= 9.90D-02 ElMax1= 2.37D-01 ElMax1N= 2.37D-01
 OrtVCM:  Ph=2 NNew=    0 IAdd=    3 IPass= 1 DotMx2= 5.19D-02
 OrtVCM:  Ph=2 NNew=    0 IAdd=    3 IPass= 2 DotMx2= 1.91D-17
 OrtVCM:  IS=    1 I=    3 IndO=    9 Dot= 5.08D-02 DotN= 5.08D-02 ElMax1= 1.47D-01 ElMax1N= 1.47D-01
 OrtVCM:  Ph=2 NNew=    0 IAdd=    4 IPass= 1 DotMx2= 2.71D-01
 OrtVCM:  Ph=2 NNew=    0 IAdd=    4 IPass= 2 DotMx2= 8.87D-17
 OrtVCM:  IS=    1 I=    4 IndO=   10 Dot= 7.99D-01 DotN= 7.99D-01 ElMax1= 7.99D-01 ElMax1N= 7.99D-01
 OrtVCM:  Ph=2 NNew=    0 IAdd=    5 IPass= 1 DotMx2= 7.54D-01
 OrtVCM:  Ph=2 NNew=    0 IAdd=    5 IPass= 2 DotMx2= 7.29D-17
 OrtVCM:  IS=    1 I=    5 IndO=   11 Dot= 1.14D-01 DotN= 1.14D-01 ElMax1= 2.54D-01 ElMax1N= 2.54D-01
 OrtVCM:  Ph=2 NNew=    0 IAdd=    6 IPass= 1 DotMx2= 6.52D-01
 OrtVCM:  Ph=2 NNew=    0 IAdd=    6 IPass= 2 DotMx2= 8.97D-17
 OrtVCM:  IS=    1 I=    6 IndO=    0 Dot= 3.75D-32 DotN= 3.75D-32 ElMax1= 1.11D-16 ElMax1N= 1.11D-16
 SchOr2:  IPass= 1 Test2A= 1.00D-01 IOff=     0 NDo=     6 NNew=     5
 OrtVCM:  Ph=1 IPass= 1 DotMx1= 6.86D-01
 OrtVCM:  Ph=1 IPass= 2 DotMx1= 1.51D-16
 OrtVCM:  IS=    1 I=    1 IndO=    0 Dot= 5.81D-03 DotN= 5.81D-03 ElMax1= 5.95D-02 ElMax1N= 5.95D-02
 SchOr2:  IPass= 1 Test2A= 1.00D-01 IOff=     6 NDo=     1 NNew=     0
 OrtVCM:  Ph=1 IPass= 1 DotMx1= 6.86D-01
 OrtVCM:  Ph=1 IPass= 2 DotMx1= 1.25D-16
 OrtVCM:  IS=    1 I=    1 IndO=   12 Dot= 3.84D-02 DotN= 3.84D-02 ElMax1= 1.53D-01 ElMax1N= 1.53D-01
 SchOr2:  IPass= 1 Test2A= 1.00D-01 IOff=     7 NDo=     1 NNew=     1
 VibFq2-Diag2:  N=      6 IV=           5 MDV=   134215831 NE2=    22369304
 ******    4 imaginary frequencies (negative Signs) ****** 
 Dipole derivative wrt mode   1:  0.00000D+00  0.00000D+00  0.00000D+00
 Dipole derivative wrt mode   2:  0.00000D+00  0.00000D+00  0.00000D+00
 Dipole derivative wrt mode   3:  0.00000D+00  0.00000D+00  0.00000D+00
 Vibrational polarizability contributions from mode   3             NaN             NaN             NaN
 Dipole derivative wrt mode   4:  0.00000D+00  0.00000D+00  0.00000D+00
 Vibrational polarizability contributions from mode   4             NaN             NaN             NaN
 Dipole derivative wrt mode   5:  0.00000D+00  0.00000D+00  0.00000D+00
 Dipole derivative wrt mode   6:  0.00000D+00  0.00000D+00  0.00000D+00
 Diagonal vibrational polarizability:
              NaN             NaN             NaN
 NorSel:  MapVib=      1      2      3      4      5      6
 Harmonic frequencies (cm**-1), IR intensities (KM/Mole), Raman scattering
 activities (A**4/AMU), depolarization ratios for plane and unpolarized
 incident light, reduced masses (AMU), force constants (mDyne/A),
 and normal coordinates:
                      1                      2                      3
                      A                      A                      A
 Frequencies --     -0.0000                -0.0000                 0.0000
 Red. masses --      1.0156                 1.0975                 1.6511
 Frc consts  --      0.0000                 0.0000                 0.0000
 IR Inten    --      0.0000                 0.0000                 0.0000
  Atom  AN      X      Y      Z        X      Y      Z        X      Y      Z
     1   8    -0.01   0.00  -0.01     0.00  -0.00   0.00    -0.11  -0.10  -0.00
     2   1     0.77  -0.41   0.01     0.46   0.05  -0.31     0.26   0.67   0.10
     3   8    -0.02   0.01  -0.00    -0.07   0.03   0.01     0.12   0.08  -0.00
     4   1    -0.41   0.21   0.16     0.62  -0.54   0.08    -0.46  -0.47  -0.03
                      4                      5                      6
                      A                      A                      A
 Frequencies --      0.0000                 0.0000                 0.0000
 Red. masses --      2.8695                 1.0908                 1.0837
 Frc consts  --      0.0000                 0.0000                 0.0000
 IR Inten    --      0.0000                 0.0000                 0.0000
  Atom  AN      X      Y      Z        X      Y      Z        X      Y      Z
     1   8     0.27  -0.03  -0.00     0.02   0.02   0.00    -0.01  -0.02  -0.06
     2   1     0.05   0.62   0.14    -0.30  -0.36   0.19     0.18   0.33   0.70
     3   8    -0.23   0.01   0.00     0.01   0.03  -0.06    -0.02  -0.02  -0.01
     4   1    -0.63  -0.24  -0.14    -0.19  -0.52   0.66     0.36   0.27   0.40

 -------------------
 - Thermochemistry -
 -------------------
 Temperature   298.150 Kelvin.  Pressure      1.00000 Atm.
 Atom     1 has atomic number  8 and mass  15.99491
 Atom     2 has atomic number  1 and mass   1.00783
 Atom     3 has atomic number  8 and mass  15.99491
 Atom     4 has atomic number  1 and mass   1.00783
 Molecular mass:    34.00548 amu.
 Principal axes and moments of inertia in atomic units:
                                 1                 2                 3
     Eigenvalues --            6.051090         68.546510         71.327926
           X                   0.996999         -0.077411         -0.000036
           Y                   0.077411          0.996999          0.000030
           Z                   0.000033         -0.000033          1.000000
 This molecule is an asymmetric top.
 Rotational symmetry number  1.
 Rotational temperatures (Kelvin)     14.31377     1.26358     1.21431
 Rotational constants (GHZ):         298.25060    26.32871    25.30203
    4 imaginary frequencies ignored.
 Zero-point vibrational energy          0.0 (Joules/Mol)
                                    0.00000 (Kcal/Mol)
 Warning -- explicit consideration of   2 degrees of freedom as
           vibrations may cause significant error
 Vibrational temperatures:      0.00     0.00
          (Kelvin)
 
 Zero-point correction=                           0.000000 (Hartree/Particle)
 Thermal correction to Energy=                    0.004721
 Thermal correction to Enthalpy=                  0.005665
 Thermal correction to Gibbs Free Energy=        -0.054693
 Sum of electronic and zero-point Energies=              0.000000
 Sum of electronic and thermal Energies=                 0.004721
 Sum of electronic and thermal Enthalpies=               0.005665
 Sum of electronic and thermal Free Energies=           -0.054693
 
                     E (Thermal)             CV                S
                      KCal/Mol        Cal/Mol-Kelvin    Cal/Mol-Kelvin
 Total                    2.962              9.936            127.035
 Electronic               0.000              0.000              0.000
 Translational            0.889              2.981             36.503
 Rotational               0.889              2.981             18.032
 Vibrational              1.185              3.974             72.500
 Vibration     1          0.592              1.987             36.595
 Vibration     2          0.592              1.987             35.906
                       Q            Log10(Q)             Ln(Q)
 Total Bot       0.143615D+26         25.157200         57.926593
 Total V=0       0.143615D+26         25.157200         57.926593
 Vib (Bot)       0.946319D+15         14.976038         34.483601
 Vib (Bot)    1  0.365827D+08          7.563276         17.415087
 Vib (Bot)    2  0.258679D+08          7.412761         17.068514
 Vib (V=0)       0.946319D+15         14.976038         34.483601
 Vib (V=0)    1  0.365827D+08          7.563276         17.415087
 Vib (V=0)    2  0.258679D+08          7.412761         17.068514
 Electronic      0.100000D+01          0.000000          0.000000
 Translational   0.779430D+07          6.891777         15.868904
 Rotational      0.194708D+04          3.289385          7.574089
 Write normal modes, IRwNMS=   765 IRotNM= 0 NVibU=     6.
                           ----------------------------
                           ! Normal Mode     1        !
 --------------------------                            --------------------------
 ! Name  Definition              Value          Relative Weight (%)             !
 --------------------------------------------------------------------------------
 ! R1    R(1,2)                 -0.5663                 35.4                    !
 ! R3    R(3,4)                 -0.2                    12.5                    !
 ! A1    A(2,1,3)               -0.3338                 20.9                    !
 ! A2    A(1,3,4)               -0.1771                 11.1                    !
 ! D1    D(2,1,3,4)             -0.3133                 19.6                    !
 --------------------------------------------------------------------------------
                           ----------------------------
                           ! Normal Mode     2        !
 --------------------------                            --------------------------
 ! Name  Definition              Value          Relative Weight (%)             !
 --------------------------------------------------------------------------------
 ! R1    R(1,2)                 -0.2612                 14.3                    !
 ! R3    R(3,4)                  0.7121                 39.0                    !
 ! A1    A(2,1,3)               -0.2445                 13.4                    !
 ! A2    A(1,3,4)                0.2405                 13.2                    !
 ! D1    D(2,1,3,4)              0.3044                 16.7                    !
 --------------------------------------------------------------------------------
                           ----------------------------
                           ! Normal Mode     3        !
 --------------------------                            --------------------------
 ! Name  Definition              Value          Relative Weight (%)             !
 --------------------------------------------------------------------------------
 ! R1    R(1,2)                  0.5518                 25.5                    !
 ! R2    R(1,3)                  0.2555                 11.8                    !
 ! R3    R(3,4)                  0.2516                 11.6                    !
 ! A1    A(2,1,3)               -0.3686                 17.1                    !
 ! A2    A(1,3,4)               -0.4349                 20.1                    !
 ! D1    D(2,1,3,4)              0.2981                 13.8                    !
 --------------------------------------------------------------------------------
                           ----------------------------
                           ! Normal Mode     4        !
 --------------------------                            --------------------------
 ! Name  Definition              Value          Relative Weight (%)             !
 --------------------------------------------------------------------------------
 ! R1    R(1,2)                  0.6611                 38.7                    !
 ! R2    R(1,3)                 -0.4831                 28.3                    !
 ! A2    A(1,3,4)               -0.2752                 16.1                    !
 ! D1    D(2,1,3,4)              0.2472                 14.5                    !
 --------------------------------------------------------------------------------
                           ----------------------------
                           ! Normal Mode     5        !
 --------------------------                            --------------------------
 ! Name  Definition              Value          Relative Weight (%)             !
 --------------------------------------------------------------------------------
 ! R3    R(3,4)                  0.7441                 43.4                    !
 ! A1    A(2,1,3)                0.2275                 13.3                    !
 ! A2    A(1,3,4)               -0.2445                 14.2                    !
 ! D1    D(2,1,3,4)             -0.3768                 22.0                    !
 --------------------------------------------------------------------------------
                           ----------------------------
                           ! Normal Mode     6        !
 --------------------------                            --------------------------
 ! Name  Definition              Value          Relative Weight (%)             !
 --------------------------------------------------------------------------------
 ! R1    R(1,2)                  0.597                  35.7                    !
 ! A1    A(2,1,3)               -0.2021                 12.1                    !
 ! A2    A(1,3,4)                0.2392                 14.3                    !
 ! D1    D(2,1,3,4)             -0.5327                 31.8                    !
 --------------------------------------------------------------------------------
 Max01P=      6 Av01P=    5.33 Stan. Dev.=    0.52
 Max05P=      6 Av05P=    5.00 Stan. Dev.=    0.63
 Max10P=      6 Av10P=    4.67 Stan. Dev.=    0.82
 MaxNDP=      6 AvNDP=    4.67 Stan. Dev.=    0.82
 -------------------------------------------------------------------
 Center     Atomic                   Forces (Hartrees/Bohr)
 Number     Number              X              Y              Z
 -------------------------------------------------------------------
      1        8          -0.000000000   -0.000000000   -0.000000000
      2        1          -0.000000000   -0.000000000   -0.000000000
      3        8          -0.000000000   -0.000000000   -0.000000000
      4        1          -0.000000000   -0.000000000   -0.000000000
 -------------------------------------------------------------------
 Cartesian Forces:  Max     0.000000000 RMS     0.000000000
 Force constants in Cartesian coordinates: 
                1             2             3             4             5 
      1  0.000000D+00
      2  0.000000D+00  0.000000D+00
      3  0.000000D+00  0.000000D+00  0.000000D+00
      4  0.000000D+00  0.000000D+00  0.000000D+00  0.000000D+00
      5  0.000000D+00  0.000000D+00  0.000000D+00  0.000000D+00  0.000000D+00
      6  0.000000D+00  0.000000D+00  0.000000D+00  0.000000D+00  0.000000D+00
      7  0.000000D+00  0.000000D+00  0.000000D+00  0.000000D+00  0.000000D+00
      8  0.000000D+00  0.000000D+00  0.000000D+00  0.000000D+00  0.000000D+00
      9  0.000000D+00  0.000000D+00  0.000000D+00  0.000000D+00  0.000000D+00
     10  0.000000D+00  0.000000D+00  0.000000D+00  0.000000D+00  0.000000D+00
     11  0.000000D+00  0.000000D+00  0.000000D+00  0.000000D+00  0.000000D+00
     12  0.000000D+00  0.000000D+00  0.000000D+00  0.000000D+00  0.000000D+00
                6             7             8             9            10 
      6  0.000000D+00
      7  0.000000D+00  0.000000D+00
      8  0.000000D+00  0.000000D+00  0.000000D+00
      9  0.000000D+00  0.000000D+00  0.000000D+00  0.000000D+00
     10  0.000000D+00  0.000000D+00  0.000000D+00  0.000000D+00  0.000000D+00
     11  0.000000D+00  0.000000D+00  0.000000D+00  0.000000D+00  0.000000D+00
     12  0.000000D+00  0.000000D+00  0.000000D+00  0.000000D+00  0.000000D+00
               11            12 
     11  0.000000D+00
     12  0.000000D+00  0.000000D+00
 Cartesian forces in FCRed:
 I=    1 X=   0.000000000000D+00 Y=   0.000000000000D+00 Z=   0.000000000000D+00
 I=    2 X=   0.000000000000D+00 Y=   0.000000000000D+00 Z=   0.000000000000D+00
 I=    3 X=   0.000000000000D+00 Y=   0.000000000000D+00 Z=   0.000000000000D+00
 I=    4 X=   0.000000000000D+00 Y=   0.000000000000D+00 Z=   0.000000000000D+00
 Cartesian force constants in FCRed: 
                1             2             3             4             5 
      1  0.000000D+00
      2  0.000000D+00  0.000000D+00
      3  0.000000D+00  0.000000D+00  0.000000D+00
      4  0.000000D+00  0.000000D+00  0.000000D+00  0.000000D+00
      5  0.000000D+00  0.000000D+00  0.000000D+00  0.000000D+00  0.000000D+00
      6  0.000000D+00  0.000000D+00  0.000000D+00  0.000000D+00  0.000000D+00
      7  0.000000D+00  0.000000D+00  0.000000D+00  0.000000D+00  0.000000D+00
      8  0.000000D+00  0.000000D+00  0.000000D+00  0.000000D+00  0.000000D+00
      9  0.000000D+00  0.000000D+00  0.000000D+00  0.000000D+00  0.000000D+00
     10  0.000000D+00  0.000000D+00  0.000000D+00  0.000000D+00  0.000000D+00
     11  0.000000D+00  0.000000D+00  0.000000D+00  0.000000D+00  0.000000D+00
     12  0.000000D+00  0.000000D+00  0.000000D+00  0.000000D+00  0.000000D+00
                6             7             8             9            10 
      6  0.000000D+00
      7  0.000000D+00  0.000000D+00
      8  0.000000D+00  0.000000D+00  0.000000D+00
      9  0.000000D+00  0.000000D+00  0.000000D+00  0.000000D+00
     10  0.000000D+00  0.000000D+00  0.000000D+00  0.000000D+00  0.000000D+00
     11  0.000000D+00  0.000000D+00  0.000000D+00  0.000000D+00  0.000000D+00
     12  0.000000D+00  0.000000D+00  0.000000D+00  0.000000D+00  0.000000D+00
               11            12 
     11  0.000000D+00
     12  0.000000D+00  0.000000D+00
 Internal coordinates in FCRed: 
                 1 
      1   0.184082D+01
      2   0.275271D+01
      3   0.184082D+01
      4   0.174967D+01
      5   0.174967D+01
      6   0.206519D+01
 FormGI is forming the generalized inverse of G from B-inverse, IUseBI=4.
 NTrRot=    -1 NTRed=     6 NAtoms=     4 NSkip=     0 NRank=     6 IsLin=F
 Internal forces in FCRed: 
                 1 
      1   0.000000D+00
      2   0.000000D+00
      3   0.000000D+00
      4   0.000000D+00
      5   0.000000D+00
      6   0.000000D+00
 Internal force constants in FCRed: 
                1             2             3             4             5 
      1  0.000000D+00
      2  0.000000D+00  0.000000D+00
      3  0.000000D+00  0.000000D+00  0.000000D+00
      4  0.000000D+00  0.000000D+00  0.000000D+00  0.000000D+00
      5  0.000000D+00  0.000000D+00  0.000000D+00  0.000000D+00  0.000000D+00
      6  0.000000D+00  0.000000D+00  0.000000D+00  0.000000D+00  0.000000D+00
                6 
      6  0.000000D+00
 Force constants in internal coordinates: 
                1             2             3             4             5 
      1  0.000000D+00
      2  0.000000D+00  0.000000D+00
      3  0.000000D+00  0.000000D+00  0.000000D+00
      4  0.000000D+00  0.000000D+00  0.000000D+00  0.000000D+00
      5  0.000000D+00  0.000000D+00  0.000000D+00  0.000000D+00  0.000000D+00
      6  0.000000D+00  0.000000D+00  0.000000D+00  0.000000D+00  0.000000D+00
                6 
      6  0.000000D+00
 Final forces over variables, Energy= 0.00000000D+00:
  0.00000000D+00 0.00000000D+00 0.00000000D+00 0.00000000D+00
  0.00000000D+00 0.00000000D+00
 Leave Link  716 at Thu Nov  9 18:05:51 2023, MaxMem=   134217728 cpu:               0.0 elap:               0.0
 (Enter /home/emanuele/chem_software/gaussian//gdv/l103.exe)

 GradGradGradGradGradGradGradGradGradGradGradGradGradGradGradGradGradGrad
 Berny optimization.
 Internal  Forces:  Max     0.000000000 RMS     0.000000000
 Search for a local minimum.
 Step number   1 out of a maximum of    2
 All quantities printed in internal units (Hartrees-Bohrs-Radians)
 Second derivative matrix not updated -- analytic derivatives used.
 The second derivative matrix:
                          R1        R2        R3        A1        A2
           R1           0.00000
           R2           0.00000   0.00000
           R3           0.00000  -0.00000   0.00000
           A1          -0.00000  -0.00000   0.00000   0.00000
           A2           0.00000   0.00000  -0.00000  -0.00000   0.00000
           D1          -0.00000  -0.00000  -0.00000   0.00000   0.00000
                          D1
           D1           0.00000
 ITU=  0
     Eigenvalues ---    0.00000   0.00000   0.00000   0.00000   0.00000
     Eigenvalues ---    0.00000
 Angle between quadratic step and forces=  90.00 degrees.
 Linear search not attempted -- first point.
 Iteration  1 RMS(Cart)=  0.00000000 RMS(Int)=  0.00000000
 ITry= 1 IFail=0 DXMaxC= 0.00D+00 DCOld= 1.00D+10 DXMaxT= 3.00D-01 DXLimC= 3.00D+00 Rises=F
 Variable       Old X    -DE/DX   Delta X   Delta X   Delta X     New X
                                 (Linear)    (Quad)   (Total)
    R1        1.84082   0.00000   0.00000   0.00000   0.00000   1.84082
    R2        2.75271   0.00000   0.00000   0.00000   0.00000   2.75271
    R3        1.84082   0.00000   0.00000   0.00000   0.00000   1.84082
    A1        1.74967   0.00000   0.00000   0.00000   0.00000   1.74967
    A2        1.74967   0.00000   0.00000   0.00000   0.00000   1.74967
    D1        2.06519   0.00000   0.00000   0.00000   0.00000   2.06519
         Item               Value     Threshold  Converged?
 Maximum Force            0.000000     0.000450     YES
 RMS     Force            0.000000     0.000300     YES
 Maximum Displacement     0.000000     0.001800     YES
 RMS     Displacement     0.000000     0.001200     YES
 Predicted change in Energy=-0.000000D+00
 Optimization completed.
    -- Stationary point found.
                           ----------------------------
                           !   Optimized Parameters   !
                           ! (Angstroms and Degrees)  !
 --------------------------                            --------------------------
 ! Name  Definition              Value          Derivative Info.                !
 --------------------------------------------------------------------------------
 ! R1    R(1,2)                  0.9741         -DE/DX =    0.0                 !
 ! R2    R(1,3)                  1.4567         -DE/DX =    0.0                 !
 ! R3    R(3,4)                  0.9741         -DE/DX =    0.0                 !
 ! A1    A(2,1,3)              100.2486         -DE/DX =    0.0                 !
 ! A2    A(1,3,4)              100.2487         -DE/DX =    0.0                 !
 ! D1    D(2,1,3,4)            118.3268         -DE/DX =    0.0                 !
 --------------------------------------------------------------------------------
 GradGradGradGradGradGradGradGradGradGradGradGradGradGradGradGradGradGrad

 Leave Link  103 at Thu Nov  9 18:05:51 2023, MaxMem=   134217728 cpu:               0.0 elap:               0.0
 (Enter /home/emanuele/chem_software/gaussian//gdv/l9999.exe)

 Test job not archived.
 1\1\GINC-EMANUELE-XPS-13-9343\Freq\AMBER\ZDO\H2O2\EMANUELE\09-Nov-2023
 \0\\#p amber=softfirst geom=connectivity nosymm iop(4/33=3,7/33=1) fre
 q=intmodes\\MM\\0,1\O,-0.718633164,-0.1184722951,-0.0546176185\H,-1.02
 35382452,0.665457464,0.4367070528\O,0.7186370323,0.1184689581,-0.05457
 3365\H,1.0235072725,-0.665430767,0.4368208142\\Version=ES64L-GDVRevJ.1
 4\HF=0.\RMSD=0.000e+00\RMSF=0.000e+00\Thermal=0.0047209\ETot=0.0047209
 \HTot=0.0056651\GTot=-0.0546934\Dipole=0.,0.,0.\PG=C01 [X(H2O2)]\NImag
 =4\\0.,0.,0.,0.,0.,0.,0.,0.,0.,0.,0.,0.,0.,0.,0.,0.,0.,0.,0.,0.,0.,0.,
 0.,0.,0.,0.,0.,0.,0.,0.,0.,0.,0.,0.,0.,0.,0.,0.,0.,0.,0.,0.,0.,0.,0.,0
 .,0.,0.,0.,0.,0.,0.,0.,0.,0.,0.,0.,0.,0.,0.,0.,0.,0.,0.,0.,0.,0.,0.,0.
 ,0.,0.,0.,0.,0.,0.,0.,0.,0.\\0.,0.,0.,0.,0.,0.,0.,0.,0.,0.,0.,0.\\\@


 At the touch of love, everyone becomes a poet.
                                -- Plato
 Job cpu time:       0 days  0 hours  0 minutes  0.5 seconds.
 Elapsed time:       0 days  0 hours  0 minutes  0.4 seconds.
 File lengths (MBytes):  RWF=      6 Int=      0 D2E=      0 Chk=      1 Scr=      1
 Normal termination of Gaussian DV at Thu Nov  9 18:05:51 2023.
