 Entering Gaussian System, Link 0=g09
 Input=mmH2O2_2.com
 Output=mmH2O2_2.log
 Initial command:
 /home/emanuele/chem_software/gaussian//gdv/l1.exe "/home/emanuele/chem_software/gaussian/scratch/Gau-8037.inp" -scrdir="/home/emanuele/chem_software/gaussian/scratch/"
 Entering Link 1 = /home/emanuele/chem_software/gaussian//gdv/l1.exe PID=      8039.
  
 Copyright (c) 1988-2020, Gaussian, Inc.  All Rights Reserved.
  
 This is the private, development version of
 the Gaussian(R) DV system of programs. It is based on
 the Gaussian(R) 16 system (copyright 2016, Gaussian, Inc.),
 the Gaussian(R) 09 system (copyright 2009, Gaussian, Inc.),
 the Gaussian(R) 03 system (copyright 2003, Gaussian, Inc.),
 the Gaussian(R) 98 system (copyright 1998, Gaussian, Inc.),
 the Gaussian(R) 94 system (copyright 1995, Gaussian, Inc.),
 the Gaussian 92(TM) system (copyright 1992, Gaussian, Inc.),
 the Gaussian 90(TM) system (copyright 1990, Gaussian, Inc.),
 the Gaussian 88(TM) system (copyright 1988, Gaussian, Inc.),
 the Gaussian 86(TM) system (copyright 1986, Carnegie Mellon
 University), and the Gaussian 82(TM) system (copyright 1983,
 Carnegie Mellon University). Gaussian is a federally registered
 trademark of Gaussian, Inc.
  
 This software contains proprietary and confidential information,
 including trade secrets, belonging to Gaussian, Inc.
  
 This software is provided under written license and may be
 used, copied, transmitted, or stored only in accord with that
 written license.
  
 The following legend is applicable only to US Government
 contracts under FAR:
  
                    RESTRICTED RIGHTS LEGEND
  
 Use, reproduction and disclosure by the US Government is
 subject to restrictions as set forth in subparagraphs (a)
 and (c) of the Commercial Computer Software - Restricted
 Rights clause in FAR 52.227-19.
  
 Gaussian, Inc.
 340 Quinnipiac St., Bldg. 40, Wallingford CT 06492
  
  
 ---------------------------------------------------------------
 Warning -- This program may not be used in any manner that
 competes with the business of Gaussian, Inc. or will provide
 assistance to any competitor of Gaussian, Inc.  The licensee
 of this program is prohibited from giving any competitor of
 Gaussian, Inc. access to this program.  By using this program,
 the user acknowledges that Gaussian, Inc. is engaged in the
 business of creating and licensing software in the field of
 computational chemistry and represents and warrants to the
 licensee that it is not a competitor of Gaussian, Inc. and that
 it will not use this program in any manner prohibited above.
 ---------------------------------------------------------------
  

 Cite this work as:
 Gaussian Development Version, Revision J.14,
 M. J. Frisch, G. W. Trucks, H. B. Schlegel, G. E. Scuseria, 
 M. A. Robb, J. R. Cheeseman, G. Scalmani, V. Barone, 
 G. A. Petersson, H. Nakatsuji, X. Li, A. V. Marenich, M. Caricato, 
 J. Bloino, B. G. Janesko, J. Zheng, R. Gomperts, B. Mennucci, 
 H. P. Hratchian, J. V. Ortiz, A. F. Izmaylov, J. L. Sonnenberg, 
 D. Williams-Young, F. Ding, F. Lipparini, F. Egidi, J. Goings, 
 B. Peng, A. Petrone, T. Henderson, D. Ranasinghe, V. G. Zakrzewski, 
 J. Gao, N. Rega, G. Zheng, W. Liang, M. Hada, M. Ehara, K. Toyota, 
 R. Fukuda, J. Hasegawa, M. Ishida, T. Nakajima, Y. Honda, O. Kitao, 
 H. Nakai, T. Vreven, K. Throssell, J. A. Montgomery, Jr., 
 J. E. Peralta, F. Ogliaro, M. J. Bearpark, J. J. Heyd, 
 E. N. Brothers, K. N. Kudin, V. N. Staroverov, T. A. Keith, 
 R. Kobayashi, J. Normand, K. Raghavachari, A. P. Rendell, 
 J. C. Burant, S. S. Iyengar, J. Tomasi, M. Cossi, J. M. Millam, 
 M. Klene, C. Adamo, R. Cammi, J. W. Ochterski, R. L. Martin, 
 K. Morokuma, O. Farkas, J. B. Foresman, and D. J. Fox, 
 Gaussian, Inc., Wallingford CT, 2020.
 
 ******************************************
 Gaussian DV:  ES64L-GDVRevJ.14 29-Dec-2020
                 9-Nov-2023 
 ******************************************
 %mem=1gb
 %chk=mmH2O2_2.chk
 ----------------------------------------------------------------------
 #p amber=softfirst geom=connectivity nosymm iop(4/33=3,7/33=1) freq=in
 tmodes
 ----------------------------------------------------------------------
 1/10=4,18=20,30=1,37=210000000,38=1,56=2,57=2,64=203/1,3;
 2/9=110,12=2,15=1,40=1/2;
 3/5=30,11=9,25=1,30=1,41=10030000,43=2,71=2,140=1/1;
 4/20=11,22=2,24=3,33=3/2;
 7/8=21,25=1,30=1,33=1,44=-1/16;
 1/10=4,18=20,30=1,64=203/3;
 99//99;
 Leave Link    1 at Thu Nov  9 18:12:33 2023, MaxMem=   134217728 cpu:               0.0 elap:               0.0
 (Enter /home/emanuele/chem_software/gaussian//gdv/l101.exe)
 --
 MM
 --
 Symbolic Z-matrix:
 Charge =  0 Multiplicity = 1
 O-oh--0.410452       -0.71863  -0.11847  -0.05462 
 H-ho-0.410452        -1.02354   0.66546   0.43671 
 O-oh--0.410452        0.71864   0.11847  -0.05457 
 H-ho-0.410452         1.02351  -0.66543   0.43682 
 
 ITRead=  0  0  0  0
 MicOpt= -1 -1 -1 -1
 NAtoms=      4 NQM=        4 NQMF=       0 NMMI=      0 NMMIF=      0
                NMic=       0 NMicF=      0.
                    Isotopes and Nuclear Properties:
 (Nuclear quadrupole moments (NQMom) in fm**2, nuclear magnetic moments (NMagM)
  in nuclear magnetons)

  Atom         1           2           3           4
 IAtWgt=          16           1          16           1
 AtmWgt=  15.9949146   1.0078250  15.9949146   1.0078250
 NucSpn=           0           1           0           1
 AtZEff=  -0.0000000  -0.0000000  -0.0000000  -0.0000000
 NQMom=    0.0000000   0.0000000   0.0000000   0.0000000
 NMagM=    0.0000000   2.7928460   0.0000000   2.7928460
 AtZNuc=   8.0000000   1.0000000   8.0000000   1.0000000
 Generating MM parameters.
 Read MM parameter file:
 Include all MM classes

 MM sanity checks:
 All charges sum to:                0.00000000
 Charges of atoms sum to:           0.00000000
 WARNING -- The following centers have non-zero partial charges, but zero Vanderwaals
 parameters.  These centers can collapse onto other centers with non-zero charge.
   Center  Layer   Charge
      2 H    R    0.410452
      4 H    R    0.410452
 MMInit generated parameter data with length LenPar=         709.
 MM Charge=              0.0000 electrons
 MM Dipole moment (Debye):
    X=             -0.0001    Y=              0.0001    Z=              1.9374  Tot=              1.9374
 MM Quadrupole moment (Debye-Ang):
   XX=              2.0944   YY=              1.6907   ZZ=              0.7404
   XY=             -3.0212   XZ=              0.0001   YZ=             -0.0001
 MM Traceless Quadrupole moment (Debye-Ang):
   XX=              0.5859   YY=              0.1822   ZZ=             -0.7681
   XY=             -3.0212   XZ=              0.0001   YZ=             -0.0001
 MM Octapole moment (Debye-Ang**2):
  XXX=             -0.0002  YYY=              0.0001  ZZZ=              0.3292  XYY=             -0.0001
  XXY=              0.0001  XXZ=              1.9153  XZZ=              0.0002  YZZ=             -0.0001
  YYZ=              0.7656  XYZ=             -1.1546
 MM Hexadecapole moment (Debye-Ang**3):
 XXXX=              3.2756 YYYY=              0.7724 ZZZZ=              0.1435 XXXY=             -2.9867
 XXXZ=              0.0001 YYYX=             -1.1939 YYYZ=             -0.0000 ZZZX=              0.0001
 ZZZY=             -0.0001 XXYY=              1.8005 XXZZ=              0.7819 YYZZ=              0.3329
 XXYZ=             -0.0001 YYXZ=              0.0001 ZZXY=             -0.5133
 Leave Link  101 at Thu Nov  9 18:12:33 2023, MaxMem=   134217728 cpu:               0.2 elap:               0.2
 (Enter /home/emanuele/chem_software/gaussian//gdv/l103.exe)

 GradGradGradGradGradGradGradGradGradGradGradGradGradGradGradGradGradGrad
 Berny optimization.
 Initialization pass.
                           ----------------------------
                           !    Initial Parameters    !
                           ! (Angstroms and Degrees)  !
 --------------------------                            --------------------------
 ! Name  Definition              Value          Derivative Info.                !
 --------------------------------------------------------------------------------
 ! R1    R(1,2)                  0.9741         calculate D2E/DX2 analytically  !
 ! R2    R(1,3)                  1.4567         calculate D2E/DX2 analytically  !
 ! R3    R(3,4)                  0.9741         calculate D2E/DX2 analytically  !
 ! A1    A(2,1,3)              100.2486         calculate D2E/DX2 analytically  !
 ! A2    A(1,3,4)              100.2487         calculate D2E/DX2 analytically  !
 ! D1    D(2,1,3,4)            118.3268         calculate D2E/DX2 analytically  !
 --------------------------------------------------------------------------------
 Trust Radius=3.00D-01 FncErr=1.00D-07 GrdErr=1.00D-07 EigMax=2.50D+02 EigMin=1.00D-04
 Number of steps in this run=      2 maximum allowed number of steps=      2.
 GradGradGradGradGradGradGradGradGradGradGradGradGradGradGradGradGradGrad

 Leave Link  103 at Thu Nov  9 18:12:33 2023, MaxMem=   134217728 cpu:               0.0 elap:               0.0
 (Enter /home/emanuele/chem_software/gaussian//gdv/l202.exe)
                          Input orientation:                          
 ---------------------------------------------------------------------
 Center     Atomic      Atomic             Coordinates (Angstroms)
 Number     Number       Type             X           Y           Z
 ---------------------------------------------------------------------
      1          8    20001022       -0.718633   -0.118472   -0.054618
      2          1    20001031       -1.023538    0.665457    0.436707
      3          8    20001022        0.718637    0.118469   -0.054573
      4          1    20001031        1.023507   -0.665431    0.436821
 ---------------------------------------------------------------------
                    Distance matrix (angstroms):
                    1          2          3          4
     1  O    0.000000
     2  H    0.974122   0.000000
     3  O    1.456670   1.890959   0.000000
     4  H    1.890960   2.441651   0.974122   0.000000
 Symmetry turned off by external request.
 Stoichiometry    H2O2
 Framework group  C1[X(H2O2)]
 Deg. of freedom     6
 Full point group                 C1      NOp   1
 Rotational constants (GHZ):         298.2506017          26.3287104          25.3020285
 Leave Link  202 at Thu Nov  9 18:12:33 2023, MaxMem=   134217728 cpu:               0.0 elap:               0.0
 (Enter /home/emanuele/chem_software/gaussian//gdv/l301.exe)
 Standard basis: Dummy (5D, 7F)
     4 basis functions,     4 primitive gaussians,     4 cartesian basis functions
     3 alpha electrons        3 beta electrons
       nuclear repulsion energy         4.9621689179 Hartrees.
 IExCor=       0 DFT=F Ex=HF Corr=None N6=None ScaHFX=  1.000000
 ScaDFX=  1.000000  1.000000  1.000000  1.000000  1.000000  0.000000
 ScaDFX=  0.000000  0.000000  0.000000  0.000000  0.000000  0.000000
 IRadAn=      5 IRanWt=     -1 IRanGd=            0 ICorTp=0 IEmpDi=  4
 NAtoms=    4 NActive=    4 NUniq=    4 SFac= 1.00D+00 NAtFMM=   60 NAOKFM=F Big=F
 Integral buffers will be    131072 words long.
 Raffenetti 1 integral format.
 Two-electron integral symmetry is turned off.
 Leave Link  301 at Thu Nov  9 18:12:33 2023, MaxMem=   134217728 cpu:               0.0 elap:               0.0
 (Enter /home/emanuele/chem_software/gaussian//gdv/l402.exe)
 GetPCM: File not found, return IValue=0.
 AtDip 
                 1             2             3 
      1   0.000000D+00  0.000000D+00  0.000000D+00
      2   0.000000D+00  0.000000D+00  0.000000D+00
      3   0.000000D+00  0.000000D+00  0.000000D+00
      4   0.000000D+00  0.000000D+00  0.000000D+00
 AtQua 
                 1             2             3             4             5 
      1   0.000000D+00  0.000000D+00  0.000000D+00  0.000000D+00  0.000000D+00
      2   0.000000D+00  0.000000D+00  0.000000D+00  0.000000D+00  0.000000D+00
      3   0.000000D+00  0.000000D+00  0.000000D+00  0.000000D+00  0.000000D+00
      4   0.000000D+00  0.000000D+00  0.000000D+00  0.000000D+00  0.000000D+00
                 6 
      1   0.000000D+00
      2   0.000000D+00
      3   0.000000D+00
      4   0.000000D+00
 AtPol 
                 1 
      1   0.000000D+00
      2   0.000000D+00
      3   0.000000D+00
      4   0.000000D+00
 AMBER calculation of energy, first and second derivatives.
 No initial guess density matrices.
 EGHMM:  JobTyp=     2 NAtoms=     4.
 ****************************
 MOLECULAR MECHANICS FUNCTION
 ****************************
 Atomic parameters:
 Center  VDW
      1 1.7210 0.2104000
      2 0.0000 0.0000000
      3 1.7210 0.2104000
      4 0.0000 0.0000000
 Molecular mechanics terms:
 NBDir 3 1      0      0
 HrmStr1 2-1    1.00 0.9741
 HrmStr1 1-3    1.00 1.4567
 HrmStr1 4-3    1.00 0.9741
 HrmBnd1 4-3-1   1.00 100.25
 HrmBnd1 2-1-3   1.00 100.25
 AmbTrs 2-1-3-4   0   0   0   0  0.0000  1.0000  0.0000  0.0000  1.0
 NBPair 2-1 3 1      0      0 -1.000 -1.000
 NBPair 3-2 3 1      0      0 -1.000 -1.000
 NBPair 3-1 3 1      0      0 -1.000 -1.000
 NBPair 4-2 3 1      0      0 -0.500 -0.167
 NBPair 4-1 3 1      0      0 -1.000 -1.000
 NBPair 4-3 3 1      0      0 -1.000 -1.000
 Enter MMCalc
 NNonBon      3     1     0     0     0     0    0.000000    0.000000    0.000000    0.000000    0.000000    0.000000
 Non-bonded terms on-the-fly without fast algorithms, OKV=T OKC=T.
 Energy per function type:
 Direct Coulomb + vdW (small)                           0.000000000
 Direct Coulomb (large)                                -0.179615900
 Direct vdW (large)                                    10.041614316
 Non-direct Coulomb + vdW (small)                      -0.006085427
 Non-direct Coulomb (large)                             0.216128464
 Non-direct vdW (large)                               -10.041614316
 Amber torsion                                          0.000717601
 Energy per function class:
        Coulomb               0.030427136
    Vanderwaals               0.000000000
     Stretching               0.000000000
        Bending               0.000000000
        Torsion               0.000717601
 Energy=    3.114473694E-02 NIter=   0.
 Dipole moment=      -0.000027       0.000023       0.762238
 Derivatives in ZDOGrd:
 I=    1 X=   1.516674827833D-04 Y=  -9.202286020904D-04 Z=   1.262049163362D-03
 I=    2 X=   5.406189078383D-03 Y=  -2.851149117549D-03 Z=  -1.261736040378D-03
 I=    3 X=  -1.517584887909D-04 Y=   9.203052550074D-04 Z=   1.261983568349D-03
 I=    4 X=  -5.406098072376D-03 Y=   2.851072464631D-03 Z=  -1.262296691333D-03
 Force constants in ZDOGrd:
                1                     2                     3
   1    1.736367052865D-03
   2    3.771991804131D-04    7.557844405148D-04
   3    7.067005197009D-04    5.085843561645D-04    2.515751968855D-03
   4   -8.781497706258D-04   -3.619888973888D-04   -7.039652575223D-04
   5   -1.042070123544D-04   -3.506492259485D-04   -5.251206595027D-04
   6    4.323447596375D-05   -2.885993555803D-04   -1.850794906343D-03
   7   -8.260015662245D-04   -2.107545008130D-04    6.707358693955D-04
   8   -2.108455284144D-04   -7.822403821418D-04    7.002785716040D-04
   9   -6.707824084125D-04   -7.002451146029D-04    7.952964619307D-06
  10   -3.221571606127D-05    1.955442177832D-04   -6.734711315741D-04
  11   -6.214663965438D-05    3.771051675715D-04   -6.837422682659D-04
  12   -7.915258725214D-05    4.802601140186D-04   -6.729100271353D-04
                4                     5                     6
   4    2.502369424509D-03
   5   -1.838030775734D-03    9.136972163714D-05
   6   -4.579099828658D-05    3.050354771174D-04    3.071801464113D-04
   7   -3.226962389940D-05   -6.219079703003D-05    7.920230045707D-05
   8    1.956196445550D-04    3.771176311202D-04   -4.803103200220D-04
   9    6.735050978469D-04    6.836738315723D-04   -6.728689903774D-04
  10   -1.591950029984D-03    2.004428585118D-03   -7.664577813423D-05
  11    2.004400028568D-03   -1.178381268089D-04    4.638741984849D-04
  12    7.625115796198D-05   -4.635886491870D-04    2.216483750309D-03
                7                     8                     9
   7    1.736468077413D-03
   8    3.771928247528D-04    7.557224732008D-04
   9   -7.067798087798D-04   -5.084507826336D-04    2.515713840427D-03
  10   -8.781968872757D-04   -3.619669409040D-04    7.040571193454D-04
  11   -1.042475269159D-04   -3.505997221823D-04    5.250220656641D-04
  12   -4.315836107275D-05    2.884825310516D-04   -1.850797814671D-03
               10                    11                    12
  10    2.502362633321D-03
  11   -1.838005861998D-03    9.133268141971D-05
  12    4.605979036292D-05   -3.051539958832D-04    3.072240914969D-04
 Leave Link  402 at Thu Nov  9 18:12:33 2023, MaxMem=   134217728 cpu:               0.0 elap:               0.0
 (Enter /home/emanuele/chem_software/gaussian//gdv/l716.exe)
 GetPMM: IRwPM=    824 LRwPM=      0 LPMAll=      2
 FrcOut:
 IF    =        87 IFX   =        99 IFXYZ =       111
 IFFX  =       123 IFFFX =       201 IFLen =        12
 IFFLen=        78 IFFFLn=         0 IEDerv=       201
 LEDerv=       629 IFroze=      1000 ICStrt=      1053
 Dipole        =-2.70241577D-05 2.32956131D-05 7.62237884D-01
 DipoleDeriv   =-4.10452000D-01 0.00000000D+00 0.00000000D+00
                 0.00000000D+00-4.10452000D-01 0.00000000D+00
                 0.00000000D+00 0.00000000D+00-4.10452000D-01
                 4.10452000D-01 0.00000000D+00 0.00000000D+00
                 0.00000000D+00 4.10452000D-01 0.00000000D+00
                 0.00000000D+00 0.00000000D+00 4.10452000D-01
                -4.10452000D-01 0.00000000D+00 0.00000000D+00
                 0.00000000D+00-4.10452000D-01 0.00000000D+00
                 0.00000000D+00 0.00000000D+00-4.10452000D-01
                 4.10452000D-01 0.00000000D+00 0.00000000D+00
                 0.00000000D+00 4.10452000D-01 0.00000000D+00
                 0.00000000D+00 0.00000000D+00 4.10452000D-01
 VibFq2-Diag1:  N=     12 IV=           5 MDV=   134215831 NE2=    11184652
 Full mass-weighted force constant matrix:
 Low frequencies --- -241.5080 -239.3763  -73.9577   -0.0002   -0.0001    0.0000
 Low frequencies ---   47.8690   71.1897  107.2495
 OrtVCM:  Ph=1 IPass= 1 DotMx1= 0.00D+00
 OrtVCM:  IS=    1 I=    1 IndO=    1 Dot= 1.00D+00 DotN= 1.00D+00 ElMax1= 6.86D-01 ElMax1N= 6.86D-01
 OrtVCM:  Ph=2 NNew=    0 IAdd=    2 IPass= 1 DotMx2= 0.00D+00
 OrtVCM:  IS=    1 I=    2 IndO=    2 Dot= 1.00D+00 DotN= 1.00D+00 ElMax1= 6.86D-01 ElMax1N= 6.86D-01
 OrtVCM:  Ph=2 NNew=    0 IAdd=    3 IPass= 1 DotMx2= 0.00D+00
 OrtVCM:  IS=    1 I=    3 IndO=    3 Dot= 1.00D+00 DotN= 1.00D+00 ElMax1= 6.86D-01 ElMax1N= 6.86D-01
 OrtVCM:  Ph=2 NNew=    0 IAdd=    4 IPass= 1 DotMx2= 1.39D-17
 OrtVCM:  IS=    1 I=    4 IndO=    4 Dot= 1.00D+00 DotN= 1.00D+00 ElMax1= 5.73D-01 ElMax1N= 5.73D-01
 OrtVCM:  Ph=2 NNew=    0 IAdd=    5 IPass= 1 DotMx2= 1.39D-16
 OrtVCM:  IS=    1 I=    5 IndO=    5 Dot= 1.00D+00 DotN= 1.00D+00 ElMax1= 6.62D-01 ElMax1N= 6.62D-01
 OrtVCM:  Ph=2 NNew=    0 IAdd=    6 IPass= 1 DotMx2= 6.95D-17
 OrtVCM:  IS=    1 I=    6 IndO=    6 Dot= 1.00D+00 DotN= 1.00D+00 ElMax1= 6.43D-01 ElMax1N= 6.43D-01
 OrtVCM:  Ph=1 IPass= 1 DotMx1= 6.86D-01
 OrtVCM:  Ph=1 IPass= 2 DotMx1= 1.42D-16
 OrtVCM:  IS=    1 I=    1 IndO=    7 Dot= 5.18D-01 DotN= 5.18D-01 ElMax1= 5.18D-01 ElMax1N= 5.18D-01
 OrtVCM:  Ph=2 NNew=    0 IAdd=    2 IPass= 1 DotMx2= 9.55D-02
 OrtVCM:  Ph=2 NNew=    0 IAdd=    2 IPass= 2 DotMx2= 6.05D-17
 OrtVCM:  IS=    1 I=    2 IndO=    8 Dot= 9.90D-02 DotN= 9.90D-02 ElMax1= 2.37D-01 ElMax1N= 2.37D-01
 OrtVCM:  Ph=2 NNew=    0 IAdd=    3 IPass= 1 DotMx2= 5.19D-02
 OrtVCM:  Ph=2 NNew=    0 IAdd=    3 IPass= 2 DotMx2= 1.91D-17
 OrtVCM:  IS=    1 I=    3 IndO=    9 Dot= 5.08D-02 DotN= 5.08D-02 ElMax1= 1.47D-01 ElMax1N= 1.47D-01
 OrtVCM:  Ph=2 NNew=    0 IAdd=    4 IPass= 1 DotMx2= 2.71D-01
 OrtVCM:  Ph=2 NNew=    0 IAdd=    4 IPass= 2 DotMx2= 8.87D-17
 OrtVCM:  IS=    1 I=    4 IndO=   10 Dot= 7.99D-01 DotN= 7.99D-01 ElMax1= 7.99D-01 ElMax1N= 7.99D-01
 OrtVCM:  Ph=2 NNew=    0 IAdd=    5 IPass= 1 DotMx2= 7.54D-01
 OrtVCM:  Ph=2 NNew=    0 IAdd=    5 IPass= 2 DotMx2= 7.29D-17
 OrtVCM:  IS=    1 I=    5 IndO=   11 Dot= 1.14D-01 DotN= 1.14D-01 ElMax1= 2.54D-01 ElMax1N= 2.54D-01
 OrtVCM:  Ph=2 NNew=    0 IAdd=    6 IPass= 1 DotMx2= 6.52D-01
 OrtVCM:  Ph=2 NNew=    0 IAdd=    6 IPass= 2 DotMx2= 8.97D-17
 OrtVCM:  IS=    1 I=    6 IndO=    0 Dot= 3.75D-32 DotN= 3.75D-32 ElMax1= 1.11D-16 ElMax1N= 1.11D-16
 SchOr2:  IPass= 1 Test2A= 1.00D-01 IOff=     0 NDo=     6 NNew=     5
 OrtVCM:  Ph=1 IPass= 1 DotMx1= 6.86D-01
 OrtVCM:  Ph=1 IPass= 2 DotMx1= 1.51D-16
 OrtVCM:  IS=    1 I=    1 IndO=    0 Dot= 5.81D-03 DotN= 5.81D-03 ElMax1= 5.95D-02 ElMax1N= 5.95D-02
 SchOr2:  IPass= 1 Test2A= 1.00D-01 IOff=     6 NDo=     1 NNew=     0
 OrtVCM:  Ph=1 IPass= 1 DotMx1= 6.86D-01
 OrtVCM:  Ph=1 IPass= 2 DotMx1= 1.25D-16
 OrtVCM:  IS=    1 I=    1 IndO=   12 Dot= 3.84D-02 DotN= 3.84D-02 ElMax1= 1.53D-01 ElMax1N= 1.53D-01
 SchOr2:  IPass= 1 Test2A= 1.00D-01 IOff=     7 NDo=     1 NNew=     1
 VibFq2-Diag2:  N=      6 IV=           5 MDV=   134215831 NE2=    22369304
 ******    1 imaginary frequencies (negative Signs) ****** 
 Dipole derivative wrt mode   1: -1.99952D-05  1.85425D-05  5.63760D-01
 Vibrational polarizability contributions from mode   1       0.0000000       0.0000000       0.1934569
 Dipole derivative wrt mode   2:  6.86624D-06 -1.32920D-05 -9.63763D-02
 Vibrational polarizability contributions from mode   2       0.0000000       0.0000000       0.0531755
 Dipole derivative wrt mode   3: -5.25889D+00  1.51454D+01 -6.48611D-04
 Vibrational polarizability contributions from mode   3     107.2242697     889.3414508       0.0000016
 Dipole derivative wrt mode   4:  1.76078D+01  4.89754D+00  4.83204D-04
 Vibrational polarizability contributions from mode   4     284.6356088      22.0210327       0.0000002
 Dipole derivative wrt mode   5: -6.67272D-04  5.65414D-04  1.85965D+01
 Vibrational polarizability contributions from mode   5       0.0000002       0.0000001     132.2761567
 Dipole derivative wrt mode   6:  1.92489D-05 -1.65604D-05 -5.52701D-01
 Vibrational polarizability contributions from mode   6       0.0000000       0.0000000       0.0484988
 Diagonal vibrational polarizability:
      391.8598786     911.3624836     132.5712898
 NorSel:  MapVib=      1      2      3      4      5      6
 Harmonic frequencies (cm**-1), IR intensities (KM/Mole), Raman scattering
 activities (A**4/AMU), depolarization ratios for plane and unpolarized
 incident light, reduced masses (AMU), force constants (mDyne/A),
 and normal coordinates:
                      1                      2                      3
                      A                      A                      A
 Frequencies --   -210.2659                68.5616                83.3133
 Red. masses --      1.1803                14.5726                 1.0684
 Frc consts  --      0.0307                 0.0404                 0.0044
 IR Inten    --      0.3178                 0.0093               257.0403
  Atom  AN      X      Y      Z        X      Y      Z        X      Y      Z
     1   8     0.03  -0.07  -0.00     0.66   0.13   0.00     0.01  -0.04  -0.02
     2   1     0.37   0.60   0.02    -0.04  -0.21  -0.01    -0.20   0.57   0.36
     3   8    -0.03   0.07  -0.00    -0.66  -0.13   0.00     0.01  -0.04   0.02
     4   1    -0.37  -0.60   0.02     0.04   0.21  -0.01    -0.20   0.57  -0.36
                      4                      5                      6
                      A                      A                      A
 Frequencies --    171.2088               265.2515               411.7101
 Red. masses --      1.0999                 1.0671                 1.0087
 Frc consts  --      0.0190                 0.0442                 0.1007
 IR Inten    --    334.0192               345.8312                 0.3055
  Atom  AN      X      Y      Z        X      Y      Z        X      Y      Z
     1   8    -0.04  -0.01  -0.03     0.00   0.00  -0.04     0.00   0.00   0.00
     2   1     0.68   0.19   0.05    -0.03  -0.01   0.71    -0.60   0.37  -0.02
     3   8    -0.04  -0.01   0.03    -0.00  -0.00  -0.04    -0.00  -0.00   0.00
     4   1     0.68   0.19  -0.05     0.03   0.01   0.71     0.60  -0.37  -0.02

 -------------------
 - Thermochemistry -
 -------------------
 Temperature   298.150 Kelvin.  Pressure      1.00000 Atm.
 Atom     1 has atomic number  8 and mass  15.99491
 Atom     2 has atomic number  1 and mass   1.00783
 Atom     3 has atomic number  8 and mass  15.99491
 Atom     4 has atomic number  1 and mass   1.00783
 Molecular mass:    34.00548 amu.
 Principal axes and moments of inertia in atomic units:
                                 1                 2                 3
     Eigenvalues --            6.051090         68.546510         71.327926
           X                   0.996999         -0.077411         -0.000036
           Y                   0.077411          0.996999          0.000030
           Z                   0.000033         -0.000033          1.000000
 This molecule is an asymmetric top.
 Rotational symmetry number  1.
 Rotational temperatures (Kelvin)     14.31377     1.26358     1.21431
 Rotational constants (GHZ):         298.25060    26.32871    25.30203
    1 imaginary frequencies ignored.
 Zero-point vibrational energy       5981.6 (Joules/Mol)
                                    1.42964 (Kcal/Mol)
 Warning -- explicit consideration of   5 degrees of freedom as
           vibrations may cause significant error
 Vibrational temperatures:     98.64   119.87   246.33   381.64   592.36
          (Kelvin)
 
 Zero-point correction=                           0.002278 (Hartree/Particle)
 Thermal correction to Energy=                    0.008045
 Thermal correction to Enthalpy=                  0.008989
 Thermal correction to Gibbs Free Energy=        -0.023087
 Sum of electronic and zero-point Energies=              0.033423
 Sum of electronic and thermal Energies=                 0.039190
 Sum of electronic and thermal Enthalpies=               0.040134
 Sum of electronic and thermal Free Energies=            0.008058
 
                     E (Thermal)             CV                S
                      KCal/Mol        Cal/Mol-Kelvin    Cal/Mol-Kelvin
 Total                    5.048             14.951             67.510
 Electronic               0.000              0.000              0.000
 Translational            0.889              2.981             36.503
 Rotational               0.889              2.981             18.032
 Vibrational              3.271              8.989             12.975
 Vibration     1          0.598              1.969              4.194
 Vibration     2          0.600              1.961              3.811
 Vibration     3          0.626              1.878              2.422
 Vibration     4          0.671              1.737              1.627
 Vibration     5          0.776              1.445              0.921
                       Q            Log10(Q)             Ln(Q)
 Total Bot       0.416049D+11         10.619145         24.451485
 Total V=0       0.464596D+12         11.667076         26.864435
 Vib (Bot)       0.274147D+01          0.437983          1.008493
 Vib (Bot)    1  0.300872D+01          0.478381          1.101514
 Vib (Bot)    2  0.247062D+01          0.392806          0.904470
 Vib (Bot)    3  0.117661D+01          0.070633          0.162638
 Vib (Bot)    4  0.730347D+00         -0.136471         -0.314235
 Vib (Bot)    5  0.429174D+00         -0.367367         -0.845893
 Vib (V=0)       0.306136D+02          1.485914          3.421443
 Vib (V=0)    1  0.354998D+01          0.550226          1.266942
 Vib (V=0)    2  0.302071D+01          0.480109          1.105491
 Vib (V=0)    3  0.177844D+01          0.250039          0.575737
 Vib (V=0)    4  0.138510D+01          0.141482          0.325774
 Vib (V=0)    5  0.115893D+01          0.064058          0.147498
 Electronic      0.100000D+01          0.000000          0.000000
 Translational   0.779430D+07          6.891777         15.868904
 Rotational      0.194708D+04          3.289385          7.574089
 Write normal modes, IRwNMS=   765 IRotNM= 0 NVibU=     6.
                           ----------------------------
                           ! Normal Mode     1        !
 --------------------------                            --------------------------
 ! Name  Definition              Value          Relative Weight (%)             !
 --------------------------------------------------------------------------------
 ! R1    R(1,2)                  0.4438                 23.1                    !
 ! R3    R(3,4)                  0.4438                 23.1                    !
 ! A1    A(2,1,3)               -0.3355                 17.5                    !
 ! A2    A(1,3,4)               -0.3355                 17.5                    !
 ! D1    D(2,1,3,4)              0.3295                 17.2                    !
 --------------------------------------------------------------------------------
                           ----------------------------
                           ! Normal Mode     2        !
 --------------------------                            --------------------------
 ! Name  Definition              Value          Relative Weight (%)             !
 --------------------------------------------------------------------------------
 ! R2    R(1,3)                 -1.3448                 54.8                    !
 ! A1    A(2,1,3)                0.4329                 17.6                    !
 ! A2    A(1,3,4)                0.4329                 17.6                    !
 --------------------------------------------------------------------------------
                           ----------------------------
                           ! Normal Mode     3        !
 --------------------------                            --------------------------
 ! Name  Definition              Value          Relative Weight (%)             !
 --------------------------------------------------------------------------------
 ! R1    R(1,2)                  0.7502                 48.6                    !
 ! R3    R(3,4)                 -0.7502                 48.6                    !
 --------------------------------------------------------------------------------
                           ----------------------------
                           ! Normal Mode     4        !
 --------------------------                            --------------------------
 ! Name  Definition              Value          Relative Weight (%)             !
 --------------------------------------------------------------------------------
 ! A1    A(2,1,3)               -0.4204                 47.2                    !
 ! A2    A(1,3,4)                0.4204                 47.2                    !
 --------------------------------------------------------------------------------
                           ----------------------------
                           ! Normal Mode     5        !
 --------------------------                            --------------------------
 ! Name  Definition              Value          Relative Weight (%)             !
 --------------------------------------------------------------------------------
 ! R1    R(1,2)                  0.3804                 25.1                    !
 ! R3    R(3,4)                  0.3804                 25.1                    !
 ! D1    D(2,1,3,4)             -0.7129                 47.1                    !
 --------------------------------------------------------------------------------
                           ----------------------------
                           ! Normal Mode     6        !
 --------------------------                            --------------------------
 ! Name  Definition              Value          Relative Weight (%)             !
 --------------------------------------------------------------------------------
 ! R1    R(1,2)                  0.476                  27.3                    !
 ! R3    R(3,4)                  0.476                  27.3                    !
 ! A1    A(2,1,3)                0.251                  14.4                    !
 ! A2    A(1,3,4)                0.251                  14.4                    !
 ! D1    D(2,1,3,4)              0.2824                 16.2                    !
 --------------------------------------------------------------------------------
 Max01P=      6 Av01P=    5.00 Stan. Dev.=    0.89
 Max05P=      5 Av05P=    3.33 Stan. Dev.=    1.37
 Max10P=      5 Av10P=    3.33 Stan. Dev.=    1.37
 MaxNDP=      5 AvNDP=    3.33 Stan. Dev.=    1.37
 
                                                                  MM
                                                             IR Spectrum
 
                                                                                                                                     
     4                                             2                            1                                                    
     1                                             6                            7                          8   6                     
     2                                             5                            1                          3   9                     
 
     X                                             X                            X                          X                         
                                                   X                            X                          X                         
                                                   X                            X                          X                         
                                                   X                            X                          X                         
                                                   X                            X                          X                         
                                                   X                            X                          X                         
                                                   X                            X                          X                         
                                                   X                            X                          X                         
                                                   X                            X                          X                         
                                                   X                            X                          X                         
                                                   X                            X                          X                         
                                                   X                            X                          X                         
                                                   X                            X                          X                         
                                                   X                            X                          X                         
                                                   X                            X                          X                         
                                                   X                            X                                                    
                                                   X                            X                                                    
                                                   X                            X                                                    
                                                   X                            X                                                    
                                                   X                                                                                 
 
 -------------------------------------------------------------------
 Center     Atomic                   Forces (Hartrees/Bohr)
 Number     Number              X              Y              Z
 -------------------------------------------------------------------
      1        8          -0.000151667    0.000920229   -0.001262049
      2        1          -0.005406189    0.002851149    0.001261736
      3        8           0.000151758   -0.000920305   -0.001261984
      4        1           0.005406098   -0.002851072    0.001262297
 -------------------------------------------------------------------
 Cartesian Forces:  Max     0.005406189 RMS     0.002627118
 Force constants in Cartesian coordinates: 
                1             2             3             4             5 
      1  0.173637D-02
      2  0.377199D-03  0.755784D-03
      3  0.706701D-03  0.508584D-03  0.251575D-02
      4 -0.878150D-03 -0.361989D-03 -0.703965D-03  0.250237D-02
      5 -0.104207D-03 -0.350649D-03 -0.525121D-03 -0.183803D-02  0.913697D-04
      6  0.432345D-04 -0.288599D-03 -0.185079D-02 -0.457910D-04  0.305035D-03
      7 -0.826002D-03 -0.210755D-03  0.670736D-03 -0.322696D-04 -0.621908D-04
      8 -0.210846D-03 -0.782240D-03  0.700279D-03  0.195620D-03  0.377118D-03
      9 -0.670782D-03 -0.700245D-03  0.795296D-05  0.673505D-03  0.683674D-03
     10 -0.322157D-04  0.195544D-03 -0.673471D-03 -0.159195D-02  0.200443D-02
     11 -0.621466D-04  0.377105D-03 -0.683742D-03  0.200440D-02 -0.117838D-03
     12 -0.791526D-04  0.480260D-03 -0.672910D-03  0.762512D-04 -0.463589D-03
                6             7             8             9            10 
      6  0.307180D-03
      7  0.792023D-04  0.173647D-02
      8 -0.480310D-03  0.377193D-03  0.755722D-03
      9 -0.672869D-03 -0.706780D-03 -0.508451D-03  0.251571D-02
     10 -0.766458D-04 -0.878197D-03 -0.361967D-03  0.704057D-03  0.250236D-02
     11  0.463874D-03 -0.104248D-03 -0.350600D-03  0.525022D-03 -0.183801D-02
     12  0.221648D-02 -0.431584D-04  0.288483D-03 -0.185080D-02  0.460598D-04
               11            12 
     11  0.913327D-04
     12 -0.305154D-03  0.307224D-03
 Cartesian forces in FCRed:
 I=    1 X=  -1.516674827833D-04 Y=   9.202286020904D-04 Z=  -1.262049163362D-03
 I=    2 X=  -5.406189078383D-03 Y=   2.851149117549D-03 Z=   1.261736040378D-03
 I=    3 X=   1.517584887909D-04 Y=  -9.203052550074D-04 Z=  -1.261983568349D-03
 I=    4 X=   5.406098072376D-03 Y=  -2.851072464631D-03 Z=   1.262296691333D-03
 Cartesian force constants in FCRed: 
                1             2             3             4             5 
      1  0.173637D-02
      2  0.377199D-03  0.755784D-03
      3  0.706701D-03  0.508584D-03  0.251575D-02
      4 -0.878150D-03 -0.361989D-03 -0.703965D-03  0.250237D-02
      5 -0.104207D-03 -0.350649D-03 -0.525121D-03 -0.183803D-02  0.913697D-04
      6  0.432345D-04 -0.288599D-03 -0.185079D-02 -0.457910D-04  0.305035D-03
      7 -0.826002D-03 -0.210755D-03  0.670736D-03 -0.322696D-04 -0.621908D-04
      8 -0.210846D-03 -0.782240D-03  0.700279D-03  0.195620D-03  0.377118D-03
      9 -0.670782D-03 -0.700245D-03  0.795296D-05  0.673505D-03  0.683674D-03
     10 -0.322157D-04  0.195544D-03 -0.673471D-03 -0.159195D-02  0.200443D-02
     11 -0.621466D-04  0.377105D-03 -0.683742D-03  0.200440D-02 -0.117838D-03
     12 -0.791526D-04  0.480260D-03 -0.672910D-03  0.762512D-04 -0.463589D-03
                6             7             8             9            10 
      6  0.307180D-03
      7  0.792023D-04  0.173647D-02
      8 -0.480310D-03  0.377193D-03  0.755722D-03
      9 -0.672869D-03 -0.706780D-03 -0.508451D-03  0.251571D-02
     10 -0.766458D-04 -0.878197D-03 -0.361967D-03  0.704057D-03  0.250236D-02
     11  0.463874D-03 -0.104248D-03 -0.350600D-03  0.525022D-03 -0.183801D-02
     12  0.221648D-02 -0.431584D-04  0.288483D-03 -0.185080D-02  0.460598D-04
               11            12 
     11  0.913327D-04
     12 -0.305154D-03  0.307224D-03
 Internal coordinates in FCRed: 
                 1 
      1   0.184082D+01
      2   0.275271D+01
      3   0.184082D+01
      4   0.174967D+01
      5   0.174967D+01
      6   0.206519D+01
 FormGI is forming the generalized inverse of G from B-inverse, IUseBI=4.
 NTrRot=    -1 NTRed=     6 NAtoms=     4 NSkip=     0 NRank=     6 IsLin=F
 Internal forces in FCRed: 
                 1 
      1   0.462303D-02
      2   0.487039D-02
      3   0.462304D-02
      4   0.757220D-02
      5   0.757220D-02
      6   0.146571D-02
 Internal force constants in FCRed: 
                1             2             3             4             5 
      1  0.157054D-02
      2  0.196570D-02  0.180207D-02
      3  0.140531D-02  0.196570D-02  0.157054D-02
      4 -0.661973D-03  0.104724D-02  0.320946D-02  0.125077D-01
      5  0.320945D-02  0.104724D-02 -0.661971D-03  0.890830D-03  0.125077D-01
      6 -0.360892D-03  0.198236D-02 -0.360891D-03  0.382846D-02  0.382846D-02
                6 
      6  0.740956D-02
 Force constants in internal coordinates: 
                1             2             3             4             5 
      1  0.157054D-02
      2  0.196570D-02  0.180207D-02
      3  0.140531D-02  0.196570D-02  0.157054D-02
      4 -0.661973D-03  0.104724D-02  0.320946D-02  0.125077D-01
      5  0.320945D-02  0.104724D-02 -0.661971D-03  0.890830D-03  0.125077D-01
      6 -0.360892D-03  0.198236D-02 -0.360891D-03  0.382846D-02  0.382846D-02
                6 
      6  0.740956D-02
 Final forces over variables, Energy= 3.11447369D-02:
  4.62303389D-03 4.87038782D-03 4.62303537D-03 7.57219988D-03
  7.57219535D-03 1.46571028D-03
 Leave Link  716 at Thu Nov  9 18:12:34 2023, MaxMem=   134217728 cpu:               0.0 elap:               0.0
 (Enter /home/emanuele/chem_software/gaussian//gdv/l103.exe)

 GradGradGradGradGradGradGradGradGradGradGradGradGradGradGradGradGradGrad
 Berny optimization.
 Internal  Forces:  Max     0.007572200 RMS     0.005527058
 Search for a local minimum.
 Step number   1 out of a maximum of    2
 All quantities printed in internal units (Hartrees-Bohrs-Radians)
 Second derivative matrix not updated -- analytic derivatives used.
 The second derivative matrix:
                          R1        R2        R3        A1        A2
           R1           0.00157
           R2           0.00197   0.00180
           R3           0.00141   0.00197   0.00157
           A1          -0.00066   0.00105   0.00321   0.01251
           A2           0.00321   0.00105  -0.00066   0.00089   0.01251
           D1          -0.00036   0.00198  -0.00036   0.00383   0.00383
                          D1
           D1           0.00741
 ITU=  0
     Eigenvalues ---   -0.00111  -0.00102   0.00394   0.00543   0.01280
     Eigenvalues ---    0.01732
 Eigenvalue     1 is  -1.11D-03 should be greater than     0.000000 Eigenvector:
                          R2        R1        R3        D1        A2
   1                   -0.71592   0.43513   0.43512   0.29603  -0.10287
                          A1
   1                   -0.10287
 Eigenvalue     2 is  -1.02D-03 should be greater than     0.000000 Eigenvector:
                          R3        R1        A1        A2        R2
   1                    0.67610  -0.67609  -0.20712   0.20712  -0.00000
                          D1
   1                    0.00000
 Quadratic step=1.564D+00 exceeds max=3.000D-01 adjusted using Lamda=-3.202D-02.
 Angle between NR and scaled steps=  29.46 degrees.
 Angle between quadratic step and forces=   7.47 degrees.
 Linear search not attempted -- first point.
 Iteration  1 RMS(Cart)=  0.18961414 RMS(Int)=  0.00814785
 Iteration  2 RMS(Cart)=  0.00735063 RMS(Int)=  0.00004094
 Iteration  3 RMS(Cart)=  0.00005857 RMS(Int)=  0.00000000
 Iteration  4 RMS(Cart)=  0.00000000 RMS(Int)=  0.00000000
 ITry= 1 IFail=0 DXMaxC= 2.90D-01 DCOld= 1.00D+10 DXMaxT= 3.00D-01 DXLimC= 3.00D+00 Rises=F
 Variable       Old X    -DE/DX   Delta X   Delta X   Delta X     New X
                                 (Linear)    (Quad)   (Total)
    R1        1.84082   0.00462   0.00000   0.11444   0.11444   1.95526
    R2        2.75271   0.00487   0.00000   0.11996   0.11996   2.87266
    R3        1.84082   0.00462   0.00000   0.11444   0.11444   1.95526
    A1        1.74967   0.00757   0.00000   0.15719   0.15719   1.90686
    A2        1.74967   0.00757   0.00000   0.15719   0.15719   1.90686
    D1        2.06519   0.00147   0.00000   0.00301   0.00301   2.06820
         Item               Value     Threshold  Converged?
 Maximum Force            0.007572     0.000450     NO 
 RMS     Force            0.005527     0.000300     NO 
 Maximum Displacement     0.290310     0.001800     NO 
 RMS     Displacement     0.192659     0.001200     NO 
 Predicted change in Energy=-3.455137D-03
                           ----------------------------
                           ! Non-Optimized Parameters !
                           ! (Angstroms and Degrees)  !
 --------------------------                            --------------------------
 ! Name  Definition              Value          Derivative Info.                !
 --------------------------------------------------------------------------------
 ! R1    R(1,2)                  1.0347         -DE/DX =    0.0046              !
 ! R2    R(1,3)                  1.5201         -DE/DX =    0.0049              !
 ! R3    R(3,4)                  1.0347         -DE/DX =    0.0046              !
 ! A1    A(2,1,3)              109.2552         -DE/DX =    0.0076              !
 ! A2    A(1,3,4)              109.2552         -DE/DX =    0.0076              !
 ! D1    D(2,1,3,4)            118.499          -DE/DX =    0.0015              !
 --------------------------------------------------------------------------------
 GradGradGradGradGradGradGradGradGradGradGradGradGradGradGradGradGradGrad

 Leave Link  103 at Thu Nov  9 18:12:34 2023, MaxMem=   134217728 cpu:               0.0 elap:               0.0
 (Enter /home/emanuele/chem_software/gaussian//gdv/l9999.exe)

 Test job not archived.
 1\1\GINC-EMANUELE-XPS-13-9343\Freq\AMBER\ZDO\H2O2\EMANUELE\09-Nov-2023
 \0\\#p amber=softfirst geom=connectivity nosymm iop(4/33=3,7/33=1) fre
 q=intmodes\\MM\\0,1\O,-0.718633164,-0.1184722951,-0.0546176185\H,-1.02
 35382452,0.665457464,0.4367070528\O,0.7186370323,0.1184689581,-0.05457
 3365\H,1.0235072725,-0.665430767,0.4368208142\\Version=ES64L-GDVRevJ.1
 4\HF=0.0311447\RMSD=0.000e+00\RMSF=2.627e-03\ZeroPoint=0.0022783\Therm
 al=0.0080453\ETot=0.03919\HTot=0.0401342\GTot=0.008058\Dipole=-0.00002
 7,0.0000233,0.7622379\DipoleDeriv=-0.410452,0.,0.,0.,-0.410452,0.,0.,0
 .,-0.410452,0.410452,0.,0.,0.,0.410452,0.,0.,0.,0.410452,-0.410452,0.,
 0.,0.,-0.410452,0.,0.,0.,-0.410452,0.410452,0.,0.,0.,0.410452,0.,0.,0.
 ,0.410452\PG=C01 [X(H2O2)]\NImag=1\\0.00173637,0.00037720,0.00075578,0
 .00070670,0.00050858,0.00251575,-0.00087815,-0.00036199,-0.00070397,0.
 00250237,-0.00010421,-0.00035065,-0.00052512,-0.00183803,0.00009137,0.
 00004323,-0.00028860,-0.00185079,-0.00004579,0.00030504,0.00030718,-0.
 00082600,-0.00021075,0.00067074,-0.00003227,-0.00006219,0.00007920,0.0
 0173647,-0.00021085,-0.00078224,0.00070028,0.00019562,0.00037712,-0.00
 048031,0.00037719,0.00075572,-0.00067078,-0.00070025,0.00000795,0.0006
 7351,0.00068367,-0.00067287,-0.00070678,-0.00050845,0.00251571,-0.0000
 3222,0.00019554,-0.00067347,-0.00159195,0.00200443,-0.00007665,-0.0008
 7820,-0.00036197,0.00070406,0.00250236,-0.00006215,0.00037711,-0.00068
 374,0.00200440,-0.00011784,0.00046387,-0.00010425,-0.00035060,0.000525
 02,-0.00183801,0.00009133,-0.00007915,0.00048026,-0.00067291,0.0000762
 5,-0.00046359,0.00221648,-0.00004316,0.00028848,-0.00185080,0.00004606
 ,-0.00030515,0.00030722\\0.00015167,-0.00092023,0.00126205,0.00540619,
 -0.00285115,-0.00126174,-0.00015176,0.00092031,0.00126198,-0.00540610,
 0.00285107,-0.00126230\\\@


 A COMPUTER IS LIKE A HORSE, IT WILL SENSE WEAKNESS.
     -- GREG WETTSTEIN
 Job cpu time:       0 days  0 hours  0 minutes  0.5 seconds.
 Elapsed time:       0 days  0 hours  0 minutes  0.4 seconds.
 File lengths (MBytes):  RWF=      6 Int=      0 D2E=      0 Chk=      1 Scr=      1
 Normal termination of Gaussian DV at Thu Nov  9 18:12:34 2023.
