MM                                                                      
Freq      RAMBER                                                      ZDO                 
Number of atoms                            I                4
Info1-9                                    I   N=           9
          25          25           0           0           0         101
           6           8        1101
Full Title                                 C   N=           1
MM          
Route                                      C   N=           7
#p amber=softonly geom=connectivity nosymm iop(4/33=3,7/33=1
) freq=intmodes         
Charge                                     I                0
Multiplicity                               I                1
Number of electrons                        I                6
Number of alpha electrons                  I                3
Number of beta electrons                   I                3
Number of basis functions                  I                0
Number of independent functions            I                0
Number of point charges in /Mol/           I                0
Number of translation vectors              I                0
Atomic numbers                             I   N=           4
           8           1           8           1
Nuclear charges                            R   N=           4
  2.00000000E+00  1.00000000E+00  2.00000000E+00  1.00000000E+00
Current cartesian coordinates              R   N=          12
 -1.35801986E+00 -2.23880191E-01 -1.03212341E-01 -1.93420696E+00  1.25753235E+00
  8.25256726E-01  1.35802717E+00  2.23873885E-01 -1.03128714E-01  1.93414843E+00
 -1.25748190E+00  8.25471704E-01
Number of symbols in /Mol/                 I                0
Redundant internal dimensions              I   N=           4
           6           3           2           1
Redundant internal coordinate indices      I   N=          24
           1           2           0           0           1           3
           0           0           3           4           0           0
           2           1           3           0           1           3
           4           0           2           1           3           4
Redundant internal coordinates             R   N=           6
  1.84082305E+00  2.75270689E+00  1.84082303E+00  1.74966878E+00  1.74966916E+00
  2.06519269E+00
ZRed-IntVec                                I   N=           6
           0           0           0           0           0           0
ZRed-FPVec                                 R   N=           6
  0.00000000E+00  0.00000000E+00  0.00000000E+00  0.00000000E+00  0.00000000E+00
  0.00000000E+00
ZRed-Constraint1                           R   N=           6
  1.84082305E+00  2.75270689E+00  1.84082303E+00  1.74966878E+00  1.74966916E+00
  2.06519269E+00
ZRed-Constraint2                           R   N=           6
  0.00000000E+00  0.00000000E+00  0.00000000E+00  0.00000000E+00  0.00000000E+00
  0.00000000E+00
Force Field                                I                2
Atom Types                                 C   N=           4
#200OH      #200HO      #200OH      #200HO      
Int Atom Types                             I   N=           4
    20001022    20001031    20001022    20001031
MM charges                                 R   N=           4
  7.90505033-323  4.94065646-324  7.90505033-323  4.94065646-324
Integer atomic weights                     I   N=           4
           0           0           0           0
Real atomic weights                        R   N=           4
  0.00000000E+00  0.00000000E+00  0.00000000E+00  0.00000000E+00
Atom fragment info                         I   N=           4
           0           0           0           0
Atom residue num                           I   N=           4
           0           0           0           0
Nuclear spins                              I   N=           4
           0           0           0           0
Nuclear ZEff                               R   N=           4
  0.00000000E+00  0.00000000E+00  0.00000000E+00  0.00000000E+00
Nuclear ZNuc                               R   N=           4
  0.00000000E+00  0.00000000E+00  0.00000000E+00  0.00000000E+00
Nuclear QMom                               R   N=           4
  0.00000000E+00  0.00000000E+00  0.00000000E+00  0.00000000E+00
Nuclear GFac                               R   N=           4
  0.00000000E+00  0.00000000E+00  0.00000000E+00  0.00000000E+00
MicOpt                                     I   N=           4
           0           0           0           0
Number of residues                         I                0
Number of secondary structures             I                0
Number of contracted shells                I                4
Number of primitive shells                 I                4
Pure/Cartesian d shells                    I                0
Pure/Cartesian f shells                    I                0
Highest angular momentum                   I                0
Largest degree of contraction              I                1
Shell types                                I   N=           4
           0           0           0           0
Number of primitives per shell             I   N=           4
           1           1           1           1
Shell to atom map                          I   N=           4
           1           2           3           4
Primitive exponents                        R   N=           4
  1.00000000E+00  1.00000000E+00  1.00000000E+00  1.00000000E+00
Contraction coefficients                   R   N=           4
  1.00000000E+00  1.00000000E+00  1.00000000E+00  1.00000000E+00
Coordinates of each shell                  R   N=          12
 -1.35801986E+00 -2.23880191E-01 -1.03212341E-01 -1.93420696E+00  1.25753235E+00
  8.25256726E-01  1.35802717E+00  2.23873885E-01 -1.03128714E-01  1.93414843E+00
 -1.25748190E+00  8.25471704E-01
Constraint Structure                       R   N=          12
 -1.35801986E+00 -2.23880191E-01 -1.03212341E-01 -1.93420696E+00  1.25753235E+00
  8.25256726E-01  1.35802717E+00  2.23873885E-01 -1.03128714E-01  1.93414843E+00
 -1.25748190E+00  8.25471704E-01
Num ILSW                                   I              100
ILSW                                       I   N=         100
           0           0           0           0           0           0
           0           0           0           0           0          -1
           5           0           0           0           2           0
           0           0           0           0           1           0
           1           1           0           0           0           0
           0           0      100000           0          -1           0
           0           0           0           0           0           0
           0           0           0         101           0           0
           0 -2000000000           1           0           0           0
           0           0           4          41           0           0
           0           0           0           0           0           0
           0           0           0           4           0           1
           0           0           0           0           0           0
           0           0           0           0           0           0
           0           0           0           0           0           0
           0           0           0           0           0           0
           0           0           0           0
Num RLSW                                   I               41
RLSW                                       R   N=          41
  1.00000000E+00  1.00000000E+00  1.00000000E+00  1.00000000E+00  1.00000000E+00
  0.00000000E+00  0.00000000E+00  1.00000000E+00  0.00000000E+00  0.00000000E+00
  0.00000000E+00  0.00000000E+00  1.00000000E+00  0.00000000E+00  0.00000000E+00
  0.00000000E+00  0.00000000E+00  1.00000000E+00  0.00000000E+00  0.00000000E+00
  0.00000000E+00  0.00000000E+00  1.00000000E+00  0.00000000E+00  0.00000000E+00
  0.00000000E+00  0.00000000E+00  1.00000000E+00  0.00000000E+00  0.00000000E+00
  0.00000000E+00  0.00000000E+00  1.00000000E+00  0.00000000E+00  0.00000000E+00
  0.00000000E+00  0.00000000E+00  0.00000000E+00  1.00000000E+00  1.00000000E+00
  0.00000000E+00
MxBond                                     I                2
NBond                                      I   N=           4
           2           1           2           1
IBond                                      I   N=           8
           2           3           1           0           1           4
           3           0
RBond                                      R   N=           8
  1.00000000E+00  1.00000000E+00  1.00000000E+00  0.00000000E+00  1.00000000E+00
  1.00000000E+00  1.00000000E+00  0.00000000E+00
Virial Ratio                               R      0.000000000000000E+00
SCF Energy                                 R      7.176006877532648E-04
Total Energy                               R      7.176006877532648E-04
RMS Force                                  R      8.777720496113018E-04
External E-field                           R   N=         105
  0.00000000E+00  0.00000000E+00  0.00000000E+00  0.00000000E+00  0.00000000E+00
  0.00000000E+00  0.00000000E+00  0.00000000E+00  0.00000000E+00  0.00000000E+00
  0.00000000E+00  0.00000000E+00  0.00000000E+00  0.00000000E+00  0.00000000E+00
  0.00000000E+00  0.00000000E+00  0.00000000E+00  0.00000000E+00  0.00000000E+00
  0.00000000E+00  0.00000000E+00  0.00000000E+00  0.00000000E+00  0.00000000E+00
  0.00000000E+00  0.00000000E+00  0.00000000E+00  0.00000000E+00  0.00000000E+00
  0.00000000E+00  0.00000000E+00  0.00000000E+00  0.00000000E+00  0.00000000E+00
  0.00000000E+00  0.00000000E+00  0.00000000E+00  0.00000000E+00  0.00000000E+00
  0.00000000E+00  0.00000000E+00  0.00000000E+00  0.00000000E+00  0.00000000E+00
  0.00000000E+00  0.00000000E+00  0.00000000E+00  0.00000000E+00  0.00000000E+00
  0.00000000E+00  0.00000000E+00  0.00000000E+00  0.00000000E+00  0.00000000E+00
  0.00000000E+00  0.00000000E+00  0.00000000E+00  0.00000000E+00  0.00000000E+00
  0.00000000E+00  0.00000000E+00  0.00000000E+00  0.00000000E+00  0.00000000E+00
  0.00000000E+00  0.00000000E+00  0.00000000E+00  0.00000000E+00  0.00000000E+00
  0.00000000E+00  0.00000000E+00  0.00000000E+00  0.00000000E+00  0.00000000E+00
  0.00000000E+00  0.00000000E+00  0.00000000E+00  0.00000000E+00  0.00000000E+00
  0.00000000E+00  0.00000000E+00  0.00000000E+00  0.00000000E+00  0.00000000E+00
  0.00000000E+00  0.00000000E+00  0.00000000E+00  0.00000000E+00  0.00000000E+00
  0.00000000E+00  0.00000000E+00  0.00000000E+00  0.00000000E+00  0.00000000E+00
  0.00000000E+00  0.00000000E+00  0.00000000E+00  0.00000000E+00  0.00000000E+00
  0.00000000E+00  0.00000000E+00  0.00000000E+00  0.00000000E+00  0.00000000E+00
IOpCl                                      I                0
IROHF                                      I                0
Grdnt Energy                               R      7.176006877532648E-04
Grdnt NVar                                 I                6
Grdnt IGetFC                               I                4
Internal Forces                            R   N=           6
 -2.71299221E-09  4.12309566E-10 -2.68998229E-09 -2.03030652E-09 -3.24601310E-09
 -2.66247120E-03
Internal Force Constants                   R   N=          21
  8.92507706E-04  7.46316682E-20  8.92507706E-04  5.27701526E-19 -4.57397792E-20
  8.92507706E-04  8.06375366E-19 -5.55653613E-18  7.92822839E-19  3.18720287E-03
 -5.14996032E-19 -1.99222149E-18 -3.11708125E-19 -6.34258271E-18  3.18720287E-03
  5.42101086E-19 -2.60208521E-18 -3.36102673E-18  3.25260652E-18  2.16840434E-18
  3.50400300E-03
Optimization MaxStp                        I                2
Optimization Job offset                    I                0
Optimization Num results per geometry      I                2
Optimization Num geometry variables        I               12
Opt point       1 Results for each geome   R   N=           2
  7.17600688E-04  0.00000000E+00
Opt point       1 Geometries               R   N=          12
 -1.35801986E+00 -2.23880191E-01 -1.03212341E-01 -1.93420696E+00  1.25753235E+00
  8.25256726E-01  1.35802717E+00  2.23873885E-01 -1.03128714E-01  1.93414843E+00
 -1.25748190E+00  8.25471704E-01
Opt point       1 Gradient at each geome   R   N=          12
  1.51667483E-04 -9.20228602E-04  1.26204916E-03 -1.22505408E-04  7.43335891E-04
 -1.26204329E-03 -1.51758489E-04  9.20305255E-04  1.26198357E-03  1.22596414E-04
 -7.43412544E-04 -1.26198944E-03
Optimization Number of geometries          I   N=           1
           1
MMPar NCPar                                I   N=          16
          -1          18           4         303           4           3
          10           6          18           6           4          95
           6           5           0           5
MMPar IPrt                                 I   N=          18
           1           1           6           6           6           3
           6           3           0           0           0           0
           0           0           0           0           0           0
MMPar ICnvrt                               I   N=           6
           0           0           0           0           0           0
MMPar ICntr                                I   N=           4
           0           0           0           0
MMPar IList                                I   N=          97
           0           0           0           0           0           0
           0           0           0           0           0           0
           0           0           0           0           0           0
           0           0           0           0           0           0
           0           0           0           0           0           0
           0           0           0           0           0           0
           0           0           0           0           0           0
           0           0           0           0           0           0
           0           0           0           0           0           0
           0           0           0           0           0           0
           0           0           0           0           0           0
           0           0           0           0           0           0
           0           0           0           0           0           0
           0           0           0           0           0           0
           0           0           0           0           0           0
           0           0           0           0           0           5
           0
MMPar AtL                                  L   N=           4
TTTT
MMPar ChL                                  L   N=           4
FFFF
MMPar Q                                    R   N=           4
  0.00000000E+00  0.00000000E+00  0.00000000E+00  0.00000000E+00
MMPar IAType                               I   N=           8
          22          31          22          31           0           0
           0           0
MMPar IAtTpT                               I   N=           3
           0    20001031    20001022
MMPar IUserT                               I   N=           3
           0           0           0
MMPar SymbT                                H   N=           3
*       ho      oh      
MMPar StepD                                I   N=          95
           0           0           0           0           0           0
           0           0           0           0           0           0
           0           0           0           0           0           0
           0           0           0           0           0           0
           0           0           0           0           0           0
           0           0           0           0           0           0
           0           0           0           0           0           0
           0           0           0           0           0           0
           0           0           0           0           0           0
           0           0           0           0           0           0
           0           0           0           0           0           0
           0           0           0           0           0           0
           0           0           0           0           0           0
           0           0           0           0           0           0
           0           0           0           0           0           0
           0           0           0           0           0
MMPar ICorL                                I   N=         180
    20001031    20001022    20001022    20001031           0           0
           0           0           0          30    20001031    20001022
    20001022           0           0           0           0           0
           0          20    20001031    20001022           0           0
           0           0           0           0           0          10
    20001022    20001022           0           0           0           0
           0           0           0          10           3           1
           0           0           0           0           0           0
           0           6           3           1           0           0
           0           0           0           0           0           2
           2           1           0           0           0           0
           0           0           0          10           1           3
           0           0           0           0           0           0
           0          10           4           3           0           0
           0           0           0           0           0          10
           4           3           1           0           0           0
           0           0           0          20           2           1
           3           0           0           0           0           0
           0          20           2           1           3           4
           0           0           0           0           0          30
           2           1           3           1           0           0
           0           0           0           3           3           2
           3           1           0           0           0           0
           0           3           3           1           3           1
           0           0           0           0           0           3
           4           2           3           1           0           0
           0           0           0           3           4           1
           3           1           0           0           0           0
           0           3           4           3           3           1
           0           0           0           0           0           3
MMPar RCorL                                R   N=         108
  0.00000000E+00  1.00000000E+00  0.00000000E+00  0.00000000E+00  1.00000000E+00
  0.00000000E+00  1.00000000E+00  1.00248600E+02  0.00000000E+00  0.00000000E+00
  0.00000000E+00  0.00000000E+00  1.00000000E+00  9.74120000E-01  0.00000000E+00
  0.00000000E+00  0.00000000E+00  0.00000000E+00  1.00000000E+00  1.45667000E+00
  0.00000000E+00  0.00000000E+00  0.00000000E+00  0.00000000E+00  0.00000000E+00
  0.00000000E+00  5.00000000E-01  0.00000000E+00  0.00000000E+00 -1.20000000E+00
  0.00000000E+00  0.00000000E+00  0.00000000E+00  0.00000000E+00  0.00000000E+00
  0.00000000E+00  4.46253853E-04  1.84082001E+00  0.00000000E+00  0.00000000E+00
  0.00000000E+00  0.00000000E+00  4.46253853E-04  2.75270735E+00  0.00000000E+00
  0.00000000E+00  0.00000000E+00  0.00000000E+00  4.46253853E-04  1.84082001E+00
  0.00000000E+00  0.00000000E+00  0.00000000E+00  0.00000000E+00  1.59360144E-03
  1.74966814E+00  0.00000000E+00  0.00000000E+00  0.00000000E+00  0.00000000E+00
  1.59360144E-03  1.74966814E+00  0.00000000E+00  0.00000000E+00  0.00000000E+00
  0.00000000E+00  0.00000000E+00  1.59360144E-03  0.00000000E+00  0.00000000E+00
  1.00000000E+00  0.00000000E+00 -1.00000000E+00 -1.00000000E+00  0.00000000E+00
  0.00000000E+00  0.00000000E+00  0.00000000E+00 -1.00000000E+00 -1.00000000E+00
  0.00000000E+00  0.00000000E+00  0.00000000E+00  0.00000000E+00 -1.00000000E+00
 -1.00000000E+00  0.00000000E+00  0.00000000E+00  0.00000000E+00  0.00000000E+00
 -5.00000000E-01 -1.66666667E-01  0.00000000E+00  0.00000000E+00  0.00000000E+00
  0.00000000E+00 -1.00000000E+00 -1.00000000E+00  0.00000000E+00  0.00000000E+00
  0.00000000E+00  0.00000000E+00 -1.00000000E+00 -1.00000000E+00  0.00000000E+00
  0.00000000E+00  0.00000000E+00  0.00000000E+00
MMPar Table                                R   N=          20
  0.00000000E+00  0.00000000E+00  0.00000000E+00  0.00000000E+00  0.00000000E+00
  0.00000000E+00  0.00000000E+00  0.00000000E+00  0.00000000E+00  0.00000000E+00
  0.00000000E+00  0.00000000E+00  0.00000000E+00  0.00000000E+00  0.00000000E+00
  0.00000000E+00  0.00000000E+00  0.00000000E+00  0.00000000E+00  0.00000000E+00
ONIOM Charges                              I   N=          16
           0           0           0           0           0           0
           0           0           0           0           0           0
           0           0           0           0
ONIOM Multiplicities                       I   N=          16
           1           0           0           0           0           0
           0           0           0           0           0           0
           0           0           0           0
Atom Layers                                I   N=           4
           1           1           1           1
Atom Modifiers                             I   N=           4
           0           0           0           0
Force Field                                I                0
Atom Modified Types                        C   N=           4
                                                
Int Atom Modified Types                    I   N=           4
           0           0           0           0
Link Atoms                                 I   N=           4
           0           0           0           0
Atom Modified MM Charges                   R   N=           4
  0.00000000E+00  0.00000000E+00  0.00000000E+00  0.00000000E+00
Link Distances                             R   N=          16
  0.00000000E+00  0.00000000E+00  0.00000000E+00  0.00000000E+00  0.00000000E+00
  0.00000000E+00  0.00000000E+00  0.00000000E+00  0.00000000E+00  0.00000000E+00
  0.00000000E+00  0.00000000E+00  0.00000000E+00  0.00000000E+00  0.00000000E+00
  0.00000000E+00
Cartesian Gradient                         R   N=          12
  1.51667483E-04 -9.20228602E-04  1.26204916E-03 -1.22505408E-04  7.43335891E-04
 -1.26204329E-03 -1.51758489E-04  9.20305255E-04  1.26198357E-03  1.22596414E-04
 -7.43412544E-04 -1.26198944E-03
Cartesian Force Constants                  R   N=          78
  1.73636705E-03  3.77199180E-04  7.55784441E-04  7.06700520E-04  5.08584356E-04
  2.51575197E-03 -8.78149771E-04 -3.61988897E-04 -7.03965258E-04  9.17842952E-04
 -1.04207012E-04 -3.50649226E-04 -5.25120660E-04  1.21352712E-04  2.46685616E-04
  4.32344760E-05 -2.88599356E-04 -1.85079491E-03 -4.59584822E-05  3.05144367E-04
  1.73639073E-03 -8.26001566E-04 -2.10754501E-04  6.70735869E-04 -3.22696239E-05
 -6.21907970E-05  7.92023005E-05  1.73646808E-03 -2.10845528E-04 -7.82240382E-04
  7.00278572E-04  1.95619645E-04  3.77117631E-04 -4.80310320E-04  3.77192825E-04
  7.55722473E-04 -6.70782408E-04 -7.00245115E-04  7.95296462E-06  6.73505098E-04
  6.83673832E-04 -6.72868990E-04 -7.06779809E-04 -5.08450783E-04  2.51571384E-03
 -3.22157161E-05  1.95544218E-04 -6.73471132E-04 -7.42355714E-06  4.50450976E-05
 -7.64782943E-05 -8.78196887E-04 -3.61966941E-04  7.04057119E-04  9.17836160E-04
 -6.21466397E-05  3.77105168E-04 -6.83742268E-04  4.50165410E-05 -2.73154021E-04
  4.63765309E-04 -1.04247527E-04 -3.50599722E-04  5.25022066E-04  1.21377626E-04
  2.46648575E-04 -7.91525873E-05  4.80260114E-04 -6.72910027E-04  7.64186418E-05
 -4.63697539E-04  7.87273172E-04 -4.31583611E-05  2.88482531E-04 -1.85079781E-03
  4.58923065E-05 -3.05045106E-04  1.73643467E-03
Dipole Moment                              R   N=           3
  0.00000000E+00  0.00000000E+00  0.00000000E+00
Number of Normal Modes                     I                6
Vib-NDFDPol                                I                0
Vib-NumROA                                 I                0
Vib-NDim                                   I                4
Vib-NDim0                                  I                4
Vib-AtMass                                 R   N=           4
  1.59949146E+01  1.00782504E+00  1.59949146E+01  1.00782504E+00
Vib-E2                                     R   N=          84
  0.00000000E+00  0.00000000E+00  4.94065646-324  0.00000000E+00  0.00000000E+00
  0.00000000E+00  0.00000000E+00  0.00000000E+00  0.00000000E+00  0.00000000E+00
  9.88131292-324  0.00000000E+00  0.00000000E+00  0.00000000E+00  0.00000000E+00
  0.00000000E+00  0.00000000E+00  0.00000000E+00  1.48219694-323  0.00000000E+00
  0.00000000E+00  0.00000000E+00  0.00000000E+00  0.00000000E+00  0.00000000E+00
  0.00000000E+00  1.97626258-323  0.00000000E+00  0.00000000E+00  0.00000000E+00
  0.00000000E+00  0.00000000E+00  0.00000000E+00  0.00000000E+00  2.47032823-323
  0.00000000E+00  0.00000000E+00  0.00000000E+00  0.00000000E+00  0.00000000E+00
  0.00000000E+00  0.00000000E+00  2.96439388-323  0.00000000E+00  0.00000000E+00
  0.00000000E+00  0.00000000E+00  0.00000000E+00  5.27513431E+01  1.19016120E+02
  1.55291844E+02  1.62715544E+02  1.74705215E+02  2.65913936E+02  7.89388328E+00
  1.08355588E+00  1.05806300E+00  1.16582531E+00  1.11107169E+00  1.06728559E+00
  1.29421952E-02  9.04301170E-03  1.50334627E-02  1.81861917E-02  1.99803927E-02
  4.44644623E-02  0.00000000E+00  0.00000000E+00  0.00000000E+00  0.00000000E+00
  0.00000000E+00  0.00000000E+00  0.00000000E+00  0.00000000E+00  0.00000000E+00
  0.00000000E+00  0.00000000E+00  0.00000000E+00  0.00000000E+00  0.00000000E+00
  0.00000000E+00  0.00000000E+00  0.00000000E+00  0.00000000E+00
Vib-Modes                                  R   N=          72
  0.00000000E+00  0.00000000E+00  0.00000000E+00  0.00000000E+00  0.00000000E+00
  0.00000000E+00  0.00000000E+00  0.00000000E+00  0.00000000E+00  0.00000000E+00
  0.00000000E+00  0.00000000E+00  0.00000000E+00  0.00000000E+00  0.00000000E+00
  0.00000000E+00  0.00000000E+00  0.00000000E+00  1.00000000E+02  1.00000000E+02
  1.00000000E+02  1.00000000E+02  1.00000000E+02  1.00000000E+02  0.00000000E+00
  0.00000000E+00  0.00000000E+00  0.00000000E+00  0.00000000E+00  0.00000000E+00
  0.00000000E+00  0.00000000E+00  0.00000000E+00  0.00000000E+00  0.00000000E+00
  0.00000000E+00  0.00000000E+00  0.00000000E+00  0.00000000E+00  0.00000000E+00
  0.00000000E+00  0.00000000E+00  0.00000000E+00  0.00000000E+00  0.00000000E+00
  0.00000000E+00  0.00000000E+00  0.00000000E+00  4.77087051E-01  4.60536810E-02
  9.99250529E-05  5.19237483E-01  2.56451511E-02 -1.31919772E-03 -4.77087055E-01
 -4.60536761E-02  6.85626518E-05 -5.19237422E-01 -2.56452286E-02 -1.35482442E-03
  1.47954705E-02 -4.79015672E-02 -3.61517005E-03 -1.81707869E-01  6.79089977E-01
  5.73796083E-02 -1.47952408E-02  4.79013481E-02 -3.61912984E-03  1.81704223E-01
 -6.79086500E-01  5.74339802E-02
