MM                                                                      
Freq      RAMBER                                                      ZDO                 
Number of atoms                            I                4
Info1-9                                    I   N=           9
          27          27           0           0           0         101
           6           8        1101
Full Title                                 C   N=           1
MM          
Route                                      C   N=           7
#p amber=softfirst geom=connectivity nosymm iop(4/33=3,7/33=
1) freq=intmodes        
Charge                                     I                0
Multiplicity                               I                1
Number of electrons                        I                6
Number of alpha electrons                  I                3
Number of beta electrons                   I                3
Number of basis functions                  I                0
Number of independent functions            I                0
Number of point charges in /Mol/           I                0
Number of translation vectors              I                0
Atomic numbers                             I   N=           4
           8           1           8           1
Nuclear charges                            R   N=           4
  2.00000000E+00  1.00000000E+00  2.00000000E+00  1.00000000E+00
Current cartesian coordinates              R   N=          12
 -1.35801986E+00 -2.23880191E-01 -1.03212341E-01 -1.93420696E+00  1.25753235E+00
  8.25256726E-01  1.35802717E+00  2.23873885E-01 -1.03128714E-01  1.93414843E+00
 -1.25748190E+00  8.25471704E-01
Number of symbols in /Mol/                 I                0
Redundant internal dimensions              I   N=           4
           6           3           2           1
Redundant internal coordinate indices      I   N=          24
           1           2           0           0           1           3
           0           0           3           4           0           0
           2           1           3           0           1           3
           4           0           2           1           3           4
Redundant internal coordinates             R   N=           6
  1.84082305E+00  2.75270689E+00  1.84082303E+00  1.74966878E+00  1.74966916E+00
  2.06519269E+00
ZRed-IntVec                                I   N=           6
           0           0           0           0           0           0
ZRed-FPVec                                 R   N=           6
  0.00000000E+00  0.00000000E+00  0.00000000E+00  0.00000000E+00  0.00000000E+00
  0.00000000E+00
ZRed-Constraint1                           R   N=           6
  1.84082305E+00  2.75270689E+00  1.84082303E+00  1.74966878E+00  1.74966916E+00
  2.06519269E+00
ZRed-Constraint2                           R   N=           6
  0.00000000E+00  0.00000000E+00  0.00000000E+00  0.00000000E+00  0.00000000E+00
  0.00000000E+00
Force Field                                I                2
Atom Types                                 C   N=           4
#200OH      #200HO      #200OH      #200HO      
Int Atom Types                             I   N=           4
    20001022    20001031    20001022    20001031
MM charges                                 R   N=           4
  7.90505033-323  4.94065646-324  7.90505033-323  4.94065646-324
Integer atomic weights                     I   N=           4
           0           0           0           0
Real atomic weights                        R   N=           4
  0.00000000E+00  0.00000000E+00  0.00000000E+00  0.00000000E+00
Atom fragment info                         I   N=           4
           0           0           0           0
Atom residue num                           I   N=           4
           0           0           0           0
Nuclear spins                              I   N=           4
           0           0           0           0
Nuclear ZEff                               R   N=           4
  0.00000000E+00  0.00000000E+00  0.00000000E+00  0.00000000E+00
Nuclear ZNuc                               R   N=           4
  0.00000000E+00  0.00000000E+00  0.00000000E+00  0.00000000E+00
Nuclear QMom                               R   N=           4
  0.00000000E+00  0.00000000E+00  0.00000000E+00  0.00000000E+00
Nuclear GFac                               R   N=           4
  0.00000000E+00  0.00000000E+00  0.00000000E+00  0.00000000E+00
MicOpt                                     I   N=           4
           0           0           0           0
Number of residues                         I                0
Number of secondary structures             I                0
Number of contracted shells                I                4
Number of primitive shells                 I                4
Pure/Cartesian d shells                    I                0
Pure/Cartesian f shells                    I                0
Highest angular momentum                   I                0
Largest degree of contraction              I                1
Shell types                                I   N=           4
           0           0           0           0
Number of primitives per shell             I   N=           4
           1           1           1           1
Shell to atom map                          I   N=           4
           1           2           3           4
Primitive exponents                        R   N=           4
  1.00000000E+00  1.00000000E+00  1.00000000E+00  1.00000000E+00
Contraction coefficients                   R   N=           4
  1.00000000E+00  1.00000000E+00  1.00000000E+00  1.00000000E+00
Coordinates of each shell                  R   N=          12
 -1.35801986E+00 -2.23880191E-01 -1.03212341E-01 -1.93420696E+00  1.25753235E+00
  8.25256726E-01  1.35802717E+00  2.23873885E-01 -1.03128714E-01  1.93414843E+00
 -1.25748190E+00  8.25471704E-01
Constraint Structure                       R   N=          12
 -1.35801986E+00 -2.23880191E-01 -1.03212341E-01 -1.93420696E+00  1.25753235E+00
  8.25256726E-01  1.35802717E+00  2.23873885E-01 -1.03128714E-01  1.93414843E+00
 -1.25748190E+00  8.25471704E-01
Num ILSW                                   I              100
ILSW                                       I   N=         100
           0           0           0           0           0           0
           0           0           0           0           0          -1
           5           0           0           0           2           0
           0           0           0           0           1           0
           1           1           0           0           0           0
           0           0      100000           0          -1           0
           0           0           0           0           0           0
           0           0           0         101           0           0
           0 -2000000000           1           0           0           0
           0           0           4          41           0           0
           0           0           0           0           0           0
           0           0           0           4           0           1
           0           0           0           0           0           0
           0           0           0           0           0           0
           0           0           0           0           0           0
           0           0           0           0           0           0
           0           0           0           0
Num RLSW                                   I               41
RLSW                                       R   N=          41
  1.00000000E+00  1.00000000E+00  1.00000000E+00  1.00000000E+00  1.00000000E+00
  0.00000000E+00  0.00000000E+00  1.00000000E+00  0.00000000E+00  0.00000000E+00
  0.00000000E+00  0.00000000E+00  1.00000000E+00  0.00000000E+00  0.00000000E+00
  0.00000000E+00  0.00000000E+00  1.00000000E+00  0.00000000E+00  0.00000000E+00
  0.00000000E+00  0.00000000E+00  1.00000000E+00  0.00000000E+00  0.00000000E+00
  0.00000000E+00  0.00000000E+00  1.00000000E+00  0.00000000E+00  0.00000000E+00
  0.00000000E+00  0.00000000E+00  1.00000000E+00  0.00000000E+00  0.00000000E+00
  0.00000000E+00  0.00000000E+00  0.00000000E+00  1.00000000E+00  1.00000000E+00
  0.00000000E+00
MxBond                                     I                2
NBond                                      I   N=           4
           2           1           2           1
IBond                                      I   N=           8
           2           3           1           0           1           4
           3           0
RBond                                      R   N=           8
  1.00000000E+00  1.00000000E+00  1.00000000E+00  0.00000000E+00  1.00000000E+00
  1.00000000E+00  1.00000000E+00  0.00000000E+00
Virial Ratio                               R      0.000000000000000E+00
External E-field                           R   N=         105
  0.00000000E+00  0.00000000E+00  0.00000000E+00  0.00000000E+00  0.00000000E+00
  0.00000000E+00  0.00000000E+00  0.00000000E+00  0.00000000E+00  0.00000000E+00
  0.00000000E+00  0.00000000E+00  0.00000000E+00  0.00000000E+00  0.00000000E+00
  0.00000000E+00  0.00000000E+00  0.00000000E+00  0.00000000E+00  0.00000000E+00
  0.00000000E+00  0.00000000E+00  0.00000000E+00  0.00000000E+00  0.00000000E+00
  0.00000000E+00  0.00000000E+00  0.00000000E+00  0.00000000E+00  0.00000000E+00
  0.00000000E+00  0.00000000E+00  0.00000000E+00  0.00000000E+00  0.00000000E+00
  0.00000000E+00  0.00000000E+00  0.00000000E+00  0.00000000E+00  0.00000000E+00
  0.00000000E+00  0.00000000E+00  0.00000000E+00  0.00000000E+00  0.00000000E+00
  0.00000000E+00  0.00000000E+00  0.00000000E+00  0.00000000E+00  0.00000000E+00
  0.00000000E+00  0.00000000E+00  0.00000000E+00  0.00000000E+00  0.00000000E+00
  0.00000000E+00  0.00000000E+00  0.00000000E+00  0.00000000E+00  0.00000000E+00
  0.00000000E+00  0.00000000E+00  0.00000000E+00  0.00000000E+00  0.00000000E+00
  0.00000000E+00  0.00000000E+00  0.00000000E+00  0.00000000E+00  0.00000000E+00
  0.00000000E+00  0.00000000E+00  0.00000000E+00  0.00000000E+00  0.00000000E+00
  0.00000000E+00  0.00000000E+00  0.00000000E+00  0.00000000E+00  0.00000000E+00
  0.00000000E+00  0.00000000E+00  0.00000000E+00  0.00000000E+00  0.00000000E+00
  0.00000000E+00  0.00000000E+00  0.00000000E+00  0.00000000E+00  0.00000000E+00
  0.00000000E+00  0.00000000E+00  0.00000000E+00  0.00000000E+00  0.00000000E+00
  0.00000000E+00  0.00000000E+00  0.00000000E+00  0.00000000E+00  0.00000000E+00
  0.00000000E+00  0.00000000E+00  0.00000000E+00  0.00000000E+00  0.00000000E+00
IOpCl                                      I                0
IROHF                                      I                0
Grdnt Energy                               R      0.000000000000000E+00
Grdnt NVar                                 I                6
Grdnt IGetFC                               I                4
Internal Forces                            R   N=           6
  0.00000000E+00  0.00000000E+00  0.00000000E+00  0.00000000E+00  0.00000000E+00
  0.00000000E+00
Internal Force Constants                   R   N=          21
  3.17815523E-17  2.52922532E-21  5.05377735E-25  6.46795165E-18 -2.52942084E-21
  3.17895486E-17 -3.72546574E-17 -6.17179653E-21  2.45217623E-17  7.74913928E-17
  2.45265301E-17  6.17235335E-21 -3.72574733E-17 -7.32595067E-17  7.75027544E-17
 -5.89739281E-17 -1.31559794E-25 -5.89819222E-17  1.96364249E-17  1.96228388E-17
  1.81860246E-16
Optimization MaxStp                        I                2
Optimization Job offset                    I                0
Optimization Num results per geometry      I                2
Optimization Num geometry variables        I               12
Opt point       1 Results for each geome   R   N=           2
  0.00000000E+00  0.00000000E+00
Opt point       1 Geometries               R   N=          12
 -1.35801986E+00 -2.23880191E-01 -1.03212341E-01 -1.93420696E+00  1.25753235E+00
  8.25256726E-01  1.35802717E+00  2.23873885E-01 -1.03128714E-01  1.93414843E+00
 -1.25748190E+00  8.25471704E-01
Opt point       1 Gradient at each geome   R   N=          12
  0.00000000E+00  0.00000000E+00  0.00000000E+00  0.00000000E+00  0.00000000E+00
  0.00000000E+00  0.00000000E+00  0.00000000E+00  0.00000000E+00  0.00000000E+00
  0.00000000E+00  0.00000000E+00
Optimization Number of geometries          I   N=           1
           1
MMPar NCPar                                I   N=          16
          -1          20           4         203           4           3
          10           6          18           6           4          95
           6           7           0           7
MMPar IPrt                                 I   N=          18
           1           1           6           6           6           3
           6           3           0           0           0           0
           0           0           0           0           0           0
MMPar ICnvrt                               I   N=           6
           0           0           0           0           0           0
MMPar ICntr                                I   N=           4
           0           0           0           0
MMPar IList                                I   N=          97
           5           0           0           0           0           0
           0           0           0           0           0           0
           0           0           0           0           0           0
           0           0           0           0           0           0
           0           0           0           0           0           0
           0           0           0           0           0           0
           0           0           0           0           0           0
           0           0           0           0           0           0
           0           0           0           0           0           0
           0           0           0           0           0           0
           0           0           0           0           0           0
           0           0           0           0           0           0
           0           0           0           0           0           0
           0           0           0           0           0           0
           0           0           0           0           0           0
           0           0           0           0           0           7
           0
MMPar AtL                                  L   N=           4
TTTT
MMPar ChL                                  L   N=           4
FFFF
MMPar Q                                    R   N=           4
  0.00000000E+00  0.00000000E+00  0.00000000E+00  0.00000000E+00
MMPar IAType                               I   N=           8
          22          31          22          31           0           0
           0           0
MMPar IAtTpT                               I   N=           3
           0    20001031    20001022
MMPar IUserT                               I   N=           3
           0           0           0
MMPar SymbT                                H   N=           3
*       ho      oh      
MMPar StepD                                I   N=          95
           0           0           0           0           0           0
           0           0           0           0           0           0
           0           0           0           0           0           0
           0           0           0           0           0           0
           0           0           0           0           0           0
           0           0           0           0           0           0
           0           0           0           0           0           0
           0           0           0           0           0           0
           0           0           0           0           0           0
           0           0           0           0           0           0
           0           0           0           0           0           0
           0           0           0           0           0           0
           0           0           0           0           0           0
           0           0           0           0           0           0
           0           0           0           0           0           0
           0           0           0           0           0
MMPar ICorL                                I   N=         200
    20001031    20001022    20001022    20001031           0           0
           0           0           0          30    20001031    20001022
    20001022           0           0           0           0           0
           0          20    20001031    20001022           0           0
           0           0           0           0           0          10
    20001022    20001022           0           0           0           0
           0           0           0          10           3           1
           0           0           0           0           0           0
           0           6    20001031           0           0           0
           0           0           0           0           0           1
    20001022           0           0           0           0           0
           0           0           0           1           3           1
           0           0           0           0           0           0
           0           2           2           1           0           0
           0           0           0           0           0          10
           1           3           0           0           0           0
           0           0           0          10           4           3
           0           0           0           0           0           0
           0          10           4           3           1           0
           0           0           0           0           0          20
           2           1           3           0           0           0
           0           0           0          20           2           1
           3           4           0           0           0           0
           0          30           2           1           3           1
           0           0           0           0           0           3
           3           2           3           1           0           0
           0           0           0           3           3           1
           3           1           0           0           0           0
           0           3           4           2           3           1
           0           0           0           0           0           3
           4           1           3           1           0           0
           0           0           0           3           4           3
           3           1           0           0           0           0
           0           3
MMPar RCorL                                R   N=         120
  0.00000000E+00  0.00000000E+00  0.00000000E+00  0.00000000E+00  1.00000000E+00
  0.00000000E+00  0.00000000E+00  1.00248600E+02  0.00000000E+00  0.00000000E+00
  0.00000000E+00  0.00000000E+00  0.00000000E+00  9.74120000E-01  0.00000000E+00
  0.00000000E+00  0.00000000E+00  0.00000000E+00  0.00000000E+00  1.45667000E+00
  0.00000000E+00  0.00000000E+00  0.00000000E+00  0.00000000E+00  0.00000000E+00
  0.00000000E+00  5.00000000E-01  0.00000000E+00  0.00000000E+00 -1.20000000E+00
  0.00000000E+00  0.00000000E+00  0.00000000E+00  0.00000000E+00  0.00000000E+00
  0.00000000E+00  1.72100000E+00  2.10400000E-01  0.00000000E+00  0.00000000E+00
  0.00000000E+00  0.00000000E+00  0.00000000E+00  0.00000000E+00  0.00000000E+00
  0.00000000E+00  0.00000000E+00  0.00000000E+00  0.00000000E+00  1.84082001E+00
  0.00000000E+00  0.00000000E+00  0.00000000E+00  0.00000000E+00  0.00000000E+00
  2.75270735E+00  0.00000000E+00  0.00000000E+00  0.00000000E+00  0.00000000E+00
  0.00000000E+00  1.84082001E+00  0.00000000E+00  0.00000000E+00  0.00000000E+00
  0.00000000E+00  0.00000000E+00  1.74966814E+00  0.00000000E+00  0.00000000E+00
  0.00000000E+00  0.00000000E+00  0.00000000E+00  1.74966814E+00  0.00000000E+00
  0.00000000E+00  0.00000000E+00  0.00000000E+00  0.00000000E+00  0.00000000E+00
  0.00000000E+00  0.00000000E+00  1.00000000E+00  0.00000000E+00 -1.00000000E+00
 -1.00000000E+00  0.00000000E+00  0.00000000E+00  0.00000000E+00  0.00000000E+00
 -1.00000000E+00 -1.00000000E+00  0.00000000E+00  0.00000000E+00  0.00000000E+00
  0.00000000E+00 -1.00000000E+00 -1.00000000E+00  0.00000000E+00  0.00000000E+00
  0.00000000E+00  0.00000000E+00 -5.00000000E-01 -1.66666667E-01  0.00000000E+00
  0.00000000E+00  0.00000000E+00  0.00000000E+00 -1.00000000E+00 -1.00000000E+00
  0.00000000E+00  0.00000000E+00  0.00000000E+00  0.00000000E+00 -1.00000000E+00
 -1.00000000E+00  0.00000000E+00  0.00000000E+00  0.00000000E+00  0.00000000E+00
MMPar Table                                R   N=          28
  0.00000000E+00  0.00000000E+00  0.00000000E+00  0.00000000E+00  0.00000000E+00
  0.00000000E+00  0.00000000E+00  0.00000000E+00  0.00000000E+00  0.00000000E+00
  0.00000000E+00  0.00000000E+00  0.00000000E+00  0.00000000E+00  0.00000000E+00
  0.00000000E+00  0.00000000E+00  0.00000000E+00  0.00000000E+00  0.00000000E+00
  3.25221866E+00  0.00000000E+00  3.25221866E+00  0.00000000E+00  3.35293742E-04
  0.00000000E+00  3.35293742E-04  0.00000000E+00
ONIOM Charges                              I   N=          16
           0           0           0           0           0           0
           0           0           0           0           0           0
           0           0           0           0
ONIOM Multiplicities                       I   N=          16
           1           0           0           0           0           0
           0           0           0           0           0           0
           0           0           0           0
Atom Layers                                I   N=           4
           1           1           1           1
Atom Modifiers                             I   N=           4
           0           0           0           0
Force Field                                I                0
Atom Modified Types                        C   N=           4
                                                
Int Atom Modified Types                    I   N=           4
           0           0           0           0
Link Atoms                                 I   N=           4
           0           0           0           0
Atom Modified MM Charges                   R   N=           4
  0.00000000E+00  0.00000000E+00  0.00000000E+00  0.00000000E+00
Link Distances                             R   N=          16
  0.00000000E+00  0.00000000E+00  0.00000000E+00  0.00000000E+00  0.00000000E+00
  0.00000000E+00  0.00000000E+00  0.00000000E+00  0.00000000E+00  0.00000000E+00
  0.00000000E+00  0.00000000E+00  0.00000000E+00  0.00000000E+00  0.00000000E+00
  0.00000000E+00
Cartesian Gradient                         R   N=          12
  0.00000000E+00  0.00000000E+00  0.00000000E+00  0.00000000E+00  0.00000000E+00
  0.00000000E+00  0.00000000E+00  0.00000000E+00  0.00000000E+00  0.00000000E+00
  0.00000000E+00  0.00000000E+00
Cartesian Force Constants                  R   N=          78
  0.00000000E+00  0.00000000E+00  0.00000000E+00  0.00000000E+00  0.00000000E+00
  6.01393816E-16  0.00000000E+00  0.00000000E+00  0.00000000E+00  0.00000000E+00
  0.00000000E+00  0.00000000E+00  0.00000000E+00  0.00000000E+00  0.00000000E+00
  0.00000000E+00  0.00000000E+00  0.00000000E+00  0.00000000E+00  0.00000000E+00
  0.00000000E+00  0.00000000E+00  0.00000000E+00  0.00000000E+00  0.00000000E+00
  0.00000000E+00  0.00000000E+00  0.00000000E+00  0.00000000E+00  0.00000000E+00
  0.00000000E+00  0.00000000E+00  0.00000000E+00  0.00000000E+00  0.00000000E+00
  0.00000000E+00  0.00000000E+00  0.00000000E+00  0.00000000E+00  0.00000000E+00
  0.00000000E+00  0.00000000E+00  0.00000000E+00  0.00000000E+00  6.01393816E-16
  0.00000000E+00  0.00000000E+00  0.00000000E+00  0.00000000E+00  0.00000000E+00
  0.00000000E+00  0.00000000E+00  0.00000000E+00  0.00000000E+00  0.00000000E+00
  0.00000000E+00  0.00000000E+00  0.00000000E+00  0.00000000E+00  0.00000000E+00
  0.00000000E+00  0.00000000E+00  0.00000000E+00  0.00000000E+00  0.00000000E+00
  0.00000000E+00  0.00000000E+00  0.00000000E+00  0.00000000E+00  0.00000000E+00
  0.00000000E+00  0.00000000E+00  0.00000000E+00  0.00000000E+00  0.00000000E+00
  0.00000000E+00  0.00000000E+00  0.00000000E+00
Dipole Moment                              R   N=           3
  0.00000000E+00  0.00000000E+00  0.00000000E+00
Number of Normal Modes                     I                6
Vib-NDFDPol                                I                0
Vib-NumROA                                 I                0
Vib-NDim                                   I                4
Vib-NDim0                                  I                4
Vib-AtMass                                 R   N=           4
  1.59949146E+01  1.00782504E+00  1.59949146E+01  1.00782504E+00
Vib-E2                                     R   N=          84
  0.00000000E+00  0.00000000E+00  4.94065646-324  0.00000000E+00  0.00000000E+00
  0.00000000E+00  0.00000000E+00  0.00000000E+00  0.00000000E+00  0.00000000E+00
  9.88131292-324  0.00000000E+00  0.00000000E+00  0.00000000E+00  0.00000000E+00
  0.00000000E+00  0.00000000E+00  0.00000000E+00  1.48219694-323  0.00000000E+00
  0.00000000E+00  0.00000000E+00  0.00000000E+00  0.00000000E+00  0.00000000E+00
  0.00000000E+00  1.97626258-323  0.00000000E+00  0.00000000E+00  0.00000000E+00
  0.00000000E+00  0.00000000E+00  0.00000000E+00  0.00000000E+00  2.47032823-323
  0.00000000E+00  0.00000000E+00  0.00000000E+00  0.00000000E+00  0.00000000E+00
  0.00000000E+00  0.00000000E+00  2.96439388-323  0.00000000E+00  0.00000000E+00
  0.00000000E+00  0.00000000E+00  0.00000000E+00 -4.00543852E-06 -3.27042686E-06
  0.00000000E+00  0.00000000E+00  5.66454548E-06  8.01087705E-06  1.01558732E+00
  1.09752986E+00  1.65108517E+00  2.86948051E+00  1.09080154E+00  1.08373194E+00
  9.59991994E-18  6.91632559E-18  0.00000000E+00  0.00000000E+00  2.06217768E-17
  4.09762498E-17  0.00000000E+00  0.00000000E+00  0.00000000E+00  0.00000000E+00
  0.00000000E+00  0.00000000E+00  0.00000000E+00  0.00000000E+00  0.00000000E+00
  0.00000000E+00  0.00000000E+00  0.00000000E+00  0.00000000E+00  0.00000000E+00
  0.00000000E+00  0.00000000E+00  0.00000000E+00  0.00000000E+00
Vib-Modes                                  R   N=          72
  0.00000000E+00  0.00000000E+00  0.00000000E+00  0.00000000E+00  0.00000000E+00
  0.00000000E+00  0.00000000E+00  0.00000000E+00  0.00000000E+00  0.00000000E+00
  0.00000000E+00  0.00000000E+00  0.00000000E+00  0.00000000E+00  0.00000000E+00
  0.00000000E+00  0.00000000E+00  0.00000000E+00  1.00000000E+02  1.00000000E+02
  1.00000000E+02  1.00000000E+02  1.00000000E+02  1.00000000E+02  0.00000000E+00
  0.00000000E+00  0.00000000E+00  0.00000000E+00  0.00000000E+00  0.00000000E+00
  0.00000000E+00  0.00000000E+00  0.00000000E+00  0.00000000E+00  0.00000000E+00
  0.00000000E+00  0.00000000E+00  0.00000000E+00  0.00000000E+00  0.00000000E+00
  0.00000000E+00  0.00000000E+00  0.00000000E+00  0.00000000E+00  0.00000000E+00
  0.00000000E+00  0.00000000E+00  0.00000000E+00 -6.06574129E-03  9.88740000E-04
 -6.55006412E-03  7.69464923E-01 -4.12506813E-01  1.17705962E-02 -1.68756777E-02
  1.14945311E-02 -4.51044926E-03 -4.05367957E-01  2.14388242E-01  1.63767777E-01
  1.48777484E-03 -7.11107976E-04  1.78644691E-03  4.60401294E-01  5.03743689E-02
 -3.12777537E-01 -6.93457113E-02  3.17492895E-02  1.27560872E-02  6.16553396E-01
 -5.42972832E-01  8.19769687E-02
