Title Card Required                                                     
Freq      RAMBER                                                      ZDO                 
Number of atoms                            I                4
Info1-9                                    I   N=           9
          25          25           0           0           0         100
           6           8        1101
Full Title                                 C   N=           2
Title Card Required     
Route                                      C   N=           5
#p amber=(print,softonly) freq=intmodes geom=connectivity   
Charge                                     I                0
Multiplicity                               I                1
Number of electrons                        I                6
Number of alpha electrons                  I                3
Number of beta electrons                   I                3
Number of basis functions                  I                0
Number of independent functions            I                0
Number of point charges in /Mol/           I                0
Number of translation vectors              I                0
Atomic numbers                             I   N=           4
           8           1           8           1
Nuclear charges                            R   N=           4
  2.00000000E+00  1.00000000E+00  2.00000000E+00  1.00000000E+00
Current cartesian coordinates              R   N=          12
  0.00000000E+00  1.24721925E+00 -1.90042760E-01 -6.90253292E-31  1.85193161E+00
  1.52034208E+00 -1.52740306E-16 -1.24721925E+00 -1.90042760E-01 -2.26796211E-16
 -1.85193161E+00  1.52034208E+00
Number of symbols in /Mol/                 I                0
Redundant internal dimensions              I   N=           4
           6           3           2           1
Redundant internal coordinate indices      I   N=          24
           1           2           0           0           1           3
           0           0           3           4           0           0
           2           1           3           0           1           3
           4           0           2           1           3           4
Redundant internal coordinates             R   N=           6
  1.81413708E+00  2.49443850E+00  1.81413708E+00  1.91063324E+00  1.91063324E+00
  0.00000000E+00
ZRed-IntVec                                I   N=           6
           0           0           0           0           0           0
ZRed-FPVec                                 R   N=           6
  0.00000000E+00  0.00000000E+00  0.00000000E+00  0.00000000E+00  0.00000000E+00
  0.00000000E+00
ZRed-Constraint1                           R   N=           6
  1.81413708E+00  2.49443850E+00  1.81413708E+00  1.91063323E+00  1.91063323E+00
  0.00000000E+00
ZRed-Constraint2                           R   N=           6
  0.00000000E+00  0.00000000E+00  0.00000000E+00  0.00000000E+00  0.00000000E+00
  0.00000000E+00
Force Field                                I                2
Atom Types                                 C   N=           4
#200OW      #200HW      #200OW      #200HW      
Int Atom Types                             I   N=           4
    20001021    20001030    20001021    20001030
MM charges                                 R   N=           4
  7.90505033-323  4.94065646-324  7.90505033-323  4.94065646-324
Integer atomic weights                     I   N=           4
           0           0           0           0
Real atomic weights                        R   N=           4
  0.00000000E+00  0.00000000E+00  0.00000000E+00  0.00000000E+00
Atom fragment info                         I   N=           4
           0           0           0           0
Atom residue num                           I   N=           4
           0           0           0           0
Nuclear spins                              I   N=           4
           0           0           0           0
Nuclear ZEff                               R   N=           4
  0.00000000E+00  0.00000000E+00  0.00000000E+00  0.00000000E+00
Nuclear ZNuc                               R   N=           4
  0.00000000E+00  0.00000000E+00  0.00000000E+00  0.00000000E+00
Nuclear QMom                               R   N=           4
  0.00000000E+00  0.00000000E+00  0.00000000E+00  0.00000000E+00
Nuclear GFac                               R   N=           4
  0.00000000E+00  0.00000000E+00  0.00000000E+00  0.00000000E+00
MicOpt                                     I   N=           4
           0           0           0           0
Number of residues                         I                0
Number of secondary structures             I                0
Number of contracted shells                I                4
Number of primitive shells                 I                4
Pure/Cartesian d shells                    I                0
Pure/Cartesian f shells                    I                0
Highest angular momentum                   I                0
Largest degree of contraction              I                1
Shell types                                I   N=           4
           0           0           0           0
Number of primitives per shell             I   N=           4
           1           1           1           1
Shell to atom map                          I   N=           4
           1           2           3           4
Primitive exponents                        R   N=           4
  1.00000000E+00  1.00000000E+00  1.00000000E+00  1.00000000E+00
Contraction coefficients                   R   N=           4
  1.00000000E+00  1.00000000E+00  1.00000000E+00  1.00000000E+00
Coordinates of each shell                  R   N=          12
  0.00000000E+00  1.24721925E+00 -1.90042760E-01 -5.91645679E-31  1.85193161E+00
  1.52034208E+00 -1.52740306E-16 -1.24721925E+00 -1.90042760E-01 -2.26796211E-16
 -1.85193161E+00  1.52034208E+00
Constraint Structure                       R   N=          12
  0.00000000E+00  1.24721925E+00 -1.90042760E-01 -5.91645679E-31  1.85193161E+00
  1.52034208E+00 -1.52740306E-16 -1.24721925E+00 -1.90042760E-01 -2.26796211E-16
 -1.85193161E+00  1.52034208E+00
Num ILSW                                   I              100
ILSW                                       I   N=         100
           0           0           0           0           0           0
           0           0           0           0           0          -1
           5           0           0           0           2           0
           0           0           0           0           1           0
           1           0           0           0           0           0
           0           0      100000           0          -1           0
           0           0           0           0           0           0
           0           0           0         101           0           0
           0 -2000000000           1           0           0           0
           0           0           4          41           0           0
           0           0           0           0           0           0
           0           0           0           4           0           1
           0           0           0           0           0           0
           0           0           0           0           0           0
           0           0           0           0           0           0
           0           0           0           0           0           0
           0           0           0           0
Num RLSW                                   I               41
RLSW                                       R   N=          41
  1.00000000E+00  1.00000000E+00  1.00000000E+00  1.00000000E+00  1.00000000E+00
  0.00000000E+00  0.00000000E+00  1.00000000E+00  0.00000000E+00  0.00000000E+00
  0.00000000E+00  0.00000000E+00  1.00000000E+00  0.00000000E+00  0.00000000E+00
  0.00000000E+00  0.00000000E+00  1.00000000E+00  0.00000000E+00  0.00000000E+00
  0.00000000E+00  0.00000000E+00  1.00000000E+00  0.00000000E+00  0.00000000E+00
  0.00000000E+00  0.00000000E+00  1.00000000E+00  0.00000000E+00  0.00000000E+00
  0.00000000E+00  0.00000000E+00  1.00000000E+00  0.00000000E+00  0.00000000E+00
  0.00000000E+00  0.00000000E+00  0.00000000E+00  1.00000000E+00  1.00000000E+00
  0.00000000E+00
MxBond                                     I                2
NBond                                      I   N=           4
           2           1           2           1
IBond                                      I   N=           8
           2           3           1           0           1           4
           3           0
RBond                                      R   N=           8
  1.00000000E+00  1.00000000E+00  1.00000000E+00  0.00000000E+00  1.00000000E+00
  1.00000000E+00  1.00000000E+00  0.00000000E+00
Virial Ratio                               R      0.000000000000000E+00
SCF Energy                                 R      1.942554332344425E-02
Total Energy                               R      1.942554332344425E-02
RMS Force                                  R      2.876733008888193E-02
External E-field                           R   N=         105
  0.00000000E+00  0.00000000E+00  0.00000000E+00  0.00000000E+00  0.00000000E+00
  0.00000000E+00  0.00000000E+00  0.00000000E+00  0.00000000E+00  0.00000000E+00
  0.00000000E+00  0.00000000E+00  0.00000000E+00  0.00000000E+00  0.00000000E+00
  0.00000000E+00  0.00000000E+00  0.00000000E+00  0.00000000E+00  0.00000000E+00
  0.00000000E+00  0.00000000E+00  0.00000000E+00  0.00000000E+00  0.00000000E+00
  0.00000000E+00  0.00000000E+00  0.00000000E+00  0.00000000E+00  0.00000000E+00
  0.00000000E+00  0.00000000E+00  0.00000000E+00  0.00000000E+00  0.00000000E+00
  0.00000000E+00  0.00000000E+00  0.00000000E+00  0.00000000E+00  0.00000000E+00
  0.00000000E+00  0.00000000E+00  0.00000000E+00  0.00000000E+00  0.00000000E+00
  0.00000000E+00  0.00000000E+00  0.00000000E+00  0.00000000E+00  0.00000000E+00
  0.00000000E+00  0.00000000E+00  0.00000000E+00  0.00000000E+00  0.00000000E+00
  0.00000000E+00  0.00000000E+00  0.00000000E+00  0.00000000E+00  0.00000000E+00
  0.00000000E+00  0.00000000E+00  0.00000000E+00  0.00000000E+00  0.00000000E+00
  0.00000000E+00  0.00000000E+00  0.00000000E+00  0.00000000E+00  0.00000000E+00
  0.00000000E+00  0.00000000E+00  0.00000000E+00  0.00000000E+00  0.00000000E+00
  0.00000000E+00  0.00000000E+00  0.00000000E+00  0.00000000E+00  0.00000000E+00
  0.00000000E+00  0.00000000E+00  0.00000000E+00  0.00000000E+00  0.00000000E+00
  0.00000000E+00  0.00000000E+00  0.00000000E+00  0.00000000E+00  0.00000000E+00
  0.00000000E+00  0.00000000E+00  0.00000000E+00  0.00000000E+00  0.00000000E+00
  0.00000000E+00  0.00000000E+00  0.00000000E+00  0.00000000E+00  0.00000000E+00
  0.00000000E+00  0.00000000E+00  0.00000000E+00  0.00000000E+00  0.00000000E+00
IOpCl                                      I                0
IROHF                                      I                0
Grdnt Energy                               R      1.942554332344425E-02
Grdnt NVar                                 I                6
Grdnt IGetFC                               I                4
Internal Forces                            R   N=           6
  3.59546610E-03  6.45236398E-02  3.59546610E-03 -1.24706243E-02 -1.24706243E-02
 -7.42739613E-18
Internal Force Constants                   R   N=          21
  5.23918852E-01  3.36603732E-04  2.41262175E-01  5.61006221E-04  3.36603732E-04
  5.23918852E-01 -8.99565510E-04  1.72716576E-03  2.87860960E-04  2.22061209E-01
  2.87860960E-04  1.72716576E-03 -8.99565510E-04  3.13875052E-03  2.22061209E-01
  1.75079218E-18 -2.44847661E-17  9.82501858E-17  6.99784887E-18  6.93111739E-18
 -7.85146482E-03
Optimization MaxStp                        I                2
Optimization Job offset                    I                0
Optimization Num results per geometry      I                2
Optimization Num geometry variables        I               12
Opt point       1 Results for each geome   R   N=           2
  1.94255433E-02  0.00000000E+00
Opt point       1 Geometries               R   N=          12
  0.00000000E+00  1.24721925E+00 -1.90042760E-01 -5.91645679E-31  1.85193161E+00
  1.52034208E+00 -1.52740306E-16 -1.24721925E+00 -1.90042760E-01 -2.26796211E-16
 -1.85193161E+00  1.52034208E+00
Opt point       1 Gradient at each geome   R   N=          12
 -4.39738590E-18 -6.98061483E-02  5.68121649E-03  4.46452454E-19  5.28250855E-03
 -5.68121649E-03  4.15140171E-18  6.98061483E-02  5.68121649E-03 -2.00468264E-19
 -5.28250855E-03 -5.68121649E-03
Optimization Number of geometries          I   N=           1
           1
MMPar NCPar                                I   N=          16
          -1          20           4         303           4           3
          10           6          18           6           4          95
           6           7           0           7
MMPar IPrt                                 I   N=          18
           1           1           6           6           6           3
           6           3           0           0           0           0
           0           0           0           0           0           0
MMPar ICnvrt                               I   N=           6
           0           0           0           0           0           0
MMPar ICntr                                I   N=           4
           0           0           0           0
MMPar IList                                I   N=          97
           5           0           0           0           0           0
           0           0           0           0           0           0
           0           0           0           0           0           0
           0           0           0           0           0           0
           0           0           0           0           0           0
           0           0           0           0           0           0
           0           0           0           0           0           0
           0           0           0           0           0           0
           0           0           0           0           0           0
           0           0           0           0           0           0
           0           0           0           0           0           0
           0           0           0           0           0           0
           0           0           0           0           0           0
           0           0           0           0           0           0
           0           0           0           0           0           0
           0           0           0           0           0           7
           0
MMPar AtL                                  L   N=           4
TTTT
MMPar ChL                                  L   N=           4
FFFF
MMPar Q                                    R   N=           4
 -1.75460000E-01  1.75460000E-01 -1.75460000E-01  1.75460000E-01
MMPar IAType                               I   N=           8
          21          30          21          30           0           0
           0           0
MMPar IAtTpT                               I   N=           3
           0    20001021    20001030
MMPar IUserT                               I   N=           3
           0           0           0
MMPar SymbT                                H   N=           3
*       OW      HW      
MMPar StepD                                I   N=          95
           0           0           0           0           0           0
           0           0           0           0           0           0
           0           0           0           0           0           0
           0           0           0           0           0           0
           0           0           0           0           0           0
           0           0           0           0           0           0
           0           0           0           0           0           0
           0           0           0           0           0           0
           0           0           0           0           0           0
           0           0           0           0           0           0
           0           0           0           0           0           0
           0           0           0           0           0           0
           0           0           0           0           0           0
           0           0           0           0           0           0
           0           0           0           0           0           0
           0           0           0           0           0
MMPar ICorL                                I   N=         200
           3           1           0           0           0           0
           0           0           0           6    20001021    20001030
           0           0           0           0           0           0
           0          10    20001021    20001021           0           0
           0           0           0           0           0          10
    20001021    20001021    20001030           0           0           0
           0           0           0          20    20001030    20001021
    20001021    20001030           0           0           0           0
           0          30    20001030           0           0           0
           0           0           0           0           0           1
    20001021           0           0           0           0           0
           0           0           0           1           3           1
           0           0           0           0           0           0
           0           2           1           2           0           0
           0           0           0           0           0          10
           1           3           0           0           0           0
           0           0           0          10           3           4
           0           0           0           0           0           0
           0          10           1           3           4           0
           0           0           0           0           0          20
           3           1           2           0           0           0
           0           0           0          20           2           1
           3           4           0           0           0           0
           0          30           2           1           3           1
           0           0           0           0           0           3
           3           2           3           1           0           0
           0           0           0           3           3           1
           3           1           0           0           0           0
           0           3           4           2           3           1
           0           0           0           0           0           3
           4           1           3           1           0           0
           0           0           0           3           4           3
           3           1           0           0           0           0
           0           3
MMPar RCorL                                R   N=         120
  0.00000000E+00  0.00000000E+00  5.00000000E-01  0.00000000E+00  0.00000000E+00
 -1.20000000E+00  5.87396000E+02  9.63000000E-01  0.00000000E+00  0.00000000E+00
  0.00000000E+00  0.00000000E+00  2.69188000E+02  1.45800000E+00  0.00000000E+00
  0.00000000E+00  0.00000000E+00  0.00000000E+00  6.84490000E+01  1.05356000E+02
  0.00000000E+00  0.00000000E+00  0.00000000E+00  0.00000000E+00  0.00000000E+00
  1.00000000E+00  0.00000000E+00  0.00000000E+00  1.00000000E+00  0.00000000E+00
  0.00000000E+00  0.00000000E+00  0.00000000E+00  0.00000000E+00  0.00000000E+00
  0.00000000E+00  1.76830000E+00  1.52000000E-01  0.00000000E+00  0.00000000E+00
  0.00000000E+00  0.00000000E+00  0.00000000E+00  0.00000000E+00  0.00000000E+00
  0.00000000E+00  0.00000000E+00  0.00000000E+00  2.62127728E-01  1.81980626E+00
  0.00000000E+00  0.00000000E+00  0.00000000E+00  0.00000000E+00  1.20126182E-01
  2.75522069E+00  0.00000000E+00  0.00000000E+00  0.00000000E+00  0.00000000E+00
  2.62127728E-01  1.81980626E+00  0.00000000E+00  0.00000000E+00  0.00000000E+00
  0.00000000E+00  1.09080425E-01  1.83880909E+00  0.00000000E+00  0.00000000E+00
  0.00000000E+00  0.00000000E+00  1.09080425E-01  1.83880909E+00  0.00000000E+00
  0.00000000E+00  0.00000000E+00  0.00000000E+00  0.00000000E+00  1.59360144E-03
  0.00000000E+00  0.00000000E+00  1.00000000E+00  0.00000000E+00 -1.00000000E+00
 -1.00000000E+00  0.00000000E+00  0.00000000E+00  0.00000000E+00  0.00000000E+00
 -1.00000000E+00 -1.00000000E+00  0.00000000E+00  0.00000000E+00  0.00000000E+00
  0.00000000E+00 -1.00000000E+00 -1.00000000E+00  0.00000000E+00  0.00000000E+00
  0.00000000E+00  0.00000000E+00 -5.00000000E-01 -1.66666667E-01  0.00000000E+00
  0.00000000E+00  0.00000000E+00  0.00000000E+00 -1.00000000E+00 -1.00000000E+00
  0.00000000E+00  0.00000000E+00  0.00000000E+00  0.00000000E+00 -1.00000000E+00
 -1.00000000E+00  0.00000000E+00  0.00000000E+00  0.00000000E+00  0.00000000E+00
MMPar Table                                R   N=          28
  0.00000000E+00  0.00000000E+00  0.00000000E+00  0.00000000E+00  0.00000000E+00
  0.00000000E+00  0.00000000E+00  0.00000000E+00  0.00000000E+00  0.00000000E+00
  0.00000000E+00  0.00000000E+00  0.00000000E+00  0.00000000E+00  0.00000000E+00
  0.00000000E+00  0.00000000E+00  0.00000000E+00  0.00000000E+00  0.00000000E+00
  3.34160271E+00  0.00000000E+00  3.34160271E+00  0.00000000E+00  2.42227418E-04
  0.00000000E+00  2.42227418E-04  0.00000000E+00
ONIOM Charges                              I   N=          16
           0           0           0           0           0           0
           0           0           0           0           0           0
           0           0           0           0
ONIOM Multiplicities                       I   N=          16
           1           0           0           0           0           0
           0           0           0           0           0           0
           0           0           0           0
Atom Layers                                I   N=           4
           1           1           1           1
Atom Modifiers                             I   N=           4
           0           0           0           0
Force Field                                I                0
Atom Modified Types                        C   N=           4
                                                
Int Atom Modified Types                    I   N=           4
           0           0           0           0
Link Atoms                                 I   N=           4
           0           0           0           0
Atom Modified MM Charges                   R   N=           4
  0.00000000E+00  0.00000000E+00  0.00000000E+00  0.00000000E+00
Link Distances                             R   N=          16
  0.00000000E+00  0.00000000E+00  0.00000000E+00  0.00000000E+00  0.00000000E+00
  0.00000000E+00  0.00000000E+00  0.00000000E+00  0.00000000E+00  0.00000000E+00
  0.00000000E+00  0.00000000E+00  0.00000000E+00  0.00000000E+00  0.00000000E+00
  0.00000000E+00
Cartesian Gradient                         R   N=          12
 -4.39738590E-18 -6.98061483E-02  5.68121649E-03  4.46452454E-19  5.28250855E-03
 -5.68121649E-03  4.15140171E-18  6.98061483E-02  5.68121649E-03 -2.00468264E-19
 -5.28250855E-03 -5.68121649E-03
Cartesian Force Constants                  R   N=          78
 -4.23690422E-02  2.21451623E-17  3.52977064E-01 -7.06165636E-18  9.52845083E-02
  5.53326304E-01  1.02297068E-02 -4.48198472E-18  5.04365312E-18 -6.00548079E-03
 -5.46598113E-18 -1.12724700E-01 -9.52845083E-02  4.28515858E-18  1.13734511E-01
  2.26049096E-18 -1.40736996E-01 -4.92250598E-01 -1.81021519E-18  1.40736996E-01
  4.75675811E-01  3.90474409E-02 -1.80861770E-17 -2.67710759E-19 -6.90810555E-03
  1.40699588E-18 -4.97448163E-19 -4.23690422E-02 -1.61181842E-17 -2.40252364E-01
 -4.54524874E-02  4.22999467E-19  1.07336015E-17 -3.46944695E-18  2.62707721E-17
  3.52977064E-01  5.29861356E-18  4.54524874E-02 -7.71455874E-02 -3.28061032E-18
 -4.54524874E-02  1.60698810E-02 -1.87306432E-17 -9.52845083E-02  5.53326304E-01
 -6.90810555E-03  4.22999467E-19  2.28571400E-18  2.68387949E-03 -2.26173324E-19
  4.71723908E-20  1.02297068E-02 -1.05755874E-17  1.67126399E-17 -6.00548079E-03
 -5.60996948E-19 -1.07340998E-17  4.54524874E-02 -2.26173324E-19 -1.00981120E-03
  3.63244785E-19 -9.59159097E-18 -1.12724700E-01  9.52845083E-02  1.03787612E-17
  1.13734511E-01 -4.97448163E-19 -3.46925568E-18  1.60698810E-02  4.71723908E-20
  3.63258020E-19  5.04905599E-04  1.94958021E-17  1.40736996E-01 -4.92250598E-01
 -1.90455263E-17 -1.40736996E-01  4.75675811E-01
Dipole Moment                              R   N=           3
 -1.29938491E-17  1.11022302E-16  6.00208248E-01
Dipole Derivatives                         R   N=          36
 -1.75460000E-01  5.54667824E-32  6.16297582E-33  4.93038066E-32 -1.75460000E-01
  3.38813179E-21  7.70371978E-33 -3.38813179E-21 -1.75460000E-01  1.75460000E-01
 -5.54667824E-32 -6.16297582E-33 -4.93038066E-32  1.75460000E-01 -3.38813179E-21
 -7.70371978E-33  3.38813179E-21  1.75460000E-01 -1.75460000E-01  5.54667824E-32
  6.16297582E-33  4.93038066E-32 -1.75460000E-01  3.38813179E-21  7.70371978E-33
 -3.38813179E-21 -1.75460000E-01  1.75460000E-01 -5.54667824E-32 -6.16297582E-33
 -4.93038066E-32  1.75460000E-01 -3.38813179E-21 -7.70371978E-33  3.38813179E-21
  1.75460000E-01
Number of Normal Modes                     I                6
Vib-NDFDPol                                I                0
Vib-NumROA                                 I                0
Vib-NDim                                   I                4
Vib-NDim0                                  I                4
Vib-AtMass                                 R   N=           4
  1.59949146E+01  1.00782504E+00  1.59949146E+01  1.00782504E+00
Vib-E2                                     R   N=          84
  0.00000000E+00  0.00000000E+00  4.94065646-324  0.00000000E+00  0.00000000E+00
  0.00000000E+00  0.00000000E+00  0.00000000E+00  0.00000000E+00  0.00000000E+00
  9.88131292-324  0.00000000E+00  0.00000000E+00  0.00000000E+00  0.00000000E+00
  0.00000000E+00  0.00000000E+00  0.00000000E+00  1.48219694-323  0.00000000E+00
  0.00000000E+00  0.00000000E+00  0.00000000E+00  0.00000000E+00  0.00000000E+00
  0.00000000E+00  1.97626258-323  0.00000000E+00  0.00000000E+00  0.00000000E+00
  0.00000000E+00  0.00000000E+00  0.00000000E+00  0.00000000E+00  2.47032823-323
  0.00000000E+00  0.00000000E+00  0.00000000E+00  0.00000000E+00  0.00000000E+00
  0.00000000E+00  0.00000000E+00  2.96439388-323  0.00000000E+00  0.00000000E+00
  0.00000000E+00  0.00000000E+00  0.00000000E+00 -5.38768296E+02  8.52122252E+02
  1.38229463E+03  1.45341514E+03  3.82146288E+03  3.82408235E+03  1.13787285E+00
  5.19536741E+00  1.15891243E+00  1.22860934E+00  1.07046841E+00  1.06777608E+00
  1.94602314E-01  2.22264591E+00  1.30467418E+00  1.52912635E+00  9.21050296E+00
  9.19993717E+00  9.66354609E-30  1.12237525E-01  6.60919215E+00  5.14458150E+01
  6.22235489E+00  5.65910511E+01  0.00000000E+00  0.00000000E+00  0.00000000E+00
  0.00000000E+00  0.00000000E+00  0.00000000E+00  0.00000000E+00  0.00000000E+00
  0.00000000E+00  0.00000000E+00  0.00000000E+00  0.00000000E+00
Vib-Modes                                  R   N=          72
  0.00000000E+00  0.00000000E+00  0.00000000E+00  0.00000000E+00  0.00000000E+00
  0.00000000E+00  0.00000000E+00  0.00000000E+00  0.00000000E+00  0.00000000E+00
  0.00000000E+00  0.00000000E+00  0.00000000E+00  0.00000000E+00  0.00000000E+00
  0.00000000E+00  0.00000000E+00  0.00000000E+00 -1.00000000E+02 -1.00010054E+02
  9.99899450E+01 -1.00000000E+02 -1.00010054E+02  9.99899450E+01  0.00000000E+00
  0.00000000E+00  0.00000000E+00  0.00000000E+00  0.00000000E+00  0.00000000E+00
  0.00000000E+00  0.00000000E+00  0.00000000E+00  0.00000000E+00  0.00000000E+00
  0.00000000E+00  0.00000000E+00  0.00000000E+00  0.00000000E+00  0.00000000E+00
  0.00000000E+00  0.00000000E+00  0.00000000E+00  0.00000000E+00  0.00000000E+00
  0.00000000E+00  0.00000000E+00  0.00000000E+00 -6.58685158E-02  4.03328335E-18
 -1.42598100E-18  7.04032200E-01 -4.31095390E-17  1.52415236E-17  6.58685158E-02
 -4.03328335E-18  1.42598100E-18 -7.04032200E-01  4.31095390E-17 -1.52415236E-17
  2.27960612E-17  3.73748476E-01  4.13104254E-03  3.79539082E-17  5.96654465E-01
 -6.55626426E-02 -2.29749263E-17 -3.73748476E-01  4.13104254E-03 -3.51151899E-17
 -5.96654465E-01 -6.55626426E-02
